 Entering Gaussian System, Link 0=g16
 Input=dr25kjo2h9ips_addon_10.gjf
 Output=dr25kjo2h9ips_addon_10.log
 Initial command:
 /home/mkliu/g16/l1.exe "/data/scratch/Gau-40556.inp" -scrdir="/data/scratch/"
 Entering Link 1 = /home/mkliu/g16/l1.exe PID=     40557.
  
 Copyright (c) 1988,1990,1992,1993,1995,1998,2003,2009,2016,
            Gaussian, Inc.  All Rights Reserved.
  
 This is part of the Gaussian(R) 16 program.  It is based on
 the Gaussian(R) 09 system (copyright 2009, Gaussian, Inc.),
 the Gaussian(R) 03 system (copyright 2003, Gaussian, Inc.),
 the Gaussian(R) 98 system (copyright 1998, Gaussian, Inc.),
 the Gaussian(R) 94 system (copyright 1995, Gaussian, Inc.),
 the Gaussian 92(TM) system (copyright 1992, Gaussian, Inc.),
 the Gaussian 90(TM) system (copyright 1990, Gaussian, Inc.),
 the Gaussian 88(TM) system (copyright 1988, Gaussian, Inc.),
 the Gaussian 86(TM) system (copyright 1986, Carnegie Mellon
 University), and the Gaussian 82(TM) system (copyright 1983,
 Carnegie Mellon University). Gaussian is a federally registered
 trademark of Gaussian, Inc.
  
 This software contains proprietary and confidential information,
 including trade secrets, belonging to Gaussian, Inc.
  
 This software is provided under written license and may be
 used, copied, transmitted, or stored only in accord with that
 written license.
  
 The following legend is applicable only to US Government
 contracts under FAR:
  
                    RESTRICTED RIGHTS LEGEND
  
 Use, reproduction and disclosure by the US Government is
 subject to restrictions as set forth in subparagraphs (a)
 and (c) of the Commercial Computer Software - Restricted
 Rights clause in FAR 52.227-19.
  
 Gaussian, Inc.
 340 Quinnipiac St., Bldg. 40, Wallingford CT 06492
  
  
 ---------------------------------------------------------------
 Warning -- This program may not be used in any manner that
 competes with the business of Gaussian, Inc. or will provide
 assistance to any competitor of Gaussian, Inc.  The licensee
 of this program is prohibited from giving any competitor of
 Gaussian, Inc. access to this program.  By using this program,
 the user acknowledges that Gaussian, Inc. is engaged in the
 business of creating and licensing software in the field of
 computational chemistry and represents and warrants to the
 licensee that it is not a competitor of Gaussian, Inc. and that
 it will not use this program in any manner prohibited above.
 ---------------------------------------------------------------
  

 Cite this work as:
 Gaussian 16, Revision A.03,
 M. J. Frisch, G. W. Trucks, H. B. Schlegel, G. E. Scuseria, 
 M. A. Robb, J. R. Cheeseman, G. Scalmani, V. Barone, 
 G. A. Petersson, H. Nakatsuji, X. Li, M. Caricato, A. V. Marenich, 
 J. Bloino, B. G. Janesko, R. Gomperts, B. Mennucci, H. P. Hratchian, 
 J. V. Ortiz, A. F. Izmaylov, J. L. Sonnenberg, D. Williams-Young, 
 F. Ding, F. Lipparini, F. Egidi, J. Goings, B. Peng, A. Petrone, 
 T. Henderson, D. Ranasinghe, V. G. Zakrzewski, J. Gao, N. Rega, 
 G. Zheng, W. Liang, M. Hada, M. Ehara, K. Toyota, R. Fukuda, 
 J. Hasegawa, M. Ishida, T. Nakajima, Y. Honda, O. Kitao, H. Nakai, 
 T. Vreven, K. Throssell, J. A. Montgomery, Jr., J. E. Peralta, 
 F. Ogliaro, M. J. Bearpark, J. J. Heyd, E. N. Brothers, K. N. Kudin, 
 V. N. Staroverov, T. A. Keith, R. Kobayashi, J. Normand, 
 K. Raghavachari, A. P. Rendell, J. C. Burant, S. S. Iyengar, 
 J. Tomasi, M. Cossi, J. M. Millam, M. Klene, C. Adamo, R. Cammi, 
 J. W. Ochterski, R. L. Martin, K. Morokuma, O. Farkas, 
 J. B. Foresman, and D. J. Fox, Gaussian, Inc., Wallingford CT, 2016.
 
 ******************************************
 Gaussian 16:  ES64L-G16RevA.03 25-Dec-2016
                15-Jul-2022 
 ******************************************
 %mem=10GB
 %chk=dr25kjo2h9ips_addon_10.chk
 %nprocshared=48
 Will use up to   48 processors via shared memory.
 -------------------------------------------------
 #P opt b3lyp/6-311G(d, p) empiricaldispersion=GD3
 -------------------------------------------------
 1/18=20,19=15,26=3,38=1/1,3;
 2/9=110,12=2,17=6,18=5,40=1/2;
 3/5=4,6=6,7=101,11=2,25=1,30=1,71=1,74=-5,124=31/1,2,3;
 4//1;
 5/5=2,38=5/2;
 6/7=2,8=2,9=2,10=2,28=1/1;
 7//1,2,3,16;
 1/18=20,19=15,26=3/3(2);
 2/9=110/2;
 99//99;
 2/9=110/2;
 3/5=4,6=6,7=101,11=2,25=1,30=1,71=1,74=-5,124=31/1,2,3;
 4/5=5,16=3,69=1/1;
 5/5=2,38=5/2;
 7//1,2,3,16;
 1/18=20,19=15,26=3/3(-5);
 2/9=110/2;
 6/7=2,8=2,9=2,10=2,19=2,28=1/1;
 99/9=1/99;
 Leave Link    1 at Fri Jul 15 06:51:04 2022, MaxMem=  1342177280 cpu:               2.1 elap:               0.1
 (Enter /home/mkliu/g16/l101.exe)
 -----
 force
 -----
 Symbolic Z-matrix:
 Charge =  0 Multiplicity = 1
 C                    -1.29687   1.89221  -3.9445 
 C                     0.22011   2.23774  -3.94886 
 C                     1.00485   0.93007  -4.34589 
 C                    -1.20805   0.41233  -3.8359 
 C                    -0.02715  -0.12316  -4.12073 
 C                    -2.05889  -0.11863  -2.82131 
 C                    -2.16208   2.27214  -2.70015 
 C                    -2.59542   0.92972  -2.10502 
 C                    -1.46506   2.91034  -1.52954 
 C                     0.71577   2.51329  -2.58622 
 C                    -0.05177   3.12191  -1.55889 
 C                     2.16502   0.76952  -3.29685 
 C                     1.85068   1.82141  -2.28462 
 C                     2.23058  -0.54814  -2.55566 
 C                     0.26287  -1.53536  -3.84571 
 C                     1.4384   -1.60305  -2.90045 
 C                    -1.83385  -1.38217  -2.30636 
 C                    -0.8842   -2.29487  -3.06047 
 C                    -2.36372  -1.65773  -1.04155 
 C                    -3.02285   0.69366  -0.81188 
 C                    -2.9548   -0.61511  -0.29995 
 C                    -2.08378   2.85618  -0.30596 
 C                    -3.21877   1.91638   0.05881 
 C                    -1.38016   3.21319   0.89169 
 C                     0.63719   3.34422  -0.38675 
 C                    -0.03677   3.50118   0.85569 
 C                     2.44568   1.83869  -0.9993 
 C                     1.9099    2.75943  -0.11633 
 C                     2.9252   -0.57749  -1.26856 
 C                     3.08451   0.64108  -0.50483 
 C                     2.89051  -1.77116  -0.54676 
 C                     1.24311  -2.71376  -2.03196 
 C                    -0.13431  -3.08336  -2.0233 
 C                     2.02311  -2.84381  -0.9158 
 C                    -2.08785  -3.0232   -0.42958 
 C                    -0.71089  -3.46322  -0.85751 
 C                    -1.91537  -2.90775   1.05495 
 C                    -3.35836  -0.85183   1.1464 
 C                    -2.51118  -1.92219   1.77139 
 C                    -2.90856   1.60434   1.49089 
 C                    -1.90933   2.48298   1.99827 
 C                    -3.00329   0.34389   1.98659 
 C                    -1.06537   2.10599   3.02842 
 C                     0.84098   3.0919    1.90992 
 C                     2.05511   2.63017   1.29215 
 C                     0.33768   2.41696   2.99796 
 C                     3.26293   0.5633    0.88584 
 C                     2.74735   1.55458   1.78983 
 C                     3.0238   -1.82931   0.87621 
 C                     3.22469  -0.67977   1.59158 
 C                     1.47371  -3.44145   0.25453 
 C                     0.11711  -3.71857   0.28331 
 C                    -0.63745  -3.40672   1.45172 
 C                     2.12981  -2.84839   1.37821 
 C                     0.01442  -2.90171   2.56325 
 C                     1.42278  -2.61601   2.53764 
 C                    -1.85972  -1.42887   2.94741 
 C                    -2.1589   -0.04356   3.07553 
 C                    -1.20671   0.8123    3.59767 
 C                    -0.62209  -1.89732   3.33923 
 C                     1.07869   1.3166    3.55066 
 C                     2.27589   0.90891   2.98438 
 C                     2.57531  -0.48273   2.86322 
 C                     1.66517  -1.42383   3.30259 
 C                     0.10656   0.33887   3.95249 
 C                     0.39469  -1.00433   3.8267 
 Cl                   -2.02772   2.36423  -5.50935 
 Cl                    0.57477   3.66145  -4.95735 
 Cl                    1.5401    0.89503  -6.03129 
 Cl                    3.78438   1.07906  -4.03659 
 Cl                   -3.59226   3.26436  -3.13423 
 Cl                   -4.88478   2.55058  -0.16363 
 Cl                   -5.12456  -1.23771   1.14403 
 Cl                   -3.41829  -4.14172  -0.90202 
 Cl                   -1.86241  -3.37004  -4.10863 
 Cl                    0.755    -2.38023  -5.36919 
 
 ITRead=  0  0  0  0  0  0  0  0  0  0  0  0  0  0  0  0  0  0  0  0
 ITRead=  0  0  0  0  0  0  0  0  0  0  0  0  0  0  0  0  0  0  0  0
 ITRead=  0  0  0  0  0  0  0  0  0  0  0  0  0  0  0  0  0  0  0  0
 ITRead=  0  0  0  0  0  0  0  0  0  0  0  0  0  0  0  0
 MicOpt= -1 -1 -1 -1 -1 -1 -1 -1 -1 -1 -1 -1 -1 -1 -1 -1 -1 -1 -1 -1
 MicOpt= -1 -1 -1 -1 -1 -1 -1 -1 -1 -1 -1 -1 -1 -1 -1 -1 -1 -1 -1 -1
 MicOpt= -1 -1 -1 -1 -1 -1 -1 -1 -1 -1 -1 -1 -1 -1 -1 -1 -1 -1 -1 -1
 MicOpt= -1 -1 -1 -1 -1 -1 -1 -1 -1 -1 -1 -1 -1 -1 -1 -1
 NAtoms=     76 NQM=       76 NQMF=       0 NMMI=      0 NMMIF=      0
                NMic=       0 NMicF=      0.
                    Isotopes and Nuclear Properties:
 (Nuclear quadrupole moments (NQMom) in fm**2, nuclear magnetic moments (NMagM)
  in nuclear magnetons)

  Atom         1           2           3           4           5           6           7           8           9          10
 IAtWgt=          12          12          12          12          12          12          12          12          12          12
 AtmWgt=  12.0000000  12.0000000  12.0000000  12.0000000  12.0000000  12.0000000  12.0000000  12.0000000  12.0000000  12.0000000
 NucSpn=           0           0           0           0           0           0           0           0           0           0
 AtZEff=  -0.0000000  -0.0000000  -0.0000000  -0.0000000  -0.0000000  -0.0000000  -0.0000000  -0.0000000  -0.0000000  -0.0000000
 NQMom=    0.0000000   0.0000000   0.0000000   0.0000000   0.0000000   0.0000000   0.0000000   0.0000000   0.0000000   0.0000000
 NMagM=    0.0000000   0.0000000   0.0000000   0.0000000   0.0000000   0.0000000   0.0000000   0.0000000   0.0000000   0.0000000
 AtZNuc=   6.0000000   6.0000000   6.0000000   6.0000000   6.0000000   6.0000000   6.0000000   6.0000000   6.0000000   6.0000000

  Atom        11          12          13          14          15          16          17          18          19          20
 IAtWgt=          12          12          12          12          12          12          12          12          12          12
 AtmWgt=  12.0000000  12.0000000  12.0000000  12.0000000  12.0000000  12.0000000  12.0000000  12.0000000  12.0000000  12.0000000
 NucSpn=           0           0           0           0           0           0           0           0           0           0
 AtZEff=  -0.0000000  -0.0000000  -0.0000000  -0.0000000  -0.0000000  -0.0000000  -0.0000000  -0.0000000  -0.0000000  -0.0000000
 NQMom=    0.0000000   0.0000000   0.0000000   0.0000000   0.0000000   0.0000000   0.0000000   0.0000000   0.0000000   0.0000000
 NMagM=    0.0000000   0.0000000   0.0000000   0.0000000   0.0000000   0.0000000   0.0000000   0.0000000   0.0000000   0.0000000
 AtZNuc=   6.0000000   6.0000000   6.0000000   6.0000000   6.0000000   6.0000000   6.0000000   6.0000000   6.0000000   6.0000000

  Atom        21          22          23          24          25          26          27          28          29          30
 IAtWgt=          12          12          12          12          12          12          12          12          12          12
 AtmWgt=  12.0000000  12.0000000  12.0000000  12.0000000  12.0000000  12.0000000  12.0000000  12.0000000  12.0000000  12.0000000
 NucSpn=           0           0           0           0           0           0           0           0           0           0
 AtZEff=  -0.0000000  -0.0000000  -0.0000000  -0.0000000  -0.0000000  -0.0000000  -0.0000000  -0.0000000  -0.0000000  -0.0000000
 NQMom=    0.0000000   0.0000000   0.0000000   0.0000000   0.0000000   0.0000000   0.0000000   0.0000000   0.0000000   0.0000000
 NMagM=    0.0000000   0.0000000   0.0000000   0.0000000   0.0000000   0.0000000   0.0000000   0.0000000   0.0000000   0.0000000
 AtZNuc=   6.0000000   6.0000000   6.0000000   6.0000000   6.0000000   6.0000000   6.0000000   6.0000000   6.0000000   6.0000000

  Atom        31          32          33          34          35          36          37          38          39          40
 IAtWgt=          12          12          12          12          12          12          12          12          12          12
 AtmWgt=  12.0000000  12.0000000  12.0000000  12.0000000  12.0000000  12.0000000  12.0000000  12.0000000  12.0000000  12.0000000
 NucSpn=           0           0           0           0           0           0           0           0           0           0
 AtZEff=  -0.0000000  -0.0000000  -0.0000000  -0.0000000  -0.0000000  -0.0000000  -0.0000000  -0.0000000  -0.0000000  -0.0000000
 NQMom=    0.0000000   0.0000000   0.0000000   0.0000000   0.0000000   0.0000000   0.0000000   0.0000000   0.0000000   0.0000000
 NMagM=    0.0000000   0.0000000   0.0000000   0.0000000   0.0000000   0.0000000   0.0000000   0.0000000   0.0000000   0.0000000
 AtZNuc=   6.0000000   6.0000000   6.0000000   6.0000000   6.0000000   6.0000000   6.0000000   6.0000000   6.0000000   6.0000000

  Atom        41          42          43          44          45          46          47          48          49          50
 IAtWgt=          12          12          12          12          12          12          12          12          12          12
 AtmWgt=  12.0000000  12.0000000  12.0000000  12.0000000  12.0000000  12.0000000  12.0000000  12.0000000  12.0000000  12.0000000
 NucSpn=           0           0           0           0           0           0           0           0           0           0
 AtZEff=  -0.0000000  -0.0000000  -0.0000000  -0.0000000  -0.0000000  -0.0000000  -0.0000000  -0.0000000  -0.0000000  -0.0000000
 NQMom=    0.0000000   0.0000000   0.0000000   0.0000000   0.0000000   0.0000000   0.0000000   0.0000000   0.0000000   0.0000000
 NMagM=    0.0000000   0.0000000   0.0000000   0.0000000   0.0000000   0.0000000   0.0000000   0.0000000   0.0000000   0.0000000
 AtZNuc=   6.0000000   6.0000000   6.0000000   6.0000000   6.0000000   6.0000000   6.0000000   6.0000000   6.0000000   6.0000000

  Atom        51          52          53          54          55          56          57          58          59          60
 IAtWgt=          12          12          12          12          12          12          12          12          12          12
 AtmWgt=  12.0000000  12.0000000  12.0000000  12.0000000  12.0000000  12.0000000  12.0000000  12.0000000  12.0000000  12.0000000
 NucSpn=           0           0           0           0           0           0           0           0           0           0
 AtZEff=  -0.0000000  -0.0000000  -0.0000000  -0.0000000  -0.0000000  -0.0000000  -0.0000000  -0.0000000  -0.0000000  -0.0000000
 NQMom=    0.0000000   0.0000000   0.0000000   0.0000000   0.0000000   0.0000000   0.0000000   0.0000000   0.0000000   0.0000000
 NMagM=    0.0000000   0.0000000   0.0000000   0.0000000   0.0000000   0.0000000   0.0000000   0.0000000   0.0000000   0.0000000
 AtZNuc=   6.0000000   6.0000000   6.0000000   6.0000000   6.0000000   6.0000000   6.0000000   6.0000000   6.0000000   6.0000000

  Atom        61          62          63          64          65          66          67          68          69          70
 IAtWgt=          12          12          12          12          12          12          35          35          35          35
 AtmWgt=  12.0000000  12.0000000  12.0000000  12.0000000  12.0000000  12.0000000  34.9688527  34.9688527  34.9688527  34.9688527
 NucSpn=           0           0           0           0           0           0           3           3           3           3
 AtZEff=  -0.0000000  -0.0000000  -0.0000000  -0.0000000  -0.0000000  -0.0000000  -0.0000000  -0.0000000  -0.0000000  -0.0000000
 NQMom=    0.0000000   0.0000000   0.0000000   0.0000000   0.0000000   0.0000000  -8.1650000  -8.1650000  -8.1650000  -8.1650000
 NMagM=    0.0000000   0.0000000   0.0000000   0.0000000   0.0000000   0.0000000   0.8218740   0.8218740   0.8218740   0.8218740
 AtZNuc=   6.0000000   6.0000000   6.0000000   6.0000000   6.0000000   6.0000000  17.0000000  17.0000000  17.0000000  17.0000000

  Atom        71          72          73          74          75          76
 IAtWgt=          35          35          35          35          35          35
 AtmWgt=  34.9688527  34.9688527  34.9688527  34.9688527  34.9688527  34.9688527
 NucSpn=           3           3           3           3           3           3
 AtZEff=  -0.0000000  -0.0000000  -0.0000000  -0.0000000  -0.0000000  -0.0000000
 NQMom=   -8.1650000  -8.1650000  -8.1650000  -8.1650000  -8.1650000  -8.1650000
 NMagM=    0.8218740   0.8218740   0.8218740   0.8218740   0.8218740   0.8218740
 AtZNuc=  17.0000000  17.0000000  17.0000000  17.0000000  17.0000000  17.0000000
 Leave Link  101 at Fri Jul 15 06:51:04 2022, MaxMem=  1342177280 cpu:              13.8 elap:               0.3
 (Enter /home/mkliu/g16/l103.exe)

 GradGradGradGradGradGradGradGradGradGradGradGradGradGradGradGradGradGrad
 Berny optimization.
 Initialization pass.
                           ----------------------------
                           !    Initial Parameters    !
                           ! (Angstroms and Degrees)  !
 --------------------------                            --------------------------
 ! Name  Definition              Value          Derivative Info.                !
 --------------------------------------------------------------------------------
 ! R1    R(1,2)                  1.5558         estimate D2E/DX2                !
 ! R2    R(1,4)                  1.4865         estimate D2E/DX2                !
 ! R3    R(1,7)                  1.5625         estimate D2E/DX2                !
 ! R4    R(1,67)                 1.7905         estimate D2E/DX2                !
 ! R5    R(2,3)                  1.5759         estimate D2E/DX2                !
 ! R6    R(2,10)                 1.4759         estimate D2E/DX2                !
 ! R7    R(2,68)                 1.7804         estimate D2E/DX2                !
 ! R8    R(3,5)                  1.4916         estimate D2E/DX2                !
 ! R9    R(3,12)                 1.5723         estimate D2E/DX2                !
 ! R10   R(3,69)                 1.7687         estimate D2E/DX2                !
 ! R11   R(4,5)                  1.3276         estimate D2E/DX2                !
 ! R12   R(4,6)                  1.4266         estimate D2E/DX2                !
 ! R13   R(5,15)                 1.4677         estimate D2E/DX2                !
 ! R14   R(6,8)                  1.3784         estimate D2E/DX2                !
 ! R15   R(6,17)                 1.3829         estimate D2E/DX2                !
 ! R16   R(7,8)                  1.531          estimate D2E/DX2                !
 ! R17   R(7,9)                  1.5045         estimate D2E/DX2                !
 ! R18   R(7,71)                 1.794          estimate D2E/DX2                !
 ! R19   R(8,20)                 1.3823         estimate D2E/DX2                !
 ! R20   R(9,11)                 1.4293         estimate D2E/DX2                !
 ! R21   R(9,22)                 1.3722         estimate D2E/DX2                !
 ! R22   R(10,11)                1.4195         estimate D2E/DX2                !
 ! R23   R(10,13)                1.363          estimate D2E/DX2                !
 ! R24   R(11,25)                1.3777         estimate D2E/DX2                !
 ! R25   R(12,13)                1.4933         estimate D2E/DX2                !
 ! R26   R(12,14)                1.5132         estimate D2E/DX2                !
 ! R27   R(12,70)                1.807          estimate D2E/DX2                !
 ! R28   R(13,27)                1.4165         estimate D2E/DX2                !
 ! R29   R(14,16)                1.3635         estimate D2E/DX2                !
 ! R30   R(14,29)                1.4629         estimate D2E/DX2                !
 ! R31   R(15,16)                1.51           estimate D2E/DX2                !
 ! R32   R(15,18)                1.5841         estimate D2E/DX2                !
 ! R33   R(15,76)                1.8102         estimate D2E/DX2                !
 ! R34   R(16,32)                1.4234         estimate D2E/DX2                !
 ! R35   R(17,18)                1.5177         estimate D2E/DX2                !
 ! R36   R(17,19)                1.3987         estimate D2E/DX2                !
 ! R37   R(18,33)                1.5033         estimate D2E/DX2                !
 ! R38   R(18,75)                1.7921         estimate D2E/DX2                !
 ! R39   R(19,21)                1.4094         estimate D2E/DX2                !
 ! R40   R(19,35)                1.5215         estimate D2E/DX2                !
 ! R41   R(20,21)                1.407          estimate D2E/DX2                !
 ! R42   R(20,23)                1.5138         estimate D2E/DX2                !
 ! R43   R(21,38)                1.5201         estimate D2E/DX2                !
 ! R44   R(22,23)                1.518          estimate D2E/DX2                !
 ! R45   R(22,24)                1.4342         estimate D2E/DX2                !
 ! R46   R(23,40)                1.4982         estimate D2E/DX2                !
 ! R47   R(23,72)                1.7965         estimate D2E/DX2                !
 ! R48   R(24,26)                1.3744         estimate D2E/DX2                !
 ! R49   R(24,41)                1.4275         estimate D2E/DX2                !
 ! R50   R(25,26)                1.4222         estimate D2E/DX2                !
 ! R51   R(25,28)                1.4265         estimate D2E/DX2                !
 ! R52   R(26,44)                1.4316         estimate D2E/DX2                !
 ! R53   R(27,28)                1.3836         estimate D2E/DX2                !
 ! R54   R(27,30)                1.4446         estimate D2E/DX2                !
 ! R55   R(28,45)                1.4218         estimate D2E/DX2                !
 ! R56   R(29,30)                1.4469         estimate D2E/DX2                !
 ! R57   R(29,31)                1.3954         estimate D2E/DX2                !
 ! R58   R(30,47)                1.4042         estimate D2E/DX2                !
 ! R59   R(31,34)                1.428          estimate D2E/DX2                !
 ! R60   R(31,49)                1.4304         estimate D2E/DX2                !
 ! R61   R(32,33)                1.4262         estimate D2E/DX2                !
 ! R62   R(32,34)                1.3679         estimate D2E/DX2                !
 ! R63   R(33,36)                1.3549         estimate D2E/DX2                !
 ! R64   R(34,51)                1.4243         estimate D2E/DX2                !
 ! R65   R(35,36)                1.5076         estimate D2E/DX2                !
 ! R66   R(35,37)                1.499          estimate D2E/DX2                !
 ! R67   R(35,74)                1.8012         estimate D2E/DX2                !
 ! R68   R(36,52)                1.4326         estimate D2E/DX2                !
 ! R69   R(37,39)                1.3563         estimate D2E/DX2                !
 ! R70   R(37,53)                1.4281         estimate D2E/DX2                !
 ! R71   R(38,39)                1.5013         estimate D2E/DX2                !
 ! R72   R(38,42)                1.5039         estimate D2E/DX2                !
 ! R73   R(38,73)                1.8079         estimate D2E/DX2                !
 ! R74   R(39,57)                1.4321         estimate D2E/DX2                !
 ! R75   R(40,41)                1.4241         estimate D2E/DX2                !
 ! R76   R(40,42)                1.3577         estimate D2E/DX2                !
 ! R77   R(41,43)                1.3841         estimate D2E/DX2                !
 ! R78   R(42,58)                1.4314         estimate D2E/DX2                !
 ! R79   R(43,46)                1.4374         estimate D2E/DX2                !
 ! R80   R(43,59)                1.4204         estimate D2E/DX2                !
 ! R81   R(44,45)                1.4384         estimate D2E/DX2                !
 ! R82   R(44,46)                1.3757         estimate D2E/DX2                !
 ! R83   R(45,48)                1.3725         estimate D2E/DX2                !
 ! R84   R(46,61)                1.4371         estimate D2E/DX2                !
 ! R85   R(47,48)                1.4372         estimate D2E/DX2                !
 ! R86   R(47,50)                1.4299         estimate D2E/DX2                !
 ! R87   R(48,62)                1.4374         estimate D2E/DX2                !
 ! R88   R(49,50)                1.3688         estimate D2E/DX2                !
 ! R89   R(49,54)                1.4456         estimate D2E/DX2                !
 ! R90   R(50,63)                1.4414         estimate D2E/DX2                !
 ! R91   R(51,52)                1.3849         estimate D2E/DX2                !
 ! R92   R(51,54)                1.43           estimate D2E/DX2                !
 ! R93   R(52,53)                1.4254         estimate D2E/DX2                !
 ! R94   R(53,55)                1.384          estimate D2E/DX2                !
 ! R95   R(54,56)                1.3777         estimate D2E/DX2                !
 ! R96   R(55,56)                1.4373         estimate D2E/DX2                !
 ! R97   R(55,60)                1.4199         estimate D2E/DX2                !
 ! R98   R(56,64)                1.4371         estimate D2E/DX2                !
 ! R99   R(57,58)                1.423          estimate D2E/DX2                !
 ! R100  R(57,60)                1.3801         estimate D2E/DX2                !
 ! R101  R(58,59)                1.3827         estimate D2E/DX2                !
 ! R102  R(59,65)                1.4404         estimate D2E/DX2                !
 ! R103  R(60,66)                1.4384         estimate D2E/DX2                !
 ! R104  R(61,62)                1.3857         estimate D2E/DX2                !
 ! R105  R(61,65)                1.4361         estimate D2E/DX2                !
 ! R106  R(62,63)                1.4286         estimate D2E/DX2                !
 ! R107  R(63,64)                1.381          estimate D2E/DX2                !
 ! R108  R(64,66)                1.4369         estimate D2E/DX2                !
 ! R109  R(65,66)                1.3795         estimate D2E/DX2                !
 ! A1    A(2,1,4)               99.3831         estimate D2E/DX2                !
 ! A2    A(2,1,7)              119.2184         estimate D2E/DX2                !
 ! A3    A(2,1,67)             109.6942         estimate D2E/DX2                !
 ! A4    A(4,1,7)              102.5315         estimate D2E/DX2                !
 ! A5    A(4,1,67)             110.5299         estimate D2E/DX2                !
 ! A6    A(7,1,67)             113.9485         estimate D2E/DX2                !
 ! A7    A(1,2,3)              107.5745         estimate D2E/DX2                !
 ! A8    A(1,2,10)             111.4885         estimate D2E/DX2                !
 ! A9    A(1,2,68)             111.9257         estimate D2E/DX2                !
 ! A10   A(3,2,10)             102.7262         estimate D2E/DX2                !
 ! A11   A(3,2,68)             114.9387         estimate D2E/DX2                !
 ! A12   A(10,2,68)            107.865          estimate D2E/DX2                !
 ! A13   A(2,3,5)              101.7332         estimate D2E/DX2                !
 ! A14   A(2,3,12)             106.5027         estimate D2E/DX2                !
 ! A15   A(2,3,69)             114.0296         estimate D2E/DX2                !
 ! A16   A(5,3,12)             109.736          estimate D2E/DX2                !
 ! A17   A(5,3,69)             109.8297         estimate D2E/DX2                !
 ! A18   A(12,3,69)            114.2329         estimate D2E/DX2                !
 ! A19   A(1,4,5)              116.0428         estimate D2E/DX2                !
 ! A20   A(1,4,6)              112.7579         estimate D2E/DX2                !
 ! A21   A(5,4,6)              122.2073         estimate D2E/DX2                !
 ! A22   A(3,5,4)              111.2848         estimate D2E/DX2                !
 ! A23   A(3,5,15)             124.8175         estimate D2E/DX2                !
 ! A24   A(4,5,15)             121.5802         estimate D2E/DX2                !
 ! A25   A(4,6,8)              108.5816         estimate D2E/DX2                !
 ! A26   A(4,6,17)             120.5198         estimate D2E/DX2                !
 ! A27   A(8,6,17)             124.3858         estimate D2E/DX2                !
 ! A28   A(1,7,8)              104.6609         estimate D2E/DX2                !
 ! A29   A(1,7,9)              117.7919         estimate D2E/DX2                !
 ! A30   A(1,7,71)             112.5344         estimate D2E/DX2                !
 ! A31   A(8,7,9)              101.5735         estimate D2E/DX2                !
 ! A32   A(8,7,71)             110.6928         estimate D2E/DX2                !
 ! A33   A(9,7,71)             108.8441         estimate D2E/DX2                !
 ! A34   A(6,8,7)              110.7748         estimate D2E/DX2                !
 ! A35   A(6,8,20)             118.4658         estimate D2E/DX2                !
 ! A36   A(7,8,20)             126.935          estimate D2E/DX2                !
 ! A37   A(7,9,11)             120.3249         estimate D2E/DX2                !
 ! A38   A(7,9,22)             117.9155         estimate D2E/DX2                !
 ! A39   A(11,9,22)            118.034          estimate D2E/DX2                !
 ! A40   A(2,10,11)            124.5162         estimate D2E/DX2                !
 ! A41   A(2,10,13)            112.902          estimate D2E/DX2                !
 ! A42   A(11,10,13)           120.5137         estimate D2E/DX2                !
 ! A43   A(9,11,10)            119.081          estimate D2E/DX2                !
 ! A44   A(9,11,25)            120.0584         estimate D2E/DX2                !
 ! A45   A(10,11,25)           114.4906         estimate D2E/DX2                !
 ! A46   A(3,12,13)            103.0033         estimate D2E/DX2                !
 ! A47   A(3,12,14)            116.5939         estimate D2E/DX2                !
 ! A48   A(3,12,70)            111.7536         estimate D2E/DX2                !
 ! A49   A(13,12,14)           106.8867         estimate D2E/DX2                !
 ! A50   A(13,12,70)           110.2105         estimate D2E/DX2                !
 ! A51   A(14,12,70)           108.1101         estimate D2E/DX2                !
 ! A52   A(10,13,12)           112.5115         estimate D2E/DX2                !
 ! A53   A(10,13,27)           122.9819         estimate D2E/DX2                !
 ! A54   A(12,13,27)           122.3617         estimate D2E/DX2                !
 ! A55   A(12,14,16)           121.6441         estimate D2E/DX2                !
 ! A56   A(12,14,29)           117.9691         estimate D2E/DX2                !
 ! A57   A(16,14,29)           118.8695         estimate D2E/DX2                !
 ! A58   A(5,15,16)            108.3175         estimate D2E/DX2                !
 ! A59   A(5,15,18)            114.2769         estimate D2E/DX2                !
 ! A60   A(5,15,76)            110.1876         estimate D2E/DX2                !
 ! A61   A(16,15,18)           103.4111         estimate D2E/DX2                !
 ! A62   A(16,15,76)           107.1143         estimate D2E/DX2                !
 ! A63   A(18,15,76)           112.9712         estimate D2E/DX2                !
 ! A64   A(14,16,15)           125.1634         estimate D2E/DX2                !
 ! A65   A(14,16,32)           121.9459         estimate D2E/DX2                !
 ! A66   A(15,16,32)           108.0671         estimate D2E/DX2                !
 ! A67   A(6,17,18)            117.7919         estimate D2E/DX2                !
 ! A68   A(6,17,19)            117.0705         estimate D2E/DX2                !
 ! A69   A(18,17,19)           124.6001         estimate D2E/DX2                !
 ! A70   A(15,18,17)           114.2714         estimate D2E/DX2                !
 ! A71   A(15,18,33)           103.4314         estimate D2E/DX2                !
 ! A72   A(15,18,75)           113.1414         estimate D2E/DX2                !
 ! A73   A(17,18,33)           106.5431         estimate D2E/DX2                !
 ! A74   A(17,18,75)           108.0505         estimate D2E/DX2                !
 ! A75   A(33,18,75)           111.1709         estimate D2E/DX2                !
 ! A76   A(17,19,21)           119.2705         estimate D2E/DX2                !
 ! A77   A(17,19,35)           118.152          estimate D2E/DX2                !
 ! A78   A(21,19,35)           121.8898         estimate D2E/DX2                !
 ! A79   A(8,20,21)            118.9658         estimate D2E/DX2                !
 ! A80   A(8,20,23)            116.1151         estimate D2E/DX2                !
 ! A81   A(21,20,23)           123.2527         estimate D2E/DX2                !
 ! A82   A(19,21,20)           121.1288         estimate D2E/DX2                !
 ! A83   A(19,21,38)           119.7869         estimate D2E/DX2                !
 ! A84   A(20,21,38)           118.5679         estimate D2E/DX2                !
 ! A85   A(9,22,23)            125.1575         estimate D2E/DX2                !
 ! A86   A(9,22,24)            120.9035         estimate D2E/DX2                !
 ! A87   A(23,22,24)           108.6783         estimate D2E/DX2                !
 ! A88   A(20,23,22)           105.3716         estimate D2E/DX2                !
 ! A89   A(20,23,40)           110.7795         estimate D2E/DX2                !
 ! A90   A(20,23,72)           109.5091         estimate D2E/DX2                !
 ! A91   A(22,23,40)           101.7608         estimate D2E/DX2                !
 ! A92   A(22,23,72)           116.4275         estimate D2E/DX2                !
 ! A93   A(40,23,72)           112.5764         estimate D2E/DX2                !
 ! A94   A(22,24,26)           120.6521         estimate D2E/DX2                !
 ! A95   A(22,24,41)           109.7636         estimate D2E/DX2                !
 ! A96   A(26,24,41)           119.3292         estimate D2E/DX2                !
 ! A97   A(11,25,26)           121.6086         estimate D2E/DX2                !
 ! A98   A(11,25,28)           122.7726         estimate D2E/DX2                !
 ! A99   A(26,25,28)           107.6042         estimate D2E/DX2                !
 ! A100  A(24,26,25)           117.579          estimate D2E/DX2                !
 ! A101  A(24,26,44)           121.3404         estimate D2E/DX2                !
 ! A102  A(25,26,44)           108.7379         estimate D2E/DX2                !
 ! A103  A(13,27,28)           115.1206         estimate D2E/DX2                !
 ! A104  A(13,27,30)           119.0943         estimate D2E/DX2                !
 ! A105  A(28,27,30)           120.2964         estimate D2E/DX2                !
 ! A106  A(25,28,27)           119.8218         estimate D2E/DX2                !
 ! A107  A(25,28,45)           108.4322         estimate D2E/DX2                !
 ! A108  A(27,28,45)           122.1484         estimate D2E/DX2                !
 ! A109  A(14,29,30)           119.9862         estimate D2E/DX2                !
 ! A110  A(14,29,31)           117.4186         estimate D2E/DX2                !
 ! A111  A(30,29,31)           116.7535         estimate D2E/DX2                !
 ! A112  A(27,30,29)           117.9581         estimate D2E/DX2                !
 ! A113  A(27,30,47)           116.1742         estimate D2E/DX2                !
 ! A114  A(29,30,47)           119.3453         estimate D2E/DX2                !
 ! A115  A(29,31,34)           121.6015         estimate D2E/DX2                !
 ! A116  A(29,31,49)           123.1652         estimate D2E/DX2                !
 ! A117  A(34,31,49)           106.449          estimate D2E/DX2                !
 ! A118  A(16,32,33)           109.7815         estimate D2E/DX2                !
 ! A119  A(16,32,34)           119.5916         estimate D2E/DX2                !
 ! A120  A(33,32,34)           121.409          estimate D2E/DX2                !
 ! A121  A(18,33,32)           109.979          estimate D2E/DX2                !
 ! A122  A(18,33,36)           121.8985         estimate D2E/DX2                !
 ! A123  A(32,33,36)           119.2669         estimate D2E/DX2                !
 ! A124  A(31,34,32)           119.0667         estimate D2E/DX2                !
 ! A125  A(31,34,51)           109.703          estimate D2E/DX2                !
 ! A126  A(32,34,51)           119.3669         estimate D2E/DX2                !
 ! A127  A(19,35,36)           108.2621         estimate D2E/DX2                !
 ! A128  A(19,35,37)           110.4912         estimate D2E/DX2                !
 ! A129  A(19,35,74)           108.5343         estimate D2E/DX2                !
 ! A130  A(36,35,37)           101.4496         estimate D2E/DX2                !
 ! A131  A(36,35,74)           114.7679         estimate D2E/DX2                !
 ! A132  A(37,35,74)           113.1155         estimate D2E/DX2                !
 ! A133  A(33,36,35)           123.4413         estimate D2E/DX2                !
 ! A134  A(33,36,52)           119.2878         estimate D2E/DX2                !
 ! A135  A(35,36,52)           110.7253         estimate D2E/DX2                !
 ! A136  A(35,37,39)           121.9078         estimate D2E/DX2                !
 ! A137  A(35,37,53)           110.5611         estimate D2E/DX2                !
 ! A138  A(39,37,53)           120.0146         estimate D2E/DX2                !
 ! A139  A(21,38,39)           110.9344         estimate D2E/DX2                !
 ! A140  A(21,38,42)           110.1857         estimate D2E/DX2                !
 ! A141  A(21,38,73)           106.9385         estimate D2E/DX2                !
 ! A142  A(39,38,42)           101.5982         estimate D2E/DX2                !
 ! A143  A(39,38,73)           113.5568         estimate D2E/DX2                !
 ! A144  A(42,38,73)           113.6464         estimate D2E/DX2                !
 ! A145  A(37,39,38)           123.0961         estimate D2E/DX2                !
 ! A146  A(37,39,57)           118.9637         estimate D2E/DX2                !
 ! A147  A(38,39,57)           110.6691         estimate D2E/DX2                !
 ! A148  A(23,40,41)           110.938          estimate D2E/DX2                !
 ! A149  A(23,40,42)           121.8645         estimate D2E/DX2                !
 ! A150  A(41,40,42)           119.4506         estimate D2E/DX2                !
 ! A151  A(24,41,40)           107.4296         estimate D2E/DX2                !
 ! A152  A(24,41,43)           119.3581         estimate D2E/DX2                !
 ! A153  A(40,41,43)           121.6681         estimate D2E/DX2                !
 ! A154  A(38,42,40)           123.409          estimate D2E/DX2                !
 ! A155  A(38,42,58)           110.4307         estimate D2E/DX2                !
 ! A156  A(40,42,58)           119.201          estimate D2E/DX2                !
 ! A157  A(41,43,46)           121.3653         estimate D2E/DX2                !
 ! A158  A(41,43,59)           119.0568         estimate D2E/DX2                !
 ! A159  A(46,43,59)           107.6171         estimate D2E/DX2                !
 ! A160  A(26,44,45)           107.04           estimate D2E/DX2                !
 ! A161  A(26,44,46)           119.892          estimate D2E/DX2                !
 ! A162  A(45,44,46)           119.4053         estimate D2E/DX2                !
 ! A163  A(28,45,44)           108.0631         estimate D2E/DX2                !
 ! A164  A(28,45,48)           118.8133         estimate D2E/DX2                !
 ! A165  A(44,45,48)           121.4365         estimate D2E/DX2                !
 ! A166  A(43,46,44)           118.6843         estimate D2E/DX2                !
 ! A167  A(43,46,61)           109.238          estimate D2E/DX2                !
 ! A168  A(44,46,61)           119.4168         estimate D2E/DX2                !
 ! A169  A(30,47,48)           122.6238         estimate D2E/DX2                !
 ! A170  A(30,47,50)           122.2449         estimate D2E/DX2                !
 ! A171  A(48,47,50)           106.2331         estimate D2E/DX2                !
 ! A172  A(45,48,47)           119.5616         estimate D2E/DX2                !
 ! A173  A(45,48,62)           119.2047         estimate D2E/DX2                !
 ! A174  A(47,48,62)           109.3032         estimate D2E/DX2                !
 ! A175  A(31,49,50)           119.9643         estimate D2E/DX2                !
 ! A176  A(31,49,54)           108.4504         estimate D2E/DX2                !
 ! A177  A(50,49,54)           120.0873         estimate D2E/DX2                !
 ! A178  A(47,50,49)           118.4281         estimate D2E/DX2                !
 ! A179  A(47,50,63)           109.1863         estimate D2E/DX2                !
 ! A180  A(49,50,63)           120.6483         estimate D2E/DX2                !
 ! A181  A(34,51,52)           118.6122         estimate D2E/DX2                !
 ! A182  A(34,51,54)           107.1375         estimate D2E/DX2                !
 ! A183  A(52,51,54)           121.0708         estimate D2E/DX2                !
 ! A184  A(36,52,51)           120.9275         estimate D2E/DX2                !
 ! A185  A(36,52,53)           107.9266         estimate D2E/DX2                !
 ! A186  A(51,52,53)           119.459          estimate D2E/DX2                !
 ! A187  A(37,53,52)           108.8083         estimate D2E/DX2                !
 ! A188  A(37,53,55)           121.1388         estimate D2E/DX2                !
 ! A189  A(52,53,55)           119.2629         estimate D2E/DX2                !
 ! A190  A(49,54,51)           107.6526         estimate D2E/DX2                !
 ! A191  A(49,54,56)           119.3861         estimate D2E/DX2                !
 ! A192  A(51,54,56)           119.7214         estimate D2E/DX2                !
 ! A193  A(53,55,56)           121.3155         estimate D2E/DX2                !
 ! A194  A(53,55,60)           119.0704         estimate D2E/DX2                !
 ! A195  A(56,55,60)           107.9625         estimate D2E/DX2                !
 ! A196  A(54,56,55)           118.9681         estimate D2E/DX2                !
 ! A197  A(54,56,64)           120.0872         estimate D2E/DX2                !
 ! A198  A(55,56,64)           108.7049         estimate D2E/DX2                !
 ! A199  A(39,57,58)           108.2788         estimate D2E/DX2                !
 ! A200  A(39,57,60)           121.6127         estimate D2E/DX2                !
 ! A201  A(58,57,60)           119.5651         estimate D2E/DX2                !
 ! A202  A(42,58,57)           108.6047         estimate D2E/DX2                !
 ! A203  A(42,58,59)           121.7344         estimate D2E/DX2                !
 ! A204  A(57,58,59)           119.4583         estimate D2E/DX2                !
 ! A205  A(43,59,58)           118.7471         estimate D2E/DX2                !
 ! A206  A(43,59,65)           107.8991         estimate D2E/DX2                !
 ! A207  A(58,59,65)           121.1624         estimate D2E/DX2                !
 ! A208  A(55,60,57)           119.1401         estimate D2E/DX2                !
 ! A209  A(55,60,66)           107.9073         estimate D2E/DX2                !
 ! A210  A(57,60,66)           121.2928         estimate D2E/DX2                !
 ! A211  A(46,61,62)           120.9026         estimate D2E/DX2                !
 ! A212  A(46,61,65)           106.2513         estimate D2E/DX2                !
 ! A213  A(62,61,65)           119.9253         estimate D2E/DX2                !
 ! A214  A(48,62,61)           119.3955         estimate D2E/DX2                !
 ! A215  A(48,62,63)           107.3574         estimate D2E/DX2                !
 ! A216  A(61,62,63)           120.1542         estimate D2E/DX2                !
 ! A217  A(50,63,62)           107.6022         estimate D2E/DX2                !
 ! A218  A(50,63,64)           118.977          estimate D2E/DX2                !
 ! A219  A(62,63,64)           119.9152         estimate D2E/DX2                !
 ! A220  A(56,64,63)           120.4744         estimate D2E/DX2                !
 ! A221  A(56,64,66)           106.691          estimate D2E/DX2                !
 ! A222  A(63,64,66)           119.9874         estimate D2E/DX2                !
 ! A223  A(59,65,61)           108.9342         estimate D2E/DX2                !
 ! A224  A(59,65,66)           119.209          estimate D2E/DX2                !
 ! A225  A(61,65,66)           119.7352         estimate D2E/DX2                !
 ! A226  A(60,66,64)           108.6724         estimate D2E/DX2                !
 ! A227  A(60,66,65)           119.1929         estimate D2E/DX2                !
 ! A228  A(64,66,65)           120.1449         estimate D2E/DX2                !
 ! D1    D(4,1,2,3)             19.4913         estimate D2E/DX2                !
 ! D2    D(4,1,2,10)           -92.4112         estimate D2E/DX2                !
 ! D3    D(4,1,2,68)           146.6675         estimate D2E/DX2                !
 ! D4    D(7,1,2,3)            129.6367         estimate D2E/DX2                !
 ! D5    D(7,1,2,10)            17.7341         estimate D2E/DX2                !
 ! D6    D(7,1,2,68)          -103.1872         estimate D2E/DX2                !
 ! D7    D(67,1,2,3)           -96.4011         estimate D2E/DX2                !
 ! D8    D(67,1,2,10)          151.6964         estimate D2E/DX2                !
 ! D9    D(67,1,2,68)           30.775          estimate D2E/DX2                !
 ! D10   D(2,1,4,5)            -16.5067         estimate D2E/DX2                !
 ! D11   D(2,1,4,6)            131.5192         estimate D2E/DX2                !
 ! D12   D(7,1,4,5)           -139.4333         estimate D2E/DX2                !
 ! D13   D(7,1,4,6)              8.5926         estimate D2E/DX2                !
 ! D14   D(67,1,4,5)            98.7463         estimate D2E/DX2                !
 ! D15   D(67,1,4,6)          -113.2277         estimate D2E/DX2                !
 ! D16   D(2,1,7,8)           -114.3579         estimate D2E/DX2                !
 ! D17   D(2,1,7,9)             -2.5            estimate D2E/DX2                !
 ! D18   D(2,1,7,71)           125.3778         estimate D2E/DX2                !
 ! D19   D(4,1,7,8)             -5.956          estimate D2E/DX2                !
 ! D20   D(4,1,7,9)            105.9019         estimate D2E/DX2                !
 ! D21   D(4,1,7,71)          -126.2204         estimate D2E/DX2                !
 ! D22   D(67,1,7,8)           113.5041         estimate D2E/DX2                !
 ! D23   D(67,1,7,9)          -134.638          estimate D2E/DX2                !
 ! D24   D(67,1,7,71)           -6.7602         estimate D2E/DX2                !
 ! D25   D(1,2,3,5)            -16.8758         estimate D2E/DX2                !
 ! D26   D(1,2,3,12)          -131.7889         estimate D2E/DX2                !
 ! D27   D(1,2,3,69)           101.2845         estimate D2E/DX2                !
 ! D28   D(10,2,3,5)           100.864          estimate D2E/DX2                !
 ! D29   D(10,2,3,12)          -14.0492         estimate D2E/DX2                !
 ! D30   D(10,2,3,69)         -140.9757         estimate D2E/DX2                !
 ! D31   D(68,2,3,5)          -142.2731         estimate D2E/DX2                !
 ! D32   D(68,2,3,12)          102.8137         estimate D2E/DX2                !
 ! D33   D(68,2,3,69)          -24.1128         estimate D2E/DX2                !
 ! D34   D(1,2,10,11)          -33.1939         estimate D2E/DX2                !
 ! D35   D(1,2,10,13)          130.4384         estimate D2E/DX2                !
 ! D36   D(3,2,10,11)         -148.1285         estimate D2E/DX2                !
 ! D37   D(3,2,10,13)           15.5039         estimate D2E/DX2                !
 ! D38   D(68,2,10,11)          90.0714         estimate D2E/DX2                !
 ! D39   D(68,2,10,13)        -106.2962         estimate D2E/DX2                !
 ! D40   D(2,3,5,4)              6.9905         estimate D2E/DX2                !
 ! D41   D(2,3,5,15)          -155.858          estimate D2E/DX2                !
 ! D42   D(12,3,5,4)           119.4941         estimate D2E/DX2                !
 ! D43   D(12,3,5,15)          -43.3544         estimate D2E/DX2                !
 ! D44   D(69,3,5,4)          -114.1414         estimate D2E/DX2                !
 ! D45   D(69,3,5,15)           83.0101         estimate D2E/DX2                !
 ! D46   D(2,3,12,13)            8.4663         estimate D2E/DX2                !
 ! D47   D(2,3,12,14)          125.1463         estimate D2E/DX2                !
 ! D48   D(2,3,12,70)         -109.8212         estimate D2E/DX2                !
 ! D49   D(5,3,12,13)         -100.9006         estimate D2E/DX2                !
 ! D50   D(5,3,12,14)           15.7794         estimate D2E/DX2                !
 ! D51   D(5,3,12,70)          140.812          estimate D2E/DX2                !
 ! D52   D(69,3,12,13)         135.2714         estimate D2E/DX2                !
 ! D53   D(69,3,12,14)        -108.0486         estimate D2E/DX2                !
 ! D54   D(69,3,12,70)          16.9839         estimate D2E/DX2                !
 ! D55   D(1,4,5,3)              6.3829         estimate D2E/DX2                !
 ! D56   D(1,4,5,15)           169.8724         estimate D2E/DX2                !
 ! D57   D(6,4,5,3)           -138.3694         estimate D2E/DX2                !
 ! D58   D(6,4,5,15)            25.1201         estimate D2E/DX2                !
 ! D59   D(1,4,6,8)             -7.9271         estimate D2E/DX2                !
 ! D60   D(1,4,6,17)          -160.7789         estimate D2E/DX2                !
 ! D61   D(5,4,6,8)            137.8584         estimate D2E/DX2                !
 ! D62   D(5,4,6,17)           -14.9934         estimate D2E/DX2                !
 ! D63   D(3,5,15,16)           40.5817         estimate D2E/DX2                !
 ! D64   D(3,5,15,18)          155.2482         estimate D2E/DX2                !
 ! D65   D(3,5,15,76)          -76.2904         estimate D2E/DX2                !
 ! D66   D(4,5,15,16)         -120.6011         estimate D2E/DX2                !
 ! D67   D(4,5,15,18)           -5.9346         estimate D2E/DX2                !
 ! D68   D(4,5,15,76)          122.5268         estimate D2E/DX2                !
 ! D69   D(4,6,8,7)              3.4811         estimate D2E/DX2                !
 ! D70   D(4,6,8,20)          -156.0338         estimate D2E/DX2                !
 ! D71   D(17,6,8,7)           155.0364         estimate D2E/DX2                !
 ! D72   D(17,6,8,20)           -4.4785         estimate D2E/DX2                !
 ! D73   D(4,6,17,18)          -13.9815         estimate D2E/DX2                !
 ! D74   D(4,6,17,19)          158.0029         estimate D2E/DX2                !
 ! D75   D(8,6,17,18)         -162.3744         estimate D2E/DX2                !
 ! D76   D(8,6,17,19)            9.6099         estimate D2E/DX2                !
 ! D77   D(1,7,8,6)              1.7905         estimate D2E/DX2                !
 ! D78   D(1,7,8,20)           159.1533         estimate D2E/DX2                !
 ! D79   D(9,7,8,6)           -121.2705         estimate D2E/DX2                !
 ! D80   D(9,7,8,20)            36.0922         estimate D2E/DX2                !
 ! D81   D(71,7,8,6)           123.2753         estimate D2E/DX2                !
 ! D82   D(71,7,8,20)          -79.3619         estimate D2E/DX2                !
 ! D83   D(1,7,9,11)            -1.6093         estimate D2E/DX2                !
 ! D84   D(1,7,9,22)          -159.4452         estimate D2E/DX2                !
 ! D85   D(8,7,9,11)           111.9673         estimate D2E/DX2                !
 ! D86   D(8,7,9,22)           -45.8686         estimate D2E/DX2                !
 ! D87   D(71,7,9,11)         -131.2242         estimate D2E/DX2                !
 ! D88   D(71,7,9,22)           70.9399         estimate D2E/DX2                !
 ! D89   D(6,8,20,21)           -3.0408         estimate D2E/DX2                !
 ! D90   D(6,8,20,23)          162.7349         estimate D2E/DX2                !
 ! D91   D(7,8,20,21)         -158.8761         estimate D2E/DX2                !
 ! D92   D(7,8,20,23)            6.8996         estimate D2E/DX2                !
 ! D93   D(7,9,11,10)          -11.2365         estimate D2E/DX2                !
 ! D94   D(7,9,11,25)         -161.6838         estimate D2E/DX2                !
 ! D95   D(22,9,11,10)         146.5737         estimate D2E/DX2                !
 ! D96   D(22,9,11,25)          -3.8736         estimate D2E/DX2                !
 ! D97   D(7,9,22,23)           16.795          estimate D2E/DX2                !
 ! D98   D(7,9,22,24)          168.2095         estimate D2E/DX2                !
 ! D99   D(11,9,22,23)        -141.5554         estimate D2E/DX2                !
 ! D100  D(11,9,22,24)           9.8591         estimate D2E/DX2                !
 ! D101  D(2,10,11,9)           31.1691         estimate D2E/DX2                !
 ! D102  D(2,10,11,25)        -176.8066         estimate D2E/DX2                !
 ! D103  D(13,10,11,9)        -131.2942         estimate D2E/DX2                !
 ! D104  D(13,10,11,25)         20.73           estimate D2E/DX2                !
 ! D105  D(2,10,13,12)         -10.8984         estimate D2E/DX2                !
 ! D106  D(2,10,13,27)        -174.5743         estimate D2E/DX2                !
 ! D107  D(11,10,13,12)        153.466          estimate D2E/DX2                !
 ! D108  D(11,10,13,27)        -10.21           estimate D2E/DX2                !
 ! D109  D(9,11,25,26)          -6.2699         estimate D2E/DX2                !
 ! D110  D(9,11,25,28)         138.669          estimate D2E/DX2                !
 ! D111  D(10,11,25,26)       -157.9977         estimate D2E/DX2                !
 ! D112  D(10,11,25,28)        -13.0589         estimate D2E/DX2                !
 ! D113  D(3,12,13,10)           0.8608         estimate D2E/DX2                !
 ! D114  D(3,12,13,27)         164.6528         estimate D2E/DX2                !
 ! D115  D(14,12,13,10)       -122.5234         estimate D2E/DX2                !
 ! D116  D(14,12,13,27)         41.2686         estimate D2E/DX2                !
 ! D117  D(70,12,13,10)        120.2236         estimate D2E/DX2                !
 ! D118  D(70,12,13,27)        -75.9844         estimate D2E/DX2                !
 ! D119  D(3,12,14,16)           8.3175         estimate D2E/DX2                !
 ! D120  D(3,12,14,29)        -157.4687         estimate D2E/DX2                !
 ! D121  D(13,12,14,16)        122.8333         estimate D2E/DX2                !
 ! D122  D(13,12,14,29)        -42.9529         estimate D2E/DX2                !
 ! D123  D(70,12,14,16)       -118.5377         estimate D2E/DX2                !
 ! D124  D(70,12,14,29)         75.6761         estimate D2E/DX2                !
 ! D125  D(10,13,27,28)         -9.0124         estimate D2E/DX2                !
 ! D126  D(10,13,27,30)        144.9544         estimate D2E/DX2                !
 ! D127  D(12,13,27,28)       -171.11           estimate D2E/DX2                !
 ! D128  D(12,13,27,30)        -17.1433         estimate D2E/DX2                !
 ! D129  D(12,14,16,15)        -11.6903         estimate D2E/DX2                !
 ! D130  D(12,14,16,32)       -164.1074         estimate D2E/DX2                !
 ! D131  D(29,14,16,15)        153.9719         estimate D2E/DX2                !
 ! D132  D(29,14,16,32)          1.5548         estimate D2E/DX2                !
 ! D133  D(12,14,29,30)         22.9489         estimate D2E/DX2                !
 ! D134  D(12,14,29,31)        175.1797         estimate D2E/DX2                !
 ! D135  D(16,14,29,30)       -143.2413         estimate D2E/DX2                !
 ! D136  D(16,14,29,31)          8.9895         estimate D2E/DX2                !
 ! D137  D(5,15,16,14)         -10.4475         estimate D2E/DX2                !
 ! D138  D(5,15,16,32)         145.1413         estimate D2E/DX2                !
 ! D139  D(18,15,16,14)       -132.06           estimate D2E/DX2                !
 ! D140  D(18,15,16,32)         23.5288         estimate D2E/DX2                !
 ! D141  D(76,15,16,14)        108.3878         estimate D2E/DX2                !
 ! D142  D(76,15,16,32)        -96.0234         estimate D2E/DX2                !
 ! D143  D(5,15,18,17)         -20.5393         estimate D2E/DX2                !
 ! D144  D(5,15,18,33)        -135.9315         estimate D2E/DX2                !
 ! D145  D(5,15,18,75)         103.6798         estimate D2E/DX2                !
 ! D146  D(16,15,18,17)         96.9757         estimate D2E/DX2                !
 ! D147  D(16,15,18,33)        -18.4166         estimate D2E/DX2                !
 ! D148  D(16,15,18,75)       -138.8052         estimate D2E/DX2                !
 ! D149  D(76,15,18,17)       -147.5786         estimate D2E/DX2                !
 ! D150  D(76,15,18,33)         97.0291         estimate D2E/DX2                !
 ! D151  D(76,15,18,75)        -23.3595         estimate D2E/DX2                !
 ! D152  D(14,16,32,33)        136.6882         estimate D2E/DX2                !
 ! D153  D(14,16,32,34)        -10.5725         estimate D2E/DX2                !
 ! D154  D(15,16,32,33)        -19.8481         estimate D2E/DX2                !
 ! D155  D(15,16,32,34)       -167.1089         estimate D2E/DX2                !
 ! D156  D(6,17,18,15)          30.2683         estimate D2E/DX2                !
 ! D157  D(6,17,18,33)         143.8304         estimate D2E/DX2                !
 ! D158  D(6,17,18,75)         -96.6284         estimate D2E/DX2                !
 ! D159  D(19,17,18,15)       -141.0557         estimate D2E/DX2                !
 ! D160  D(19,17,18,33)        -27.4936         estimate D2E/DX2                !
 ! D161  D(19,17,18,75)         92.0476         estimate D2E/DX2                !
 ! D162  D(6,17,19,21)          -7.1334         estimate D2E/DX2                !
 ! D163  D(6,17,19,35)        -177.8132         estimate D2E/DX2                !
 ! D164  D(18,17,19,21)        164.2475         estimate D2E/DX2                !
 ! D165  D(18,17,19,35)         -6.4323         estimate D2E/DX2                !
 ! D166  D(15,18,33,32)          7.6331         estimate D2E/DX2                !
 ! D167  D(15,18,33,36)        154.6671         estimate D2E/DX2                !
 ! D168  D(17,18,33,32)       -113.1508         estimate D2E/DX2                !
 ! D169  D(17,18,33,36)         33.8831         estimate D2E/DX2                !
 ! D170  D(75,18,33,32)        129.3544         estimate D2E/DX2                !
 ! D171  D(75,18,33,36)        -83.6117         estimate D2E/DX2                !
 ! D172  D(17,19,21,20)          0.1565         estimate D2E/DX2                !
 ! D173  D(17,19,21,38)       -171.4831         estimate D2E/DX2                !
 ! D174  D(35,19,21,20)        170.4747         estimate D2E/DX2                !
 ! D175  D(35,19,21,38)         -1.1649         estimate D2E/DX2                !
 ! D176  D(17,19,35,36)         34.1369         estimate D2E/DX2                !
 ! D177  D(17,19,35,37)        144.4087         estimate D2E/DX2                !
 ! D178  D(17,19,35,74)        -91.0277         estimate D2E/DX2                !
 ! D179  D(21,19,35,36)       -136.2853         estimate D2E/DX2                !
 ! D180  D(21,19,35,37)        -26.0135         estimate D2E/DX2                !
 ! D181  D(21,19,35,74)         98.5501         estimate D2E/DX2                !
 ! D182  D(8,20,21,19)           5.0947         estimate D2E/DX2                !
 ! D183  D(8,20,21,38)         176.8337         estimate D2E/DX2                !
 ! D184  D(23,20,21,19)       -159.6076         estimate D2E/DX2                !
 ! D185  D(23,20,21,38)         12.1314         estimate D2E/DX2                !
 ! D186  D(8,20,23,22)         -38.4127         estimate D2E/DX2                !
 ! D187  D(8,20,23,40)        -147.7065         estimate D2E/DX2                !
 ! D188  D(8,20,23,72)          87.5381         estimate D2E/DX2                !
 ! D189  D(21,20,23,22)        126.6907         estimate D2E/DX2                !
 ! D190  D(21,20,23,40)         17.397          estimate D2E/DX2                !
 ! D191  D(21,20,23,72)       -107.3585         estimate D2E/DX2                !
 ! D192  D(19,21,38,39)         26.9569         estimate D2E/DX2                !
 ! D193  D(19,21,38,42)        138.6716         estimate D2E/DX2                !
 ! D194  D(19,21,38,73)        -97.3634         estimate D2E/DX2                !
 ! D195  D(20,21,38,39)       -144.8959         estimate D2E/DX2                !
 ! D196  D(20,21,38,42)        -33.1811         estimate D2E/DX2                !
 ! D197  D(20,21,38,73)         90.7839         estimate D2E/DX2                !
 ! D198  D(9,22,23,20)          28.6215         estimate D2E/DX2                !
 ! D199  D(9,22,23,40)         144.2834         estimate D2E/DX2                !
 ! D200  D(9,22,23,72)         -92.9388         estimate D2E/DX2                !
 ! D201  D(24,22,23,20)       -125.6971         estimate D2E/DX2                !
 ! D202  D(24,22,23,40)        -10.0351         estimate D2E/DX2                !
 ! D203  D(24,22,23,72)        112.7427         estimate D2E/DX2                !
 ! D204  D(9,22,24,26)          -5.9241         estimate D2E/DX2                !
 ! D205  D(9,22,24,41)        -150.8046         estimate D2E/DX2                !
 ! D206  D(23,22,24,26)        149.6867         estimate D2E/DX2                !
 ! D207  D(23,22,24,41)          4.8062         estimate D2E/DX2                !
 ! D208  D(20,23,40,41)        123.7955         estimate D2E/DX2                !
 ! D209  D(20,23,40,42)        -25.2616         estimate D2E/DX2                !
 ! D210  D(22,23,40,41)         12.1661         estimate D2E/DX2                !
 ! D211  D(22,23,40,42)       -136.891          estimate D2E/DX2                !
 ! D212  D(72,23,40,41)       -113.207          estimate D2E/DX2                !
 ! D213  D(72,23,40,42)         97.7359         estimate D2E/DX2                !
 ! D214  D(22,24,26,25)         -4.1181         estimate D2E/DX2                !
 ! D215  D(22,24,26,44)       -142.0555         estimate D2E/DX2                !
 ! D216  D(41,24,26,25)        137.493          estimate D2E/DX2                !
 ! D217  D(41,24,26,44)         -0.4444         estimate D2E/DX2                !
 ! D218  D(22,24,41,40)          3.0036         estimate D2E/DX2                !
 ! D219  D(22,24,41,43)        146.8991         estimate D2E/DX2                !
 ! D220  D(26,24,41,40)       -142.4086         estimate D2E/DX2                !
 ! D221  D(26,24,41,43)          1.4868         estimate D2E/DX2                !
 ! D222  D(11,25,26,24)         10.1838         estimate D2E/DX2                !
 ! D223  D(11,25,26,44)        153.0112         estimate D2E/DX2                !
 ! D224  D(28,25,26,24)       -139.369          estimate D2E/DX2                !
 ! D225  D(28,25,26,44)          3.4584         estimate D2E/DX2                !
 ! D226  D(11,25,28,27)         -5.6985         estimate D2E/DX2                !
 ! D227  D(11,25,28,45)       -152.5797         estimate D2E/DX2                !
 ! D228  D(26,25,28,27)        143.4198         estimate D2E/DX2                !
 ! D229  D(26,25,28,45)         -3.4614         estimate D2E/DX2                !
 ! D230  D(24,26,44,45)        139.0356         estimate D2E/DX2                !
 ! D231  D(24,26,44,46)         -1.1848         estimate D2E/DX2                !
 ! D232  D(25,26,44,45)         -2.1313         estimate D2E/DX2                !
 ! D233  D(25,26,44,46)       -142.3517         estimate D2E/DX2                !
 ! D234  D(13,27,28,25)         16.566          estimate D2E/DX2                !
 ! D235  D(13,27,28,45)        158.8161         estimate D2E/DX2                !
 ! D236  D(30,27,28,25)       -137.0633         estimate D2E/DX2                !
 ! D237  D(30,27,28,45)          5.1868         estimate D2E/DX2                !
 ! D238  D(13,27,30,29)         -8.455          estimate D2E/DX2                !
 ! D239  D(13,27,30,47)       -159.9883         estimate D2E/DX2                !
 ! D240  D(28,27,30,29)        144.1427         estimate D2E/DX2                !
 ! D241  D(28,27,30,47)         -7.3907         estimate D2E/DX2                !
 ! D242  D(25,28,45,44)          2.1535         estimate D2E/DX2                !
 ! D243  D(25,28,45,48)        145.812          estimate D2E/DX2                !
 ! D244  D(27,28,45,44)       -143.8            estimate D2E/DX2                !
 ! D245  D(27,28,45,48)         -0.1415         estimate D2E/DX2                !
 ! D246  D(14,29,30,27)          5.0439         estimate D2E/DX2                !
 ! D247  D(14,29,30,47)        155.6545         estimate D2E/DX2                !
 ! D248  D(31,29,30,27)       -147.3654         estimate D2E/DX2                !
 ! D249  D(31,29,30,47)          3.2453         estimate D2E/DX2                !
 ! D250  D(14,29,31,34)        -11.046          estimate D2E/DX2                !
 ! D251  D(14,29,31,49)       -154.1026         estimate D2E/DX2                !
 ! D252  D(30,29,31,34)        142.0868         estimate D2E/DX2                !
 ! D253  D(30,29,31,49)         -0.9698         estimate D2E/DX2                !
 ! D254  D(27,30,47,48)          5.0478         estimate D2E/DX2                !
 ! D255  D(27,30,47,50)        147.8199         estimate D2E/DX2                !
 ! D256  D(29,30,47,48)       -146.071          estimate D2E/DX2                !
 ! D257  D(29,30,47,50)         -3.2989         estimate D2E/DX2                !
 ! D258  D(29,31,34,32)          2.3595         estimate D2E/DX2                !
 ! D259  D(29,31,34,51)       -140.2961         estimate D2E/DX2                !
 ! D260  D(49,31,34,32)        150.719          estimate D2E/DX2                !
 ! D261  D(49,31,34,51)          8.0634         estimate D2E/DX2                !
 ! D262  D(29,31,49,50)         -1.4513         estimate D2E/DX2                !
 ! D263  D(29,31,49,54)        141.9055         estimate D2E/DX2                !
 ! D264  D(34,31,49,50)       -149.1923         estimate D2E/DX2                !
 ! D265  D(34,31,49,54)         -5.8355         estimate D2E/DX2                !
 ! D266  D(16,32,33,18)          7.1629         estimate D2E/DX2                !
 ! D267  D(16,32,33,36)       -140.8609         estimate D2E/DX2                !
 ! D268  D(34,32,33,18)        153.726          estimate D2E/DX2                !
 ! D269  D(34,32,33,36)          5.7022         estimate D2E/DX2                !
 ! D270  D(16,32,34,31)          8.4954         estimate D2E/DX2                !
 ! D271  D(16,32,34,51)        147.5531         estimate D2E/DX2                !
 ! D272  D(33,32,34,31)       -134.901          estimate D2E/DX2                !
 ! D273  D(33,32,34,51)          4.1568         estimate D2E/DX2                !
 ! D274  D(18,33,36,35)         -6.3623         estimate D2E/DX2                !
 ! D275  D(18,33,36,52)       -155.3074         estimate D2E/DX2                !
 ! D276  D(32,33,36,35)        137.7481         estimate D2E/DX2                !
 ! D277  D(32,33,36,52)        -11.197          estimate D2E/DX2                !
 ! D278  D(31,34,51,52)        134.4226         estimate D2E/DX2                !
 ! D279  D(31,34,51,54)         -7.1514         estimate D2E/DX2                !
 ! D280  D(32,34,51,52)         -8.1046         estimate D2E/DX2                !
 ! D281  D(32,34,51,54)       -149.6785         estimate D2E/DX2                !
 ! D282  D(19,35,36,33)        -28.981          estimate D2E/DX2                !
 ! D283  D(19,35,36,52)        122.2651         estimate D2E/DX2                !
 ! D284  D(37,35,36,33)       -145.2732         estimate D2E/DX2                !
 ! D285  D(37,35,36,52)          5.9729         estimate D2E/DX2                !
 ! D286  D(74,35,36,33)         92.4112         estimate D2E/DX2                !
 ! D287  D(74,35,36,52)       -116.3427         estimate D2E/DX2                !
 ! D288  D(19,35,37,39)         27.6573         estimate D2E/DX2                !
 ! D289  D(19,35,37,53)       -121.9863         estimate D2E/DX2                !
 ! D290  D(36,35,37,39)        142.3036         estimate D2E/DX2                !
 ! D291  D(36,35,37,53)         -7.34           estimate D2E/DX2                !
 ! D292  D(74,35,37,39)        -94.246          estimate D2E/DX2                !
 ! D293  D(74,35,37,53)        116.1104         estimate D2E/DX2                !
 ! D294  D(33,36,52,51)          7.2103         estimate D2E/DX2                !
 ! D295  D(33,36,52,53)        149.9973         estimate D2E/DX2                !
 ! D296  D(35,36,52,51)       -145.387          estimate D2E/DX2                !
 ! D297  D(35,36,52,53)         -2.5999         estimate D2E/DX2                !
 ! D298  D(35,37,39,38)         -1.5523         estimate D2E/DX2                !
 ! D299  D(35,37,39,57)       -148.9375         estimate D2E/DX2                !
 ! D300  D(53,37,39,38)        145.3228         estimate D2E/DX2                !
 ! D301  D(53,37,39,57)         -2.0624         estimate D2E/DX2                !
 ! D302  D(35,37,53,52)          6.2872         estimate D2E/DX2                !
 ! D303  D(35,37,53,55)        150.2944         estimate D2E/DX2                !
 ! D304  D(39,37,53,52)       -144.013          estimate D2E/DX2                !
 ! D305  D(39,37,53,55)         -0.0058         estimate D2E/DX2                !
 ! D306  D(21,38,39,37)        -26.3521         estimate D2E/DX2                !
 ! D307  D(21,38,39,57)        123.3818         estimate D2E/DX2                !
 ! D308  D(42,38,39,37)       -143.46           estimate D2E/DX2                !
 ! D309  D(42,38,39,57)          6.274          estimate D2E/DX2                !
 ! D310  D(73,38,39,37)         94.1176         estimate D2E/DX2                !
 ! D311  D(73,38,39,57)       -116.1484         estimate D2E/DX2                !
 ! D312  D(21,38,42,40)         26.6162         estimate D2E/DX2                !
 ! D313  D(21,38,42,58)       -123.7712         estimate D2E/DX2                !
 ! D314  D(39,38,42,40)        144.2663         estimate D2E/DX2                !
 ! D315  D(39,38,42,58)         -6.1211         estimate D2E/DX2                !
 ! D316  D(73,38,42,40)        -93.373          estimate D2E/DX2                !
 ! D317  D(73,38,42,58)        116.2396         estimate D2E/DX2                !
 ! D318  D(37,39,57,58)        146.8315         estimate D2E/DX2                !
 ! D319  D(37,39,57,60)          2.3938         estimate D2E/DX2                !
 ! D320  D(38,39,57,58)         -4.3129         estimate D2E/DX2                !
 ! D321  D(38,39,57,60)       -148.7506         estimate D2E/DX2                !
 ! D322  D(23,40,41,24)         -9.8937         estimate D2E/DX2                !
 ! D323  D(23,40,41,43)       -152.7776         estimate D2E/DX2                !
 ! D324  D(42,40,41,24)        140.007          estimate D2E/DX2                !
 ! D325  D(42,40,41,43)         -2.8768         estimate D2E/DX2                !
 ! D326  D(23,40,42,38)          2.9984         estimate D2E/DX2                !
 ! D327  D(23,40,42,58)        150.9615         estimate D2E/DX2                !
 ! D328  D(41,40,42,38)       -143.532          estimate D2E/DX2                !
 ! D329  D(41,40,42,58)          4.4312         estimate D2E/DX2                !
 ! D330  D(24,41,43,46)         -0.9495         estimate D2E/DX2                !
 ! D331  D(24,41,43,59)       -139.0374         estimate D2E/DX2                !
 ! D332  D(40,41,43,46)        137.7079         estimate D2E/DX2                !
 ! D333  D(40,41,43,59)         -0.38           estimate D2E/DX2                !
 ! D334  D(38,42,58,57)          3.936          estimate D2E/DX2                !
 ! D335  D(38,42,58,59)        148.8518         estimate D2E/DX2                !
 ! D336  D(40,42,58,57)       -147.865          estimate D2E/DX2                !
 ! D337  D(40,42,58,59)         -2.9492         estimate D2E/DX2                !
 ! D338  D(41,43,46,44)         -0.6599         estimate D2E/DX2                !
 ! D339  D(41,43,46,61)       -142.2808         estimate D2E/DX2                !
 ! D340  D(59,43,46,44)        141.5588         estimate D2E/DX2                !
 ! D341  D(59,43,46,61)         -0.0621         estimate D2E/DX2                !
 ! D342  D(41,43,59,58)          1.8992         estimate D2E/DX2                !
 ! D343  D(41,43,59,65)        144.7814         estimate D2E/DX2                !
 ! D344  D(46,43,59,58)       -141.3424         estimate D2E/DX2                !
 ! D345  D(46,43,59,65)          1.5398         estimate D2E/DX2                !
 ! D346  D(26,44,45,28)         -0.02           estimate D2E/DX2                !
 ! D347  D(26,44,45,48)       -142.5349         estimate D2E/DX2                !
 ! D348  D(46,44,45,28)        140.4301         estimate D2E/DX2                !
 ! D349  D(46,44,45,48)         -2.0848         estimate D2E/DX2                !
 ! D350  D(26,44,46,43)          1.7064         estimate D2E/DX2                !
 ! D351  D(26,44,46,61)        139.4107         estimate D2E/DX2                !
 ! D352  D(45,44,46,43)       -133.6886         estimate D2E/DX2                !
 ! D353  D(45,44,46,61)          4.0157         estimate D2E/DX2                !
 ! D354  D(28,45,48,47)         -2.3229         estimate D2E/DX2                !
 ! D355  D(28,45,48,62)       -141.1248         estimate D2E/DX2                !
 ! D356  D(44,45,48,47)        136.3534         estimate D2E/DX2                !
 ! D357  D(44,45,48,62)         -2.4486         estimate D2E/DX2                !
 ! D358  D(43,46,61,62)        139.8359         estimate D2E/DX2                !
 ! D359  D(43,46,61,65)         -1.4321         estimate D2E/DX2                !
 ! D360  D(44,46,61,62)         -1.4608         estimate D2E/DX2                !
 ! D361  D(44,46,61,65)       -142.7288         estimate D2E/DX2                !
 ! D362  D(30,47,48,45)         -0.2765         estimate D2E/DX2                !
 ! D363  D(30,47,48,62)        142.1931         estimate D2E/DX2                !
 ! D364  D(50,47,48,45)       -148.0729         estimate D2E/DX2                !
 ! D365  D(50,47,48,62)         -5.6033         estimate D2E/DX2                !
 ! D366  D(30,47,50,49)          0.8531         estimate D2E/DX2                !
 ! D367  D(30,47,50,63)       -142.4803         estimate D2E/DX2                !
 ! D368  D(48,47,50,49)        148.8007         estimate D2E/DX2                !
 ! D369  D(48,47,50,63)          5.4673         estimate D2E/DX2                !
 ! D370  D(45,48,62,61)          4.98           estimate D2E/DX2                !
 ! D371  D(45,48,62,63)        146.2549         estimate D2E/DX2                !
 ! D372  D(47,48,62,61)       -137.6435         estimate D2E/DX2                !
 ! D373  D(47,48,62,63)          3.6314         estimate D2E/DX2                !
 ! D374  D(31,49,50,47)          1.5118         estimate D2E/DX2                !
 ! D375  D(31,49,50,63)        140.5495         estimate D2E/DX2                !
 ! D376  D(54,49,50,47)       -137.6207         estimate D2E/DX2                !
 ! D377  D(54,49,50,63)          1.417          estimate D2E/DX2                !
 ! D378  D(31,49,54,51)          1.5634         estimate D2E/DX2                !
 ! D379  D(31,49,54,56)       -139.3616         estimate D2E/DX2                !
 ! D380  D(50,49,54,51)        144.8672         estimate D2E/DX2                !
 ! D381  D(50,49,54,56)          3.9423         estimate D2E/DX2                !
 ! D382  D(47,50,63,62)         -3.3279         estimate D2E/DX2                !
 ! D383  D(47,50,63,64)        137.3667         estimate D2E/DX2                !
 ! D384  D(49,50,63,62)       -145.7082         estimate D2E/DX2                !
 ! D385  D(49,50,63,64)         -5.0136         estimate D2E/DX2                !
 ! D386  D(34,51,52,36)          2.5743         estimate D2E/DX2                !
 ! D387  D(34,51,52,53)       -136.06           estimate D2E/DX2                !
 ! D388  D(54,51,52,36)        138.6752         estimate D2E/DX2                !
 ! D389  D(54,51,52,53)          0.0409         estimate D2E/DX2                !
 ! D390  D(34,51,54,49)          3.3673         estimate D2E/DX2                !
 ! D391  D(34,51,54,56)        144.1375         estimate D2E/DX2                !
 ! D392  D(52,51,54,49)       -137.0645         estimate D2E/DX2                !
 ! D393  D(52,51,54,56)          3.7057         estimate D2E/DX2                !
 ! D394  D(36,52,53,37)         -2.2332         estimate D2E/DX2                !
 ! D395  D(36,52,53,55)       -147.0222         estimate D2E/DX2                !
 ! D396  D(51,52,53,37)        141.1952         estimate D2E/DX2                !
 ! D397  D(51,52,53,55)         -3.5937         estimate D2E/DX2                !
 ! D398  D(37,53,55,56)       -136.8714         estimate D2E/DX2                !
 ! D399  D(37,53,55,60)          1.8248         estimate D2E/DX2                !
 ! D400  D(52,53,55,56)          3.5096         estimate D2E/DX2                !
 ! D401  D(52,53,55,60)        142.2058         estimate D2E/DX2                !
 ! D402  D(49,54,56,55)        132.4626         estimate D2E/DX2                !
 ! D403  D(49,54,56,64)         -5.6421         estimate D2E/DX2                !
 ! D404  D(51,54,56,55)         -3.7769         estimate D2E/DX2                !
 ! D405  D(51,54,56,64)       -141.8817         estimate D2E/DX2                !
 ! D406  D(53,55,56,54)          0.2064         estimate D2E/DX2                !
 ! D407  D(53,55,56,64)        142.6157         estimate D2E/DX2                !
 ! D408  D(60,55,56,54)       -142.4597         estimate D2E/DX2                !
 ! D409  D(60,55,56,64)         -0.0504         estimate D2E/DX2                !
 ! D410  D(53,55,60,57)         -1.4999         estimate D2E/DX2                !
 ! D411  D(53,55,60,66)       -145.1201         estimate D2E/DX2                !
 ! D412  D(56,55,60,57)        142.1451         estimate D2E/DX2                !
 ! D413  D(56,55,60,66)         -1.4751         estimate D2E/DX2                !
 ! D414  D(54,56,64,63)          2.032          estimate D2E/DX2                !
 ! D415  D(54,56,64,66)        143.4641         estimate D2E/DX2                !
 ! D416  D(55,56,64,63)       -139.8849         estimate D2E/DX2                !
 ! D417  D(55,56,64,66)          1.5472         estimate D2E/DX2                !
 ! D418  D(39,57,58,42)          0.2215         estimate D2E/DX2                !
 ! D419  D(39,57,58,59)       -145.6235         estimate D2E/DX2                !
[...]
 Alpha virt. eigenvalues --    1.32984   1.33333   1.33538   1.33786   1.34364
 Alpha virt. eigenvalues --    1.34629   1.34826   1.35540   1.35642   1.35803
 Alpha virt. eigenvalues --    1.36111   1.36369   1.36727   1.36873   1.37027
 Alpha virt. eigenvalues --    1.37809   1.38395   1.38419   1.38767   1.38937
 Alpha virt. eigenvalues --    1.39165   1.39742   1.40251   1.40376   1.40583
 Alpha virt. eigenvalues --    1.40888   1.41154   1.41392   1.41564   1.41935
 Alpha virt. eigenvalues --    1.42015   1.42380   1.42512   1.42612   1.42905
 Alpha virt. eigenvalues --    1.43366   1.43695   1.43761   1.43983   1.44327
 Alpha virt. eigenvalues --    1.44475   1.44835   1.45016   1.45141   1.45446
 Alpha virt. eigenvalues --    1.45520   1.45715   1.46169   1.46467   1.46592
 Alpha virt. eigenvalues --    1.46811   1.47107   1.47385   1.47664   1.48287
 Alpha virt. eigenvalues --    1.48442   1.48704   1.49007   1.49160   1.49621
 Alpha virt. eigenvalues --    1.49983   1.50261   1.50404   1.50459   1.50841
 Alpha virt. eigenvalues --    1.51220   1.51653   1.51982   1.52064   1.52153
 Alpha virt. eigenvalues --    1.52318   1.52834   1.53307   1.53809   1.53992
 Alpha virt. eigenvalues --    1.54184   1.54659   1.54844   1.55476   1.55776
 Alpha virt. eigenvalues --    1.55857   1.56147   1.56426   1.57144   1.57398
 Alpha virt. eigenvalues --    1.57821   1.58113   1.58513   1.58740   1.59015
 Alpha virt. eigenvalues --    1.59781   1.60115   1.60376   1.60626   1.60767
 Alpha virt. eigenvalues --    1.61505   1.62020   1.62156   1.62548   1.62619
 Alpha virt. eigenvalues --    1.63134   1.63272   1.63669   1.63924   1.64580
 Alpha virt. eigenvalues --    1.65152   1.65225   1.65463   1.66152   1.66534
 Alpha virt. eigenvalues --    1.66749   1.67110   1.67333   1.67949   1.68208
 Alpha virt. eigenvalues --    1.68743   1.68851   1.69591   1.70022   1.70203
 Alpha virt. eigenvalues --    1.70453   1.70762   1.71084   1.71348   1.71615
 Alpha virt. eigenvalues --    1.72472   1.72683   1.73099   1.73201   1.73953
 Alpha virt. eigenvalues --    1.74108   1.74311   1.74925   1.75232   1.75625
 Alpha virt. eigenvalues --    1.75999   1.76462   1.76659   1.77073   1.77218
 Alpha virt. eigenvalues --    1.78118   1.78235   1.78878   1.79446   1.79913
 Alpha virt. eigenvalues --    1.80047   1.80776   1.81239   1.81324   1.81645
 Alpha virt. eigenvalues --    1.82468   1.83672   1.83841   1.84266   1.84610
 Alpha virt. eigenvalues --    1.85334   1.85399   1.85837   1.86513   1.86610
 Alpha virt. eigenvalues --    1.87272   1.88303   1.88605   1.89174   1.89470
 Alpha virt. eigenvalues --    1.89934   1.90219   1.90725   1.91274   1.91583
 Alpha virt. eigenvalues --    1.91847   1.92332   1.93119   1.93240   1.93357
 Alpha virt. eigenvalues --    1.94046   1.94284   1.95204   1.95595   1.96343
 Alpha virt. eigenvalues --    1.97167   1.97331   1.97860   1.98833   1.99015
 Alpha virt. eigenvalues --    1.99269   1.99635   2.00340   2.00491   2.00961
 Alpha virt. eigenvalues --    2.01117   2.01351   2.01626   2.01737   2.02771
 Alpha virt. eigenvalues --    2.02822   2.03108   2.03642   2.04403   2.04712
 Alpha virt. eigenvalues --    2.05084   2.05572   2.05951   2.06245   2.06723
 Alpha virt. eigenvalues --    2.07030   2.07242   2.07345   2.07776   2.09019
 Alpha virt. eigenvalues --    2.09198   2.09545   2.09928   2.10262   2.10539
 Alpha virt. eigenvalues --    2.11059   2.11874   2.12115   2.12653   2.12912
 Alpha virt. eigenvalues --    2.13651   2.14044   2.14682   2.15066   2.15577
 Alpha virt. eigenvalues --    2.15862   2.16265   2.16470   2.17268   2.17357
 Alpha virt. eigenvalues --    2.18278   2.18399   2.18713   2.19295   2.19389
 Alpha virt. eigenvalues --    2.20451   2.20532   2.20786   2.21270   2.21391
 Alpha virt. eigenvalues --    2.21479   2.22411   2.22841   2.23164   2.23956
 Alpha virt. eigenvalues --    2.23994   2.24337   2.24613   2.24841   2.25167
 Alpha virt. eigenvalues --    2.25779   2.26684   2.26995   2.27348   2.27518
 Alpha virt. eigenvalues --    2.28187   2.28275   2.28786   2.29173   2.29435
 Alpha virt. eigenvalues --    2.29841   2.30186   2.30472   2.31131   2.31339
 Alpha virt. eigenvalues --    2.31686   2.31971   2.32434   2.32574   2.33270
 Alpha virt. eigenvalues --    2.33367   2.34293   2.34488   2.35132   2.35724
 Alpha virt. eigenvalues --    2.36008   2.36592   2.36889   2.37116   2.37294
 Alpha virt. eigenvalues --    2.37696   2.37932   2.39166   2.39453   2.40162
 Alpha virt. eigenvalues --    2.40606   2.41030   2.41308   2.41977   2.42077
 Alpha virt. eigenvalues --    2.42212   2.42615   2.42747   2.43266   2.43876
 Alpha virt. eigenvalues --    2.44341   2.44524   2.44858   2.45326   2.45512
 Alpha virt. eigenvalues --    2.45844   2.47058   2.47723   2.47805   2.48809
 Alpha virt. eigenvalues --    2.49154   2.49253   2.50570   2.50731   2.52181
 Alpha virt. eigenvalues --    2.52706   2.52984   2.53800   2.54026   2.54691
 Alpha virt. eigenvalues --    2.54892   2.54989   2.55423   2.55692   2.55810
 Alpha virt. eigenvalues --    2.56274   2.56551   2.57605   2.58466   2.58560
 Alpha virt. eigenvalues --    2.59025   2.59711   2.60275   2.60743   2.60995
 Alpha virt. eigenvalues --    2.61452   2.61527   2.62403   2.63105   2.63311
 Alpha virt. eigenvalues --    2.63957   2.64241   2.64293   2.64874   2.65275
 Alpha virt. eigenvalues --    2.66726   2.67153   2.68794   2.68923   2.69309
 Alpha virt. eigenvalues --    2.69951   2.70418   2.71675   2.72735   2.73258
 Alpha virt. eigenvalues --    2.73433   2.74621   2.76021   2.76414   2.77305
 Alpha virt. eigenvalues --    2.77894   2.78567   2.79347   2.79977   2.80539
 Alpha virt. eigenvalues --    2.80827   2.81213   2.81749   2.82437   2.82640
 Alpha virt. eigenvalues --    2.83464   2.85339   2.85728   2.86447   2.87467
 Alpha virt. eigenvalues --    2.88403   2.90122   2.90952   2.92014   2.92418
 Alpha virt. eigenvalues --    2.92909   2.93558   2.93780   2.94070   2.94747
 Alpha virt. eigenvalues --    2.94912   2.95299   2.95873   2.96280   2.96397
 Alpha virt. eigenvalues --    2.96771   2.97075   2.97264   2.97580   2.98259
 Alpha virt. eigenvalues --    2.98852   2.99292   2.99436   3.00204   3.00386
 Alpha virt. eigenvalues --    3.00581   3.00956   3.01628   3.02096   3.02918
 Alpha virt. eigenvalues --    3.03176   3.03418   3.04132   3.04576   3.04926
 Alpha virt. eigenvalues --    3.05269   3.05630   3.06118   3.06356   3.06582
 Alpha virt. eigenvalues --    3.06832   3.07119   3.07576   3.07919   3.08619
 Alpha virt. eigenvalues --    3.09041   3.09066   3.09621   3.09894   3.10083
 Alpha virt. eigenvalues --    3.10530   3.10879   3.11201   3.11556   3.11763
 Alpha virt. eigenvalues --    3.12221   3.12522   3.12769   3.12963   3.13261
 Alpha virt. eigenvalues --    3.13805   3.14031   3.14494   3.14790   3.15111
 Alpha virt. eigenvalues --    3.15781   3.16124   3.16723   3.16868   3.17060
 Alpha virt. eigenvalues --    3.17697   3.17922   3.18426   3.18997   3.19368
 Alpha virt. eigenvalues --    3.19833   3.20514   3.21137   3.21672   3.24368
 Alpha virt. eigenvalues --    3.25002   3.26108   3.26868   3.27842   3.30755
 Alpha virt. eigenvalues --    3.32771   3.34952   3.36833   3.37401   3.38356
 Alpha virt. eigenvalues --    3.41130   3.42360   3.43134   3.43433   3.44954
 Alpha virt. eigenvalues --    3.46404   3.47655   3.48745   3.49330   3.50878
 Alpha virt. eigenvalues --    3.51578   3.51700   3.52279   3.52460   3.54042
 Alpha virt. eigenvalues --    3.55850   3.56414   3.56984   3.57881   3.59786
 Alpha virt. eigenvalues --    3.59978   3.61531   3.62601   3.62975   3.63854
 Alpha virt. eigenvalues --    3.64481   3.66278   3.66611   3.67922   3.68729
 Alpha virt. eigenvalues --    3.69298   3.70845   3.70901   3.71471   3.72664
 Alpha virt. eigenvalues --    3.74653   3.74814   3.76610   3.79024   3.79195
 Alpha virt. eigenvalues --    3.79995   3.81888   3.82341   3.82881   3.83581
 Alpha virt. eigenvalues --    3.84391   3.85326   3.86483   3.86682   3.87145
 Alpha virt. eigenvalues --    3.87638   3.88025   3.88908   3.89881   3.90391
 Alpha virt. eigenvalues --    3.91431   3.92135   3.95087   4.00669   4.06759
 Alpha virt. eigenvalues --    4.15456   4.20343   4.20398   4.22296   4.26177
 Alpha virt. eigenvalues --    4.27814   4.31126   4.31967   4.33662   4.36517
 Alpha virt. eigenvalues --    4.37042   4.37517   4.39392   4.42953   4.44170
 Alpha virt. eigenvalues --    4.47729   4.49448   4.51547   4.55601   4.61111
 Alpha virt. eigenvalues --    4.61374   4.62850   4.65063   4.69314   4.74684
 Alpha virt. eigenvalues --    4.77223   4.80991   4.86035   4.87599   4.95465
 Alpha virt. eigenvalues --    4.95778   4.99617   5.01812   5.04149   9.53045
 Alpha virt. eigenvalues --    9.54149   9.56815   9.60219   9.61894   9.64104
 Alpha virt. eigenvalues --    9.66499   9.69090   9.69963   9.72530  23.00103
 Alpha virt. eigenvalues --   23.20657  23.22153  23.23804  23.40058  23.43515
 Alpha virt. eigenvalues --   23.48829  23.52512  23.52879  23.60777  23.62417
 Alpha virt. eigenvalues --   23.66400  23.68464  23.70315  23.70657  23.71597
 Alpha virt. eigenvalues --   23.72655  23.73669  23.73998  23.76183  23.76602
 Alpha virt. eigenvalues --   23.77054  23.77718  23.79107  23.81098  23.82162
 Alpha virt. eigenvalues --   23.82601  23.84090  23.84936  23.85535  23.88699
 Alpha virt. eigenvalues --   23.88871  23.91962  23.92119  23.93224  23.94552
 Alpha virt. eigenvalues --   23.95018  23.95292  23.96144  23.96395  23.97110
 Alpha virt. eigenvalues --   23.98036  23.98337  23.98952  23.99092  24.00254
 Alpha virt. eigenvalues --   24.00746  24.02425  24.03080  24.03887  24.06441
 Alpha virt. eigenvalues --   24.07342  24.07605  24.07818  24.08404  24.08900
 Alpha virt. eigenvalues --   24.09730  24.10293  24.10678  24.11284  24.11742
 Alpha virt. eigenvalues --   24.13221  24.13713  24.14401  24.14713  24.24876
 Alpha virt. eigenvalues --   25.52315  25.56829  25.59336  25.60103  25.62291
 Alpha virt. eigenvalues --   25.66100  25.66980  25.72627  25.77289  25.78183
 Alpha virt. eigenvalues --   25.81448  25.84066  25.84922  25.86035  25.88363
 Alpha virt. eigenvalues --   25.88840  25.91595  25.93018  25.99134  26.08037
 Alpha virt. eigenvalues --   26.15722  26.24160  26.26723  26.33731  26.39274
 Alpha virt. eigenvalues --   26.42728  26.47085  26.55388  26.65367  26.65921
 Alpha virt. eigenvalues --  215.48045 215.49186 215.52317 215.56188 215.58218
 Alpha virt. eigenvalues --  215.60595 215.63488 215.66442 215.67320 215.70190
          Condensed to atoms (all electrons):
 Mulliken charges:
               1
     1  C   -0.266640
     2  C   -0.265569
     3  C   -0.261456
     4  C    0.128810
     5  C    0.354327
     6  C    0.107681
     7  C   -0.520489
     8  C    0.205959
     9  C    0.186383
    10  C    0.046327
    11  C    0.083964
    12  C   -0.430616
    13  C    0.156675
    14  C    0.111310
    15  C   -0.475353
    16  C    0.116555
    17  C    0.188899
    18  C   -0.489272
    19  C    0.194300
    20  C    0.254798
    21  C    0.144743
    22  C    0.186958
    23  C   -0.667479
    24  C    0.037981
    25  C   -0.006038
    26  C    0.000010
    27  C    0.086847
    28  C    0.012932
    29  C    0.079182
    30  C    0.030384
    31  C    0.011864
    32  C    0.106498
    33  C    0.161766
    34  C   -0.008218
    35  C   -0.676455
    36  C    0.175003
    37  C    0.170180
    38  C   -0.684012
    39  C    0.180641
    40  C    0.166551
    41  C    0.039315
    42  C    0.179432
    43  C    0.000751
    44  C    0.002478
    45  C   -0.006651
    46  C    0.003961
    47  C   -0.008205
    48  C    0.003493
    49  C   -0.006254
    50  C    0.001687
    51  C   -0.000494
    52  C    0.042005
    53  C    0.035055
    54  C    0.004865
    55  C    0.000456
    56  C    0.002285
    57  C    0.035620
    58  C    0.037648
    59  C    0.002884
    60  C    0.002333
    61  C    0.004656
    62  C    0.002659
    63  C    0.002173
    64  C    0.005554
    65  C    0.001808
    66  C    0.001268
    67  Cl   0.085834
    68  Cl   0.064828
    69  Cl   0.074419
    70  Cl   0.051353
    71  Cl   0.088395
    72  Cl   0.056958
    73  Cl   0.047543
    74  Cl   0.052726
    75  Cl   0.079050
    76  Cl   0.072179
 Sum of Mulliken charges =  -0.00000
 Mulliken charges with hydrogens summed into heavy atoms:
               1
     1  C   -0.266640
     2  C   -0.265569
     3  C   -0.261456
     4  C    0.128810
     5  C    0.354327
     6  C    0.107681
     7  C   -0.520489
     8  C    0.205959
     9  C    0.186383
    10  C    0.046327
    11  C    0.083964
    12  C   -0.430616
    13  C    0.156675
    14  C    0.111310
    15  C   -0.475353
    16  C    0.116555
    17  C    0.188899
    18  C   -0.489272
    19  C    0.194300
    20  C    0.254798
    21  C    0.144743
    22  C    0.186958
    23  C   -0.667479
    24  C    0.037981
    25  C   -0.006038
    26  C    0.000010
    27  C    0.086847
    28  C    0.012932
    29  C    0.079182
    30  C    0.030384
    31  C    0.011864
    32  C    0.106498
    33  C    0.161766
    34  C   -0.008218
    35  C   -0.676455
    36  C    0.175003
    37  C    0.170180
    38  C   -0.684012
    39  C    0.180641
    40  C    0.166551
    41  C    0.039315
    42  C    0.179432
    43  C    0.000751
    44  C    0.002478
    45  C   -0.006651
    46  C    0.003961
    47  C   -0.008205
    48  C    0.003493
    49  C   -0.006254
    50  C    0.001687
    51  C   -0.000494
    52  C    0.042005
    53  C    0.035055
    54  C    0.004865
    55  C    0.000456
    56  C    0.002285
    57  C    0.035620
    58  C    0.037648
    59  C    0.002884
    60  C    0.002333
    61  C    0.004656
    62  C    0.002659
    63  C    0.002173
    64  C    0.005554
    65  C    0.001808
    66  C    0.001268
    67  Cl   0.085834
    68  Cl   0.064828
    69  Cl   0.074419
    70  Cl   0.051353
    71  Cl   0.088395
    72  Cl   0.056958
    73  Cl   0.047543
    74  Cl   0.052726
    75  Cl   0.079050
    76  Cl   0.072179
 Electronic spatial extent (au):  <R**2>=          39699.4031
 Charge=             -0.0000 electrons
 Dipole moment (field-independent basis, Debye):
    X=              4.5645    Y=             -2.8673    Z=             -2.5606  Tot=              5.9677
 Quadrupole moment (field-independent basis, Debye-Ang):
   XX=           -511.8937   YY=           -509.0356   ZZ=           -504.9267
   XY=             -8.5330   XZ=             -5.1659   YZ=             -3.3878
 Traceless Quadrupole moment (field-independent basis, Debye-Ang):
   XX=             -3.2750   YY=             -0.4169   ZZ=              3.6919
   XY=             -8.5330   XZ=             -5.1659   YZ=             -3.3878
 Octapole moment (field-independent basis, Debye-Ang**2):
  XXX=            -80.9957  YYY=             34.9567  ZZZ=             16.9971  XYY=            -47.8958
  XXY=             22.8925  XXZ=             18.5553  XZZ=            -48.6427  YZZ=             22.5966
  YYZ=             28.2879  XYZ=            -14.0854
 Hexadecapole moment (field-independent basis, Debye-Ang**3):
 XXXX=         -24703.9153 YYYY=         -16651.4399 ZZZZ=         -15784.3003 XXXY=             50.2141
 XXXZ=             25.0950 YYYX=             35.6157 YYYZ=             38.8622 ZZZX=             59.4907
 ZZZY=             26.0262 XXYY=          -6937.0058 XXZZ=          -6756.5032 YYZZ=          -5370.0790
 XXYZ=            -27.3308 YYXZ=              2.5517 ZZXY=              4.8250
 N-N= 1.698459154566D+04 E-N=-5.073273644552D+04  KE= 7.096709765688D+03
 No NMR shielding tensors so no spin-rotation constants.
 Leave Link  601 at Fri Jul 15 08:34:09 2022, MaxMem=  1342177280 cpu:              63.6 elap:               1.6
 (Enter /home/mkliu/g16/l9999.exe)
 1\1\GINC-NODE05\FOpt\RB3LYP\6-311G(d,p)\C66Cl10\MKLIU\15-Jul-2022\0\\#
 P opt b3lyp/6-311G(d, p) empiricaldispersion=GD3\\force\\0,1\C,-1.2912
 123938,1.8855217128,-3.977018421\C,0.2264506884,2.2724043045,-3.989085
 7201\C,1.0262956948,0.9349001961,-4.4215844287\C,-1.1867535553,0.40794
 64188,-3.8540662221\C,-0.0142501993,-0.1214714154,-4.1860425298\C,-2.0
 782246324,-0.1314982838,-2.8705171816\C,-2.1881898268,2.2828024323,-2.
 6942482211\C,-2.6295902292,0.913826342,-2.1386542662\C,-1.46005166,2.9
 555043286,-1.5393383036\C,0.7187902124,2.514975146,-2.6066697597\C,-0.
 0417318492,3.1623772226,-1.5834553393\C,2.2007219833,0.7834309704,-3.3
 246089275\C,1.865373214,1.8325021414,-2.3110350257\C,2.2436708928,-0.5
 433629197,-2.5645870032\C,0.2882640684,-1.534833435,-3.882622257\C,1.4
 341244965,-1.5992928394,-2.9124051654\C,-1.8754261919,-1.3983080133,-2
 .3378485777\C,-0.9044322073,-2.3207752994,-3.0819741179\C,-2.379891292
 8,-1.6729267765,-1.0587963533\C,-3.0448346944,0.6883522083,-0.82733591
 84\C,-2.9763438972,-0.6246147079,-0.3016486449\C,-2.0864917126,2.91796
 29846,-0.3055513695\C,-3.2102159361,1.9216486711,0.0519276385\C,-1.385
 0456634,3.2544837942,0.8876368223\C,0.6547357331,3.4236399451,-0.39417
 63042\C,-0.0285579617,3.5689147104,0.8525614578\C,2.4481552672,1.85005
 94981,-1.0098987733\C,1.933906669,2.8093230921,-0.1268276231\C,2.92014
 1367,-0.5815039691,-1.2664778616\C,3.0942097417,0.6537733248,-0.493153
 5013\C,2.9156751939,-1.7979093441,-0.5526935851\C,1.2412147546,-2.7196
 00596,-2.057142154\C,-0.133959699,-3.1026188729,-2.0509031047\C,2.0366
 166302,-2.8708811841,-0.9362240294\C,-2.0823390776,-3.041451691,-0.433
 7645833\C,-0.7004586857,-3.5141443725,-0.8764158718\C,-1.911375752,-2.
 931096701,1.0676767249\C,-3.3615402638,-0.8606952699,1.1613868068\C,-2
 .508295807,-1.9454937003,1.7968432374\C,-2.8994665774,1.6064418917,1.4
 977302826\C,-1.9130655543,2.505251364,2.0066435183\C,-3.00936451,0.349
 0711276,2.0149483091\C,-1.0833946335,2.13596725,3.0657355598\C,0.84657
 04619,3.1279001913,1.9189943809\C,2.0686474884,2.6672880116,1.29753983
 36\C,0.3347087285,2.450048869,3.0176493666\C,3.2858431815,0.5724820847
 ,0.9018075205\C,2.7500757793,1.5755146334,1.8041795271\C,3.036447659,-
 1.8535082771,0.8860176943\C,3.2328367049,-0.6901524649,1.6034691639\C,
 1.4950998077,-3.4789356141,0.2438714387\C,0.1215754431,-3.7413049371,0
 .2733620444\C,-0.6343187699,-3.4418729212,1.4664870463\C,2.1406463998,
 -2.8781340065,1.3885355633\C,0.0087834338,-2.9557885058,2.606958553\C,
 1.4302769509,-2.6569301507,2.5632415041\C,-1.8735429308,-1.4496546884,
 2.980955486\C,-2.1764570917,-0.0439653319,3.1111238769\C,-1.2301855214
 ,0.8319707295,3.6481181066\C,-0.6348345392,-1.9433257339,3.3951817682\
 C,1.0600936061,1.3275304555,3.5776777257\C,2.264243742,0.9137788888,2.
 9976872904\C,2.5645325371,-0.4928212445,2.8736938868\C,1.6535673173,-1
 .4491247059,3.3310342005\C,0.0911502758,0.3343598974,3.9968040902\C,0.
 3807994009,-1.0204694909,3.8753643659\Cl,-2.0914535436,2.2256633402,-5
 .5607789254\Cl,0.6164430602,3.7527110727,-4.9457174762\Cl,1.5819091932
 ,0.9303289017,-6.1298018744\Cl,3.8796287357,1.086973095,-4.0044683483\
 Cl,-3.6000555387,3.344805252,-3.1360982163\Cl,-4.9188298204,2.60119187
 36,-0.0547228959\Cl,-5.1613535945,-1.2675384975,1.2440576003\Cl,-3.435
 9535132,-4.213758206,-0.8666090401\Cl,-1.9262415997,-3.3776791692,-4.1
 572683357\Cl,0.7803366477,-2.4342175665,-5.4049391064\\Version=ES64L-G
 16RevA.03\State=1-A\HF=-7117.714717\RMSD=8.203e-09\RMSF=1.734e-05\Dipo
 le=1.1056785,-0.062359,2.0702677\Quadrupole=-4.1716079,3.3829858,0.788
 6221,-2.5776767,6.6019686,1.7767468\PG=C01 [X(C66Cl10)]\\@


 FORGIVE MY NONSENSE AS I ALSO FORGIVE THOSE WHO THINK THEY TALK SENSE

                                                       -- ROBERT FROST
 Job cpu time:       3 days  9 hours 56 minutes 11.7 seconds.
 Elapsed time:       0 days  1 hours 42 minutes 39.5 seconds.
 File lengths (MBytes):  RWF=   1283 Int=      0 D2E=      0 Chk=    157 Scr=      1
 Normal termination of Gaussian 16 at Fri Jul 15 08:34:11 2022.
