 Entering Gaussian System, Link 0=g16
 Input=drh5xkow5b18g_addon_10.gjf
 Output=drh5xkow5b18g_addon_10.log
 Initial command:
 /home/mkliu/g16/l1.exe "/data/scratch/Gau-171891.inp" -scrdir="/data/scratch/"
 Entering Link 1 = /home/mkliu/g16/l1.exe PID=    171892.
  
 Copyright (c) 1988,1990,1992,1993,1995,1998,2003,2009,2016,
            Gaussian, Inc.  All Rights Reserved.
  
 This is part of the Gaussian(R) 16 program.  It is based on
 the Gaussian(R) 09 system (copyright 2009, Gaussian, Inc.),
 the Gaussian(R) 03 system (copyright 2003, Gaussian, Inc.),
 the Gaussian(R) 98 system (copyright 1998, Gaussian, Inc.),
 the Gaussian(R) 94 system (copyright 1995, Gaussian, Inc.),
 the Gaussian 92(TM) system (copyright 1992, Gaussian, Inc.),
 the Gaussian 90(TM) system (copyright 1990, Gaussian, Inc.),
 the Gaussian 88(TM) system (copyright 1988, Gaussian, Inc.),
 the Gaussian 86(TM) system (copyright 1986, Carnegie Mellon
 University), and the Gaussian 82(TM) system (copyright 1983,
 Carnegie Mellon University). Gaussian is a federally registered
 trademark of Gaussian, Inc.
  
 This software contains proprietary and confidential information,
 including trade secrets, belonging to Gaussian, Inc.
  
 This software is provided under written license and may be
 used, copied, transmitted, or stored only in accord with that
 written license.
  
 The following legend is applicable only to US Government
 contracts under FAR:
  
                    RESTRICTED RIGHTS LEGEND
  
 Use, reproduction and disclosure by the US Government is
 subject to restrictions as set forth in subparagraphs (a)
 and (c) of the Commercial Computer Software - Restricted
 Rights clause in FAR 52.227-19.
  
 Gaussian, Inc.
 340 Quinnipiac St., Bldg. 40, Wallingford CT 06492
  
  
 ---------------------------------------------------------------
 Warning -- This program may not be used in any manner that
 competes with the business of Gaussian, Inc. or will provide
 assistance to any competitor of Gaussian, Inc.  The licensee
 of this program is prohibited from giving any competitor of
 Gaussian, Inc. access to this program.  By using this program,
 the user acknowledges that Gaussian, Inc. is engaged in the
 business of creating and licensing software in the field of
 computational chemistry and represents and warrants to the
 licensee that it is not a competitor of Gaussian, Inc. and that
 it will not use this program in any manner prohibited above.
 ---------------------------------------------------------------
  

 Cite this work as:
 Gaussian 16, Revision A.03,
 M. J. Frisch, G. W. Trucks, H. B. Schlegel, G. E. Scuseria, 
 M. A. Robb, J. R. Cheeseman, G. Scalmani, V. Barone, 
 G. A. Petersson, H. Nakatsuji, X. Li, M. Caricato, A. V. Marenich, 
 J. Bloino, B. G. Janesko, R. Gomperts, B. Mennucci, H. P. Hratchian, 
 J. V. Ortiz, A. F. Izmaylov, J. L. Sonnenberg, D. Williams-Young, 
 F. Ding, F. Lipparini, F. Egidi, J. Goings, B. Peng, A. Petrone, 
 T. Henderson, D. Ranasinghe, V. G. Zakrzewski, J. Gao, N. Rega, 
 G. Zheng, W. Liang, M. Hada, M. Ehara, K. Toyota, R. Fukuda, 
 J. Hasegawa, M. Ishida, T. Nakajima, Y. Honda, O. Kitao, H. Nakai, 
 T. Vreven, K. Throssell, J. A. Montgomery, Jr., J. E. Peralta, 
 F. Ogliaro, M. J. Bearpark, J. J. Heyd, E. N. Brothers, K. N. Kudin, 
 V. N. Staroverov, T. A. Keith, R. Kobayashi, J. Normand, 
 K. Raghavachari, A. P. Rendell, J. C. Burant, S. S. Iyengar, 
 J. Tomasi, M. Cossi, J. M. Millam, M. Klene, C. Adamo, R. Cammi, 
 J. W. Ochterski, R. L. Martin, K. Morokuma, O. Farkas, 
 J. B. Foresman, and D. J. Fox, Gaussian, Inc., Wallingford CT, 2016.
 
 ******************************************
 Gaussian 16:  ES64L-G16RevA.03 25-Dec-2016
                14-Jul-2022 
 ******************************************
 %mem=10GB
 %chk=drh5xkow5b18g_addon_10.chk
 %nprocshared=48
 Will use up to   48 processors via shared memory.
 -------------------------------------------------
 #P opt b3lyp/6-311G(d, p) empiricaldispersion=GD3
 -------------------------------------------------
 1/18=20,19=15,26=3,38=1/1,3;
 2/9=110,12=2,17=6,18=5,40=1/2;
 3/5=4,6=6,7=101,11=2,25=1,30=1,71=1,74=-5,124=31/1,2,3;
 4//1;
 5/5=2,38=5/2;
 6/7=2,8=2,9=2,10=2,28=1/1;
 7//1,2,3,16;
 1/18=20,19=15,26=3/3(2);
 2/9=110/2;
 99//99;
 2/9=110/2;
 3/5=4,6=6,7=101,11=2,25=1,30=1,71=1,74=-5,124=31/1,2,3;
 4/5=5,16=3,69=1/1;
 5/5=2,38=5/2;
 7//1,2,3,16;
 1/18=20,19=15,26=3/3(-5);
 2/9=110/2;
 6/7=2,8=2,9=2,10=2,19=2,28=1/1;
 99/9=1/99;
 Leave Link    1 at Thu Jul 14 23:31:01 2022, MaxMem=  1342177280 cpu:               2.2 elap:               0.1
 (Enter /home/mkliu/g16/l101.exe)
 -----
 force
 -----
 Symbolic Z-matrix:
 Charge =  0 Multiplicity = 1
 C                    -1.33663   1.89523  -3.93042 
 C                     0.18276   2.28197  -4.07573 
 C                     0.9361    0.91322  -4.28044 
 C                    -1.26368   0.4107   -3.82469 
 C                    -0.10093  -0.14378  -4.1666 
 C                    -2.1428   -0.10156  -2.84293 
 C                    -2.15053   2.26865  -2.66288 
 C                    -2.65762   0.93077  -2.132 
 C                    -1.36187   2.85259  -1.52186 
 C                     0.83941   2.89144  -2.79185 
 C                    -0.00244   3.1889   -1.57668 
 C                     1.7301    0.69322  -3.02092 
 C                     1.74335   1.81935  -2.2405 
 C                     2.06507  -0.53593  -2.47578 
 C                     0.19795  -1.54844  -3.84964 
 C                     1.59639  -1.80353  -3.17626 
 C                    -1.91059  -1.41409  -2.32964 
 C                    -0.78517  -2.07165  -2.82636 
 C                    -2.46924  -1.71513  -1.04279 
 C                    -3.1202    0.68702  -0.79594 
 C                    -3.1008   -0.66003  -0.27796 
 C                    -2.01111   2.8043   -0.30069 
 C                    -2.97496   1.76289   0.0633 
 C                    -1.36342   3.20029   0.88575 
 C                     0.68004   3.41341  -0.39005 
 C                    -0.00968   3.47549   0.83906 
 C                     2.33441   1.81061  -0.98801 
 C                     2.11895   3.02459  -0.11938 
 C                     2.71591  -0.56372  -1.23526 
 C                     2.87067   0.62255  -0.49556 
 C                     3.09523  -1.90542  -0.62457 
 C                     1.28     -2.80954  -2.10478 
 C                    -0.13604  -3.01382  -2.01353 
 C                     2.00993  -2.8876   -0.97062 
 C                    -1.93256  -2.82063  -0.36931 
 C                    -0.72876  -3.43336  -0.83619 
 C                    -1.95119  -2.91796   1.05765 
 C                    -3.16229  -0.8118    1.12111 
 C                    -2.56769  -1.93145   1.79152 
 C                    -2.92042   1.58097   1.47284 
 C                    -1.93313   2.4886    1.99385 
 C                    -3.05364   0.31076   2.00473 
 C                    -1.12744   2.08536   3.03606 
 C                     0.83118   3.04348   1.90752 
 C                     2.06958   2.64326   1.32906 
 C                     0.28232   2.37579   2.98357 
 C                     3.45313   0.59208   0.90862 
 C                     2.7088    1.54569   1.80243 
 C                     2.99159  -1.86695   0.87302 
 C                     3.17711  -0.72287   1.578 
 C                     1.42688  -3.44154   0.21954 
 C                     0.08282  -3.75098   0.28214 
 C                    -0.68859  -3.47257   1.46578 
 C                     2.05729  -2.84175   1.34486 
 C                    -0.06594  -2.95419   2.58003 
 C                     1.33483  -2.63746   2.50904 
 C                    -1.97199  -1.47606   3.01965 
 C                    -2.26858  -0.07661   3.1476 
 C                    -1.30654   0.78732   3.63629 
 C                    -0.72819  -1.95721   3.37755 
 C                     0.98149   1.26114   3.5252 
 C                     2.16968   0.86167   2.9368 
 C                     2.46081  -0.52521   2.80303 
 C                     1.54902  -1.4544    3.265 
 C                     0.0067    0.29765   3.95636 
 C                     0.29116  -1.04871   3.82992 
 Cl                   -2.27291   2.22067  -5.42557 
 Cl                    0.38093   3.33404  -5.48433 
 Cl                    1.94671   0.75835  -5.72672 
 Cl                    2.86246  -2.33849  -4.31001 
 Cl                    4.74729  -2.36119  -1.17988 
 Cl                    5.21234   0.97159   0.74871 
 Cl                    3.38541   4.26264  -0.41123 
 Cl                    1.78796   4.36444  -3.19026 
 Cl                   -3.49378   3.41703  -3.00155 
 Cl                    0.05182  -2.55238  -5.37287 
 
 ITRead=  0  0  0  0  0  0  0  0  0  0  0  0  0  0  0  0  0  0  0  0
 ITRead=  0  0  0  0  0  0  0  0  0  0  0  0  0  0  0  0  0  0  0  0
 ITRead=  0  0  0  0  0  0  0  0  0  0  0  0  0  0  0  0  0  0  0  0
 ITRead=  0  0  0  0  0  0  0  0  0  0  0  0  0  0  0  0
 MicOpt= -1 -1 -1 -1 -1 -1 -1 -1 -1 -1 -1 -1 -1 -1 -1 -1 -1 -1 -1 -1
 MicOpt= -1 -1 -1 -1 -1 -1 -1 -1 -1 -1 -1 -1 -1 -1 -1 -1 -1 -1 -1 -1
 MicOpt= -1 -1 -1 -1 -1 -1 -1 -1 -1 -1 -1 -1 -1 -1 -1 -1 -1 -1 -1 -1
 MicOpt= -1 -1 -1 -1 -1 -1 -1 -1 -1 -1 -1 -1 -1 -1 -1 -1
 NAtoms=     76 NQM=       76 NQMF=       0 NMMI=      0 NMMIF=      0
                NMic=       0 NMicF=      0.
                    Isotopes and Nuclear Properties:
 (Nuclear quadrupole moments (NQMom) in fm**2, nuclear magnetic moments (NMagM)
  in nuclear magnetons)

  Atom         1           2           3           4           5           6           7           8           9          10
 IAtWgt=          12          12          12          12          12          12          12          12          12          12
 AtmWgt=  12.0000000  12.0000000  12.0000000  12.0000000  12.0000000  12.0000000  12.0000000  12.0000000  12.0000000  12.0000000
 NucSpn=           0           0           0           0           0           0           0           0           0           0
 AtZEff=  -0.0000000  -0.0000000  -0.0000000  -0.0000000  -0.0000000  -0.0000000  -0.0000000  -0.0000000  -0.0000000  -0.0000000
 NQMom=    0.0000000   0.0000000   0.0000000   0.0000000   0.0000000   0.0000000   0.0000000   0.0000000   0.0000000   0.0000000
 NMagM=    0.0000000   0.0000000   0.0000000   0.0000000   0.0000000   0.0000000   0.0000000   0.0000000   0.0000000   0.0000000
 AtZNuc=   6.0000000   6.0000000   6.0000000   6.0000000   6.0000000   6.0000000   6.0000000   6.0000000   6.0000000   6.0000000

  Atom        11          12          13          14          15          16          17          18          19          20
 IAtWgt=          12          12          12          12          12          12          12          12          12          12
 AtmWgt=  12.0000000  12.0000000  12.0000000  12.0000000  12.0000000  12.0000000  12.0000000  12.0000000  12.0000000  12.0000000
 NucSpn=           0           0           0           0           0           0           0           0           0           0
 AtZEff=  -0.0000000  -0.0000000  -0.0000000  -0.0000000  -0.0000000  -0.0000000  -0.0000000  -0.0000000  -0.0000000  -0.0000000
 NQMom=    0.0000000   0.0000000   0.0000000   0.0000000   0.0000000   0.0000000   0.0000000   0.0000000   0.0000000   0.0000000
 NMagM=    0.0000000   0.0000000   0.0000000   0.0000000   0.0000000   0.0000000   0.0000000   0.0000000   0.0000000   0.0000000
 AtZNuc=   6.0000000   6.0000000   6.0000000   6.0000000   6.0000000   6.0000000   6.0000000   6.0000000   6.0000000   6.0000000

  Atom        21          22          23          24          25          26          27          28          29          30
 IAtWgt=          12          12          12          12          12          12          12          12          12          12
 AtmWgt=  12.0000000  12.0000000  12.0000000  12.0000000  12.0000000  12.0000000  12.0000000  12.0000000  12.0000000  12.0000000
 NucSpn=           0           0           0           0           0           0           0           0           0           0
 AtZEff=  -0.0000000  -0.0000000  -0.0000000  -0.0000000  -0.0000000  -0.0000000  -0.0000000  -0.0000000  -0.0000000  -0.0000000
 NQMom=    0.0000000   0.0000000   0.0000000   0.0000000   0.0000000   0.0000000   0.0000000   0.0000000   0.0000000   0.0000000
 NMagM=    0.0000000   0.0000000   0.0000000   0.0000000   0.0000000   0.0000000   0.0000000   0.0000000   0.0000000   0.0000000
 AtZNuc=   6.0000000   6.0000000   6.0000000   6.0000000   6.0000000   6.0000000   6.0000000   6.0000000   6.0000000   6.0000000

  Atom        31          32          33          34          35          36          37          38          39          40
 IAtWgt=          12          12          12          12          12          12          12          12          12          12
 AtmWgt=  12.0000000  12.0000000  12.0000000  12.0000000  12.0000000  12.0000000  12.0000000  12.0000000  12.0000000  12.0000000
 NucSpn=           0           0           0           0           0           0           0           0           0           0
 AtZEff=  -0.0000000  -0.0000000  -0.0000000  -0.0000000  -0.0000000  -0.0000000  -0.0000000  -0.0000000  -0.0000000  -0.0000000
 NQMom=    0.0000000   0.0000000   0.0000000   0.0000000   0.0000000   0.0000000   0.0000000   0.0000000   0.0000000   0.0000000
 NMagM=    0.0000000   0.0000000   0.0000000   0.0000000   0.0000000   0.0000000   0.0000000   0.0000000   0.0000000   0.0000000
 AtZNuc=   6.0000000   6.0000000   6.0000000   6.0000000   6.0000000   6.0000000   6.0000000   6.0000000   6.0000000   6.0000000

  Atom        41          42          43          44          45          46          47          48          49          50
 IAtWgt=          12          12          12          12          12          12          12          12          12          12
 AtmWgt=  12.0000000  12.0000000  12.0000000  12.0000000  12.0000000  12.0000000  12.0000000  12.0000000  12.0000000  12.0000000
 NucSpn=           0           0           0           0           0           0           0           0           0           0
 AtZEff=  -0.0000000  -0.0000000  -0.0000000  -0.0000000  -0.0000000  -0.0000000  -0.0000000  -0.0000000  -0.0000000  -0.0000000
 NQMom=    0.0000000   0.0000000   0.0000000   0.0000000   0.0000000   0.0000000   0.0000000   0.0000000   0.0000000   0.0000000
 NMagM=    0.0000000   0.0000000   0.0000000   0.0000000   0.0000000   0.0000000   0.0000000   0.0000000   0.0000000   0.0000000
 AtZNuc=   6.0000000   6.0000000   6.0000000   6.0000000   6.0000000   6.0000000   6.0000000   6.0000000   6.0000000   6.0000000

  Atom        51          52          53          54          55          56          57          58          59          60
 IAtWgt=          12          12          12          12          12          12          12          12          12          12
 AtmWgt=  12.0000000  12.0000000  12.0000000  12.0000000  12.0000000  12.0000000  12.0000000  12.0000000  12.0000000  12.0000000
 NucSpn=           0           0           0           0           0           0           0           0           0           0
 AtZEff=  -0.0000000  -0.0000000  -0.0000000  -0.0000000  -0.0000000  -0.0000000  -0.0000000  -0.0000000  -0.0000000  -0.0000000
 NQMom=    0.0000000   0.0000000   0.0000000   0.0000000   0.0000000   0.0000000   0.0000000   0.0000000   0.0000000   0.0000000
 NMagM=    0.0000000   0.0000000   0.0000000   0.0000000   0.0000000   0.0000000   0.0000000   0.0000000   0.0000000   0.0000000
 AtZNuc=   6.0000000   6.0000000   6.0000000   6.0000000   6.0000000   6.0000000   6.0000000   6.0000000   6.0000000   6.0000000

  Atom        61          62          63          64          65          66          67          68          69          70
 IAtWgt=          12          12          12          12          12          12          35          35          35          35
 AtmWgt=  12.0000000  12.0000000  12.0000000  12.0000000  12.0000000  12.0000000  34.9688527  34.9688527  34.9688527  34.9688527
 NucSpn=           0           0           0           0           0           0           3           3           3           3
 AtZEff=  -0.0000000  -0.0000000  -0.0000000  -0.0000000  -0.0000000  -0.0000000  -0.0000000  -0.0000000  -0.0000000  -0.0000000
 NQMom=    0.0000000   0.0000000   0.0000000   0.0000000   0.0000000   0.0000000  -8.1650000  -8.1650000  -8.1650000  -8.1650000
 NMagM=    0.0000000   0.0000000   0.0000000   0.0000000   0.0000000   0.0000000   0.8218740   0.8218740   0.8218740   0.8218740
 AtZNuc=   6.0000000   6.0000000   6.0000000   6.0000000   6.0000000   6.0000000  17.0000000  17.0000000  17.0000000  17.0000000

  Atom        71          72          73          74          75          76
 IAtWgt=          35          35          35          35          35          35
 AtmWgt=  34.9688527  34.9688527  34.9688527  34.9688527  34.9688527  34.9688527
 NucSpn=           3           3           3           3           3           3
 AtZEff=  -0.0000000  -0.0000000  -0.0000000  -0.0000000  -0.0000000  -0.0000000
 NQMom=   -8.1650000  -8.1650000  -8.1650000  -8.1650000  -8.1650000  -8.1650000
 NMagM=    0.8218740   0.8218740   0.8218740   0.8218740   0.8218740   0.8218740
 AtZNuc=  17.0000000  17.0000000  17.0000000  17.0000000  17.0000000  17.0000000
 Leave Link  101 at Thu Jul 14 23:31:02 2022, MaxMem=  1342177280 cpu:              12.9 elap:               0.3
 (Enter /home/mkliu/g16/l103.exe)

 GradGradGradGradGradGradGradGradGradGradGradGradGradGradGradGradGradGrad
 Berny optimization.
 Initialization pass.
                           ----------------------------
                           !    Initial Parameters    !
                           ! (Angstroms and Degrees)  !
 --------------------------                            --------------------------
 ! Name  Definition              Value          Derivative Info.                !
 --------------------------------------------------------------------------------
 ! R1    R(1,2)                  1.5746         estimate D2E/DX2                !
 ! R2    R(1,4)                  1.4901         estimate D2E/DX2                !
 ! R3    R(1,7)                  1.5519         estimate D2E/DX2                !
 ! R4    R(1,67)                 1.7939         estimate D2E/DX2                !
 ! R5    R(2,3)                  1.5757         estimate D2E/DX2                !
 ! R6    R(2,10)                 1.5656         estimate D2E/DX2                !
 ! R7    R(2,68)                 1.7693         estimate D2E/DX2                !
 ! R8    R(3,5)                  1.4851         estimate D2E/DX2                !
 ! R9    R(3,12)                 1.5051         estimate D2E/DX2                !
 ! R10   R(3,69)                 1.7712         estimate D2E/DX2                !
 ! R11   R(4,5)                  1.3328         estimate D2E/DX2                !
 ! R12   R(4,6)                  1.4139         estimate D2E/DX2                !
 ! R13   R(5,15)                 1.4707         estimate D2E/DX2                !
 ! R14   R(6,8)                  1.3551         estimate D2E/DX2                !
 ! R15   R(6,17)                 1.4283         estimate D2E/DX2                !
 ! R16   R(7,8)                  1.5261         estimate D2E/DX2                !
 ! R17   R(7,9)                  1.505          estimate D2E/DX2                !
 ! R18   R(7,75)                 1.7994         estimate D2E/DX2                !
 ! R19   R(8,20)                 1.4347         estimate D2E/DX2                !
 ! R20   R(9,11)                 1.4015         estimate D2E/DX2                !
 ! R21   R(9,22)                 1.3839         estimate D2E/DX2                !
 ! R22   R(10,11)                1.5079         estimate D2E/DX2                !
 ! R23   R(10,13)                1.5068         estimate D2E/DX2                !
 ! R24   R(10,74)                1.7967         estimate D2E/DX2                !
 ! R25   R(11,25)                1.3872         estimate D2E/DX2                !
 ! R26   R(12,13)                1.3702         estimate D2E/DX2                !
 ! R27   R(12,14)                1.3857         estimate D2E/DX2                !
 ! R28   R(13,27)                1.385          estimate D2E/DX2                !
 ! R29   R(14,16)                1.5222         estimate D2E/DX2                !
 ! R30   R(14,29)                1.4012         estimate D2E/DX2                !
 ! R31   R(15,16)                1.5729         estimate D2E/DX2                !
 ! R32   R(15,18)                1.5124         estimate D2E/DX2                !
 ! R33   R(15,76)                1.8302         estimate D2E/DX2                !
 ! R34   R(16,32)                1.5034         estimate D2E/DX2                !
 ! R35   R(16,70)                1.7817         estimate D2E/DX2                !
 ! R36   R(17,18)                1.3949         estimate D2E/DX2                !
 ! R37   R(17,19)                1.4348         estimate D2E/DX2                !
 ! R38   R(18,33)                1.4035         estimate D2E/DX2                !
 ! R39   R(19,21)                1.4481         estimate D2E/DX2                !
 ! R40   R(19,35)                1.4013         estimate D2E/DX2                !
 ! R41   R(20,21)                1.4433         estimate D2E/DX2                !
 ! R42   R(20,23)                1.3845         estimate D2E/DX2                !
 ! R43   R(21,38)                1.4086         estimate D2E/DX2                !
 ! R44   R(22,23)                1.4649         estimate D2E/DX2                !
 ! R45   R(22,24)                1.4085         estimate D2E/DX2                !
 ! R46   R(23,40)                1.4223         estimate D2E/DX2                !
 ! R47   R(24,26)                1.3822         estimate D2E/DX2                !
 ! R48   R(24,41)                1.4349         estimate D2E/DX2                !
 ! R49   R(25,26)                1.4108         estimate D2E/DX2                !
 ! R50   R(25,28)                1.5149         estimate D2E/DX2                !
 ! R51   R(26,44)                1.4266         estimate D2E/DX2                !
 ! R52   R(27,28)                1.5082         estimate D2E/DX2                !
 ! R53   R(27,30)                1.3934         estimate D2E/DX2                !
 ! R54   R(28,45)                1.4986         estimate D2E/DX2                !
 ! R55   R(28,73)                1.7949         estimate D2E/DX2                !
 ! R56   R(29,30)                1.4065         estimate D2E/DX2                !
 ! R57   R(29,31)                1.5222         estimate D2E/DX2                !
 ! R58   R(30,47)                1.5205         estimate D2E/DX2                !
 ! R59   R(31,34)                1.5041         estimate D2E/DX2                !
 ! R60   R(31,49)                1.5017         estimate D2E/DX2                !
 ! R61   R(31,71)                1.8015         estimate D2E/DX2                !
 ! R62   R(32,33)                1.4336         estimate D2E/DX2                !
 ! R63   R(32,34)                1.351          estimate D2E/DX2                !
 ! R64   R(33,36)                1.3833         estimate D2E/DX2                !
 ! R65   R(34,51)                1.4364         estimate D2E/DX2                !
 ! R66   R(35,36)                1.4292         estimate D2E/DX2                !
 ! R67   R(35,37)                1.4304         estimate D2E/DX2                !
 ! R68   R(36,52)                1.4178         estimate D2E/DX2                !
 ! R69   R(37,39)                1.3754         estimate D2E/DX2                !
 ! R70   R(37,53)                1.4382         estimate D2E/DX2                !
 ! R71   R(38,39)                1.4341         estimate D2E/DX2                !
 ! R72   R(38,42)                1.4327         estimate D2E/DX2                !
 ! R73   R(39,57)                1.4389         estimate D2E/DX2                !
 ! R74   R(40,41)                1.4387         estimate D2E/DX2                !
 ! R75   R(40,42)                1.3835         estimate D2E/DX2                !
 ! R76   R(41,43)                1.3777         estimate D2E/DX2                !
 ! R77   R(42,58)                1.4396         estimate D2E/DX2                !
 ! R78   R(43,46)                1.4403         estimate D2E/DX2                !
 ! R79   R(43,59)                1.4413         estimate D2E/DX2                !
 ! R80   R(44,45)                1.4242         estimate D2E/DX2                !
 ! R81   R(44,46)                1.3802         estimate D2E/DX2                !
 ! R82   R(45,48)                1.3555         estimate D2E/DX2                !
 ! R83   R(46,61)                1.4229         estimate D2E/DX2                !
 ! R84   R(47,48)                1.5041         estimate D2E/DX2                !
 ! R85   R(47,50)                1.5011         estimate D2E/DX2                !
 ! R86   R(47,72)                1.8068         estimate D2E/DX2                !
 ! R87   R(48,62)                1.4302         estimate D2E/DX2                !
 ! R88   R(49,50)                1.3566         estimate D2E/DX2                !
 ! R89   R(49,54)                1.4303         estimate D2E/DX2                !
 ! R90   R(50,63)                1.4328         estimate D2E/DX2                !
 ! R91   R(51,52)                1.3806         estimate D2E/DX2                !
 ! R92   R(51,54)                1.4225         estimate D2E/DX2                !
 ! R93   R(52,53)                1.44           estimate D2E/DX2                !
 ! R94   R(53,55)                1.3777         estimate D2E/DX2                !
 ! R95   R(54,56)                1.3853         estimate D2E/DX2                !
 ! R96   R(55,56)                1.4379         estimate D2E/DX2                !
 ! R97   R(55,60)                1.4383         estimate D2E/DX2                !
 ! R98   R(56,64)                1.4202         estimate D2E/DX2                !
 ! R99   R(57,58)                1.4362         estimate D2E/DX2                !
 ! R100  R(57,60)                1.3808         estimate D2E/DX2                !
 ! R101  R(58,59)                1.3823         estimate D2E/DX2                !
 ! R102  R(59,65)                1.4376         estimate D2E/DX2                !
 ! R103  R(60,66)                1.4384         estimate D2E/DX2                !
 ! R104  R(61,62)                1.3848         estimate D2E/DX2                !
 ! R105  R(61,65)                1.4368         estimate D2E/DX2                !
 ! R106  R(62,63)                1.4234         estimate D2E/DX2                !
 ! R107  R(63,64)                1.3814         estimate D2E/DX2                !
 ! R108  R(64,66)                1.4373         estimate D2E/DX2                !
 ! R109  R(65,66)                1.3819         estimate D2E/DX2                !
 ! A1    A(2,1,4)              101.7723         estimate D2E/DX2                !
 ! A2    A(2,1,7)              121.4893         estimate D2E/DX2                !
 ! A3    A(2,1,67)             112.4679         estimate D2E/DX2                !
 ! A4    A(4,1,7)              101.9726         estimate D2E/DX2                !
 ! A5    A(4,1,67)             105.3924         estimate D2E/DX2                !
 ! A6    A(7,1,67)             111.3063         estimate D2E/DX2                !
 ! A7    A(1,2,3)              105.068          estimate D2E/DX2                !
 ! A8    A(1,2,10)             115.1301         estimate D2E/DX2                !
 ! A9    A(1,2,68)             109.1241         estimate D2E/DX2                !
 ! A10   A(3,2,10)             104.1332         estimate D2E/DX2                !
 ! A11   A(3,2,68)             111.0725         estimate D2E/DX2                !
 ! A12   A(10,2,68)            111.9895         estimate D2E/DX2                !
 ! A13   A(2,3,5)              105.9287         estimate D2E/DX2                !
 ! A14   A(2,3,12)             105.6921         estimate D2E/DX2                !
 ! A15   A(2,3,69)             117.0541         estimate D2E/DX2                !
 ! A16   A(5,3,12)             101.5481         estimate D2E/DX2                !
 ! A17   A(5,3,69)             113.5026         estimate D2E/DX2                !
 ! A18   A(12,3,69)            111.6878         estimate D2E/DX2                !
 ! A19   A(1,4,5)              116.0391         estimate D2E/DX2                !
 ! A20   A(1,4,6)              112.3203         estimate D2E/DX2                !
 ! A21   A(5,4,6)              124.7389         estimate D2E/DX2                !
 ! A22   A(3,5,4)              109.4359         estimate D2E/DX2                !
 ! A23   A(3,5,15)             123.6686         estimate D2E/DX2                !
 ! A24   A(4,5,15)             121.2899         estimate D2E/DX2                !
 ! A25   A(4,6,8)              108.936          estimate D2E/DX2                !
 ! A26   A(4,6,17)             118.7754         estimate D2E/DX2                !
 ! A27   A(8,6,17)             124.9804         estimate D2E/DX2                !
 ! A28   A(1,7,8)              104.326          estimate D2E/DX2                !
 ! A29   A(1,7,9)              115.9609         estimate D2E/DX2                !
 ! A30   A(1,7,75)             113.0379         estimate D2E/DX2                !
 ! A31   A(8,7,9)              104.51           estimate D2E/DX2                !
 ! A32   A(8,7,75)             112.1436         estimate D2E/DX2                !
 ! A33   A(9,7,75)             106.6347         estimate D2E/DX2                !
 ! A34   A(6,8,7)              111.047          estimate D2E/DX2                !
 ! A35   A(6,8,20)             118.7923         estimate D2E/DX2                !
 ! A36   A(7,8,20)             125.452          estimate D2E/DX2                !
 ! A37   A(7,9,11)             124.8743         estimate D2E/DX2                !
 ! A38   A(7,9,22)             114.1822         estimate D2E/DX2                !
 ! A39   A(11,9,22)            119.865          estimate D2E/DX2                !
 ! A40   A(2,10,11)            120.2316         estimate D2E/DX2                !
 ! A41   A(2,10,13)            105.9445         estimate D2E/DX2                !
 ! A42   A(2,10,74)            111.0229         estimate D2E/DX2                !
 ! A43   A(11,10,13)           100.3934         estimate D2E/DX2                !
 ! A44   A(11,10,74)           108.162          estimate D2E/DX2                !
 ! A45   A(13,10,74)           110.3487         estimate D2E/DX2                !
 ! A46   A(9,11,10)            121.7162         estimate D2E/DX2                !
 ! A47   A(9,11,25)            118.8557         estimate D2E/DX2                !
 ! A48   A(10,11,25)           116.5262         estimate D2E/DX2                !
 ! A49   A(3,12,13)            111.1995         estimate D2E/DX2                !
 ! A50   A(3,12,14)            125.9018         estimate D2E/DX2                !
 ! A51   A(13,12,14)           120.1734         estimate D2E/DX2                !
 ! A52   A(10,13,12)           111.7499         estimate D2E/DX2                !
 ! A53   A(10,13,27)           126.257          estimate D2E/DX2                !
 ! A54   A(12,13,27)           120.9328         estimate D2E/DX2                !
 ! A55   A(12,14,16)           118.8944         estimate D2E/DX2                !
 ! A56   A(12,14,29)           118.5661         estimate D2E/DX2                !
 ! A57   A(16,14,29)           122.2699         estimate D2E/DX2                !
 ! A58   A(5,15,16)            115.3307         estimate D2E/DX2                !
 ! A59   A(5,15,18)            110.1288         estimate D2E/DX2                !
 ! A60   A(5,15,76)            109.1675         estimate D2E/DX2                !
 ! A61   A(16,15,18)           103.4248         estimate D2E/DX2                !
 ! A62   A(16,15,76)           109.7754         estimate D2E/DX2                !
 ! A63   A(18,15,76)           108.7505         estimate D2E/DX2                !
 ! A64   A(14,16,15)           109.6143         estimate D2E/DX2                !
 ! A65   A(14,16,32)           107.1012         estimate D2E/DX2                !
 ! A66   A(14,16,70)           108.9084         estimate D2E/DX2                !
 ! A67   A(15,16,32)           103.0929         estimate D2E/DX2                !
 ! A68   A(15,16,70)           114.0817         estimate D2E/DX2                !
 ! A69   A(32,16,70)           113.7121         estimate D2E/DX2                !
 ! A70   A(6,17,18)            115.8737         estimate D2E/DX2                !
 ! A71   A(6,17,19)            116.8596         estimate D2E/DX2                !
 ! A72   A(18,17,19)           122.318          estimate D2E/DX2                !
 ! A73   A(15,18,17)           127.0361         estimate D2E/DX2                !
 ! A74   A(15,18,33)           108.8707         estimate D2E/DX2                !
 ! A75   A(17,18,33)           118.907          estimate D2E/DX2                !
 ! A76   A(17,19,21)           119.3819         estimate D2E/DX2                !
 ! A77   A(17,19,35)           116.5794         estimate D2E/DX2                !
 ! A78   A(21,19,35)           119.2076         estimate D2E/DX2                !
 ! A79   A(8,20,21)            119.2367         estimate D2E/DX2                !
 ! A80   A(8,20,23)            114.3357         estimate D2E/DX2                !
 ! A81   A(21,20,23)           120.073          estimate D2E/DX2                !
 ! A82   A(19,21,20)           119.7561         estimate D2E/DX2                !
 ! A83   A(19,21,38)           117.7174         estimate D2E/DX2                !
 ! A84   A(20,21,38)           117.156          estimate D2E/DX2                !
 ! A85   A(9,22,23)            123.5549         estimate D2E/DX2                !
 ! A86   A(9,22,24)            121.1819         estimate D2E/DX2                !
 ! A87   A(23,22,24)           107.0443         estimate D2E/DX2                !
 ! A88   A(20,23,22)           117.8551         estimate D2E/DX2                !
 ! A89   A(20,23,40)           121.3103         estimate D2E/DX2                !
 ! A90   A(22,23,40)           108.1765         estimate D2E/DX2                !
 ! A91   A(22,24,26)           118.5468         estimate D2E/DX2                !
 ! A92   A(22,24,41)           109.1762         estimate D2E/DX2                !
 ! A93   A(26,24,41)           120.9099         estimate D2E/DX2                !
 ! A94   A(11,25,26)           120.7879         estimate D2E/DX2                !
 ! A95   A(11,25,28)           125.353          estimate D2E/DX2                !
 ! A96   A(26,25,28)           108.6631         estimate D2E/DX2                !
 ! A97   A(24,26,25)           119.9666         estimate D2E/DX2                !
 ! A98   A(24,26,44)           119.4501         estimate D2E/DX2                !
 ! A99   A(25,26,44)           110.5499         estimate D2E/DX2                !
 ! A100  A(13,27,28)           117.0519         estimate D2E/DX2                !
 ! A101  A(13,27,30)           119.29           estimate D2E/DX2                !
 ! A102  A(28,27,30)           122.5294         estimate D2E/DX2                !
 ! A103  A(25,28,27)           103.8503         estimate D2E/DX2                !
 ! A104  A(25,28,45)           101.9295         estimate D2E/DX2                !
 ! A105  A(25,28,73)           117.6514         estimate D2E/DX2                !
 ! A106  A(27,28,45)           110.8883         estimate D2E/DX2                !
 ! A107  A(27,28,73)           111.1458         estimate D2E/DX2                !
 ! A108  A(45,28,73)           110.8487         estimate D2E/DX2                !
 ! A109  A(14,29,30)           119.9992         estimate D2E/DX2                !
 ! A110  A(14,29,31)           119.2379         estimate D2E/DX2                !
 ! A111  A(30,29,31)           120.3311         estimate D2E/DX2                !
 ! A112  A(27,30,29)           119.3998         estimate D2E/DX2                !
 ! A113  A(27,30,47)           119.3993         estimate D2E/DX2                !
 ! A114  A(29,30,47)           120.7251         estimate D2E/DX2                !
 ! A115  A(29,31,34)           107.6661         estimate D2E/DX2                !
 ! A116  A(29,31,49)           111.1206         estimate D2E/DX2                !
 ! A117  A(29,31,71)           109.1392         estimate D2E/DX2                !
 ! A118  A(34,31,49)           101.3246         estimate D2E/DX2                !
 ! A119  A(34,31,71)           115.1872         estimate D2E/DX2                !
 ! A120  A(49,31,71)           112.1595         estimate D2E/DX2                !
 ! A121  A(16,32,33)           110.4005         estimate D2E/DX2                !
 ! A122  A(16,32,34)           121.5521         estimate D2E/DX2                !
 ! A123  A(33,32,34)           118.1644         estimate D2E/DX2                !
 ! A124  A(18,33,32)           108.9251         estimate D2E/DX2                !
 ! A125  A(18,33,36)           119.891          estimate D2E/DX2                !
 ! A126  A(32,33,36)           121.3744         estimate D2E/DX2                !
 ! A127  A(31,34,32)           123.0425         estimate D2E/DX2                !
 ! A128  A(31,34,51)           110.7375         estimate D2E/DX2                !
 ! A129  A(32,34,51)           119.9042         estimate D2E/DX2                !
 ! A130  A(19,35,36)           120.2524         estimate D2E/DX2                !
 ! A131  A(19,35,37)           121.8799         estimate D2E/DX2                !
 ! A132  A(36,35,37)           107.9196         estimate D2E/DX2                !
 ! A133  A(33,36,35)           120.5922         estimate D2E/DX2                !
 ! A134  A(33,36,52)           119.6042         estimate D2E/DX2                !
 ! A135  A(35,36,52)           108.6946         estimate D2E/DX2                !
 ! A136  A(35,37,39)           119.2946         estimate D2E/DX2                !
 ! A137  A(35,37,53)           107.3321         estimate D2E/DX2                !
 ! A138  A(39,37,53)           121.2438         estimate D2E/DX2                !
 ! A139  A(21,38,39)           122.0281         estimate D2E/DX2                !
 ! A140  A(21,38,42)           121.6566         estimate D2E/DX2                !
 ! A141  A(39,38,42)           106.9752         estimate D2E/DX2                !
 ! A142  A(37,39,38)           119.7609         estimate D2E/DX2                !
 ! A143  A(37,39,57)           119.7893         estimate D2E/DX2                !
 ! A144  A(38,39,57)           108.8781         estimate D2E/DX2                !
 ! A145  A(23,40,41)           107.7285         estimate D2E/DX2                !
 ! A146  A(23,40,42)           119.6535         estimate D2E/DX2                !
 ! A147  A(41,40,42)           120.4004         estimate D2E/DX2                !
 ! A148  A(24,41,40)           107.7998         estimate D2E/DX2                !
 ! A149  A(24,41,43)           119.8141         estimate D2E/DX2                !
 ! A150  A(40,41,43)           119.3817         estimate D2E/DX2                !
 ! A151  A(38,42,40)           119.3103         estimate D2E/DX2                !
 ! A152  A(38,42,58)           108.6714         estimate D2E/DX2                !
 ! A153  A(40,42,58)           119.9823         estimate D2E/DX2                !
 ! A154  A(41,43,46)           119.0667         estimate D2E/DX2                !
 ! A155  A(41,43,59)           120.3971         estimate D2E/DX2                !
 ! A156  A(46,43,59)           108.5671         estimate D2E/DX2                !
 ! A157  A(26,44,45)           107.0616         estimate D2E/DX2                !
 ! A158  A(26,44,46)           119.7362         estimate D2E/DX2                !
 ! A159  A(45,44,46)           121.7693         estimate D2E/DX2                !
 ! A160  A(28,45,44)           110.4692         estimate D2E/DX2                !
 ! A161  A(28,45,48)           121.8728         estimate D2E/DX2                !
 ! A162  A(44,45,48)           119.7191         estimate D2E/DX2                !
 ! A163  A(43,46,44)           121.0104         estimate D2E/DX2                !
 ! A164  A(43,46,61)           108.0058         estimate D2E/DX2                !
 ! A165  A(44,46,61)           118.7067         estimate D2E/DX2                !
 ! A166  A(30,47,48)           110.2745         estimate D2E/DX2                !
 ! A167  A(30,47,50)           111.0343         estimate D2E/DX2                !
 ! A168  A(30,47,72)           106.6812         estimate D2E/DX2                !
 ! A169  A(48,47,50)           101.5017         estimate D2E/DX2                !
 ! A170  A(48,47,72)           113.6569         estimate D2E/DX2                !
 ! A171  A(50,47,72)           113.7346         estimate D2E/DX2                !
 ! A172  A(45,48,47)           122.6304         estimate D2E/DX2                !
 ! A173  A(45,48,62)           119.1113         estimate D2E/DX2                !
 ! A174  A(47,48,62)           110.7726         estimate D2E/DX2                !
 ! A175  A(31,49,50)           122.0339         estimate D2E/DX2                !
 ! A176  A(31,49,54)           110.893          estimate D2E/DX2                !
 ! A177  A(50,49,54)           119.5159         estimate D2E/DX2                !
 ! A178  A(47,50,49)           122.1524         estimate D2E/DX2                !
 ! A179  A(47,50,63)           110.6306         estimate D2E/DX2                !
 ! A180  A(49,50,63)           119.4916         estimate D2E/DX2                !
 ! A181  A(34,51,52)           121.2757         estimate D2E/DX2                !
 ! A182  A(34,51,54)           108.2386         estimate D2E/DX2                !
 ! A183  A(52,51,54)           119.3443         estimate D2E/DX2                !
 ! A184  A(36,52,51)           118.1172         estimate D2E/DX2                !
 ! A185  A(36,52,53)           107.3607         estimate D2E/DX2                !
 ! A186  A(51,52,53)           121.0278         estimate D2E/DX2                !
 ! A187  A(37,53,52)           108.1562         estimate D2E/DX2                !
 ! A188  A(37,53,55)           118.764          estimate D2E/DX2                !
 ! A189  A(52,53,55)           119.6988         estimate D2E/DX2                !
 ! A190  A(49,54,51)           108.4139         estimate D2E/DX2                !
 ! A191  A(49,54,56)           121.1582         estimate D2E/DX2                !
 ! A192  A(51,54,56)           119.7278         estimate D2E/DX2                !
 ! A193  A(53,55,56)           118.8973         estimate D2E/DX2                !
 ! A194  A(53,55,60)           120.0796         estimate D2E/DX2                !
 ! A195  A(56,55,60)           108.8603         estimate D2E/DX2                !
 ! A196  A(54,56,55)           121.1362         estimate D2E/DX2                !
 ! A197  A(54,56,64)           119.4409         estimate D2E/DX2                !
 ! A198  A(55,56,64)           107.7057         estimate D2E/DX2                !
 ! A199  A(39,57,58)           107.3923         estimate D2E/DX2                !
 ! A200  A(39,57,60)           118.9375         estimate D2E/DX2                !
 ! A201  A(58,57,60)           120.1625         estimate D2E/DX2                !
 ! A202  A(42,58,57)           107.7022         estimate D2E/DX2                !
 ! A203  A(42,58,59)           119.4736         estimate D2E/DX2                !
 ! A204  A(57,58,59)           119.7862         estimate D2E/DX2                !
 ! A205  A(43,59,58)           120.1419         estimate D2E/DX2                !
 ! A206  A(43,59,65)           106.6164         estimate D2E/DX2                !
 ! A207  A(58,59,65)           120.1045         estimate D2E/DX2                !
 ! A208  A(55,60,57)           120.8364         estimate D2E/DX2                !
 ! A209  A(55,60,66)           106.6122         estimate D2E/DX2                !
 ! A210  A(57,60,66)           119.9847         estimate D2E/DX2                !
 ! A211  A(46,61,62)           119.0686         estimate D2E/DX2                !
 ! A212  A(46,61,65)           107.8281         estimate D2E/DX2                !
 ! A213  A(62,61,65)           121.0767         estimate D2E/DX2                !
 ! A214  A(48,62,61)           121.5007         estimate D2E/DX2                !
 ! A215  A(48,62,63)           108.3229         estimate D2E/DX2                !
 ! A216  A(61,62,63)           119.7689         estimate D2E/DX2                !
 ! A217  A(50,63,62)           108.4829         estimate D2E/DX2                !
 ! A218  A(50,63,64)           121.5423         estimate D2E/DX2                !
 ! A219  A(62,63,64)           119.273          estimate D2E/DX2                !
 ! A220  A(56,64,63)           118.808          estimate D2E/DX2                !
 ! A221  A(56,64,66)           108.2007         estimate D2E/DX2                !
 ! A222  A(63,64,66)           121.2801         estimate D2E/DX2                !
 ! A223  A(59,65,61)           108.9364         estimate D2E/DX2                !
 ! A224  A(59,65,66)           119.9682         estimate D2E/DX2                !
 ! A225  A(61,65,66)           119.0932         estimate D2E/DX2                !
 ! A226  A(60,66,64)           108.5598         estimate D2E/DX2                !
 ! A227  A(60,66,65)           119.8848         estimate D2E/DX2                !
 ! A228  A(64,66,65)           119.4131         estimate D2E/DX2                !
 ! D1    D(4,1,2,3)              9.3901         estimate D2E/DX2                !
 ! D2    D(4,1,2,10)          -104.5383         estimate D2E/DX2                !
 ! D3    D(4,1,2,68)           128.5634         estimate D2E/DX2                !
 ! D4    D(7,1,2,3)            121.4857         estimate D2E/DX2                !
 ! D5    D(7,1,2,10)             7.5574         estimate D2E/DX2                !
 ! D6    D(7,1,2,68)          -119.3409         estimate D2E/DX2                !
 ! D7    D(67,1,2,3)          -102.9182         estimate D2E/DX2                !
 ! D8    D(67,1,2,10)          143.1534         estimate D2E/DX2                !
 ! D9    D(67,1,2,68)           16.2551         estimate D2E/DX2                !
 ! D10   D(2,1,4,5)            -14.1522         estimate D2E/DX2                !
 ! D11   D(2,1,4,6)            138.2429         estimate D2E/DX2                !
 ! D12   D(7,1,4,5)           -140.2823         estimate D2E/DX2                !
 ! D13   D(7,1,4,6)             12.1127         estimate D2E/DX2                !
 ! D14   D(67,1,4,5)           103.3818         estimate D2E/DX2                !
 ! D15   D(67,1,4,6)          -104.2231         estimate D2E/DX2                !
 ! D16   D(2,1,7,8)           -122.0821         estimate D2E/DX2                !
 ! D17   D(2,1,7,9)             -7.7544         estimate D2E/DX2                !
 ! D18   D(2,1,7,75)           115.8217         estimate D2E/DX2                !
 ! D19   D(4,1,7,8)            -10.0904         estimate D2E/DX2                !
 ! D20   D(4,1,7,9)            104.2372         estimate D2E/DX2                !
 ! D21   D(4,1,7,75)          -132.1867         estimate D2E/DX2                !
 ! D22   D(67,1,7,8)           101.8684         estimate D2E/DX2                !
 ! D23   D(67,1,7,9)          -143.8039         estimate D2E/DX2                !
 ! D24   D(67,1,7,75)          -20.2278         estimate D2E/DX2                !
 ! D25   D(1,2,3,5)             -3.261          estimate D2E/DX2                !
 ! D26   D(1,2,3,12)          -110.504          estimate D2E/DX2                !
 ! D27   D(1,2,3,69)           124.4317         estimate D2E/DX2                !
 ! D28   D(10,2,3,5)           118.1594         estimate D2E/DX2                !
 ! D29   D(10,2,3,12)           10.9165         estimate D2E/DX2                !
 ! D30   D(10,2,3,69)         -114.1479         estimate D2E/DX2                !
 ! D31   D(68,2,3,5)          -121.1222         estimate D2E/DX2                !
 ! D32   D(68,2,3,12)          131.6349         estimate D2E/DX2                !
 ! D33   D(68,2,3,69)            6.5705         estimate D2E/DX2                !
 ! D34   D(1,2,10,11)           -5.6163         estimate D2E/DX2                !
 ! D35   D(1,2,10,13)          106.9435         estimate D2E/DX2                !
 ! D36   D(1,2,10,74)         -133.2392         estimate D2E/DX2                !
 ! D37   D(3,2,10,11)         -120.0865         estimate D2E/DX2                !
 ! D38   D(3,2,10,13)           -7.5266         estimate D2E/DX2                !
 ! D39   D(3,2,10,74)          112.2906         estimate D2E/DX2                !
 ! D40   D(68,2,10,11)         119.8115         estimate D2E/DX2                !
 ! D41   D(68,2,10,13)        -127.6286         estimate D2E/DX2                !
 ! D42   D(68,2,10,74)          -7.8113         estimate D2E/DX2                !
 ! D43   D(2,3,5,4)             -5.1649         estimate D2E/DX2                !
 ! D44   D(2,3,5,15)          -158.9064         estimate D2E/DX2                !
 ! D45   D(12,3,5,4)           105.0409         estimate D2E/DX2                !
 ! D46   D(12,3,5,15)          -48.7006         estimate D2E/DX2                !
 ! D47   D(69,3,5,4)          -134.9486         estimate D2E/DX2                !
 ! D48   D(69,3,5,15)           71.31           estimate D2E/DX2                !
 ! D49   D(2,3,12,13)          -10.9931         estimate D2E/DX2                !
 ! D50   D(2,3,12,14)          150.149          estimate D2E/DX2                !
 ! D51   D(5,3,12,13)         -121.3801         estimate D2E/DX2                !
 ! D52   D(5,3,12,14)           39.762          estimate D2E/DX2                !
 ! D53   D(69,3,12,13)         117.3346         estimate D2E/DX2                !
 ! D54   D(69,3,12,14)         -81.5232         estimate D2E/DX2                !
 ! D55   D(1,4,5,3)             12.7502         estimate D2E/DX2                !
 ! D56   D(1,4,5,15)           167.2267         estimate D2E/DX2                !
 ! D57   D(6,4,5,3)           -135.8081         estimate D2E/DX2                !
 ! D58   D(6,4,5,15)            18.6684         estimate D2E/DX2                !
 ! D59   D(1,4,6,8)             -9.256          estimate D2E/DX2                !
 ! D60   D(1,4,6,17)          -160.8869         estimate D2E/DX2                !
 ! D61   D(5,4,6,8)            140.3035         estimate D2E/DX2                !
 ! D62   D(5,4,6,17)           -11.3274         estimate D2E/DX2                !
 ! D63   D(3,5,15,16)           19.3483         estimate D2E/DX2                !
 ! D64   D(3,5,15,18)          135.9041         estimate D2E/DX2                !
 ! D65   D(3,5,15,76)         -104.7649         estimate D2E/DX2                !
 ! D66   D(4,5,15,16)         -131.4278         estimate D2E/DX2                !
 ! D67   D(4,5,15,18)          -14.8721         estimate D2E/DX2                !
 ! D68   D(4,5,15,76)          104.4589         estimate D2E/DX2                !
 ! D69   D(4,6,8,7)              1.8457         estimate D2E/DX2                !
 ! D70   D(4,6,8,20)          -155.1736         estimate D2E/DX2                !
 ! D71   D(17,6,8,7)           151.295          estimate D2E/DX2                !
 ! D72   D(17,6,8,20)           -5.7243         estimate D2E/DX2                !
 ! D73   D(4,6,17,18)            1.9455         estimate D2E/DX2                !
 ! D74   D(4,6,17,19)          157.6815         estimate D2E/DX2                !
 ! D75   D(8,6,17,18)         -144.7884         estimate D2E/DX2                !
 ! D76   D(8,6,17,19)           10.9476         estimate D2E/DX2                !
 ! D77   D(1,7,8,6)              5.6127         estimate D2E/DX2                !
 ! D78   D(1,7,8,20)           160.7765         estimate D2E/DX2                !
 ! D79   D(9,7,8,6)           -116.5813         estimate D2E/DX2                !
 ! D80   D(9,7,8,20)            38.5825         estimate D2E/DX2                !
 ! D81   D(75,7,8,6)           128.2955         estimate D2E/DX2                !
 ! D82   D(75,7,8,20)          -76.5408         estimate D2E/DX2                !
 ! D83   D(1,7,9,11)             6.2714         estimate D2E/DX2                !
 ! D84   D(1,7,9,22)          -161.7722         estimate D2E/DX2                !
 ! D85   D(8,7,9,11)           120.4942         estimate D2E/DX2                !
 ! D86   D(8,7,9,22)           -47.5494         estimate D2E/DX2                !
 ! D87   D(75,7,9,11)         -120.5799         estimate D2E/DX2                !
 ! D88   D(75,7,9,22)           71.3764         estimate D2E/DX2                !
 ! D89   D(6,8,20,21)           -3.7694         estimate D2E/DX2                !
 ! D90   D(6,8,20,23)          148.2862         estimate D2E/DX2                !
 ! D91   D(7,8,20,21)         -157.1986         estimate D2E/DX2                !
 ! D92   D(7,8,20,23)           -5.143          estimate D2E/DX2                !
 ! D93   D(7,9,11,10)           -4.7018         estimate D2E/DX2                !
 ! D94   D(7,9,11,25)         -164.7486         estimate D2E/DX2                !
 ! D95   D(22,9,11,10)         162.7108         estimate D2E/DX2                !
 ! D96   D(22,9,11,25)           2.6641         estimate D2E/DX2                !
 ! D97   D(7,9,22,23)           29.9557         estimate D2E/DX2                !
 ! D98   D(7,9,22,24)          174.2987         estimate D2E/DX2                !
 ! D99   D(11,9,22,23)        -138.7418         estimate D2E/DX2                !
 ! D100  D(11,9,22,24)           5.6012         estimate D2E/DX2                !
 ! D101  D(2,10,11,9)            4.3176         estimate D2E/DX2                !
 ! D102  D(2,10,11,25)         164.803          estimate D2E/DX2                !
 ! D103  D(13,10,11,9)        -111.1587         estimate D2E/DX2                !
 ! D104  D(13,10,11,25)         49.3267         estimate D2E/DX2                !
 ! D105  D(74,10,11,9)         133.2315         estimate D2E/DX2                !
 ! D106  D(74,10,11,25)        -66.2831         estimate D2E/DX2                !
 ! D107  D(2,10,13,12)           1.1403         estimate D2E/DX2                !
 ! D108  D(2,10,13,27)        -167.076          estimate D2E/DX2                !
 ! D109  D(11,10,13,12)        126.9276         estimate D2E/DX2                !
 ! D110  D(11,10,13,27)        -41.2887         estimate D2E/DX2                !
 ! D111  D(74,10,13,12)       -119.1172         estimate D2E/DX2                !
 ! D112  D(74,10,13,27)         72.6665         estimate D2E/DX2                !
 ! D113  D(9,11,25,26)          -8.1678         estimate D2E/DX2                !
 ! D114  D(9,11,25,28)         143.4046         estimate D2E/DX2                !
 ! D115  D(10,11,25,26)       -169.2358         estimate D2E/DX2                !
 ! D116  D(10,11,25,28)        -17.6634         estimate D2E/DX2                !
 ! D117  D(3,12,13,10)           6.3219         estimate D2E/DX2                !
 ! D118  D(3,12,13,27)         175.2535         estimate D2E/DX2                !
 ! D119  D(14,12,13,10)       -156.0492         estimate D2E/DX2                !
 ! D120  D(14,12,13,27)         12.8824         estimate D2E/DX2                !
 ! D121  D(3,12,14,16)          -0.5978         estimate D2E/DX2                !
 ! D122  D(3,12,14,29)        -174.772          estimate D2E/DX2                !
 ! D123  D(13,12,14,16)        159.0019         estimate D2E/DX2                !
 ! D124  D(13,12,14,29)        -15.1723         estimate D2E/DX2                !
 ! D125  D(10,13,27,28)         -3.7284         estimate D2E/DX2                !
 ! D126  D(10,13,27,30)        164.4397         estimate D2E/DX2                !
 ! D127  D(12,13,27,28)       -170.9529         estimate D2E/DX2                !
 ! D128  D(12,13,27,30)         -2.7849         estimate D2E/DX2                !
 ! D129  D(12,14,16,15)        -33.2895         estimate D2E/DX2                !
 ! D130  D(12,14,16,32)       -144.4664         estimate D2E/DX2                !
 ! D131  D(12,14,16,70)         92.1577         estimate D2E/DX2                !
 ! D132  D(29,14,16,15)        140.6584         estimate D2E/DX2                !
 ! D133  D(29,14,16,32)         29.4815         estimate D2E/DX2                !
 ! D134  D(29,14,16,70)        -93.8944         estimate D2E/DX2                !
 ! D135  D(12,14,29,30)          7.724          estimate D2E/DX2                !
 ! D136  D(12,14,29,31)       -179.79           estimate D2E/DX2                !
 ! D137  D(16,14,29,30)       -166.243          estimate D2E/DX2                !
 ! D138  D(16,14,29,31)          6.243          estimate D2E/DX2                !
 ! D139  D(5,15,16,14)          24.0934         estimate D2E/DX2                !
 ! D140  D(5,15,16,32)         137.8836         estimate D2E/DX2                !
 ! D141  D(5,15,16,70)         -98.3243         estimate D2E/DX2                !
 ! D142  D(18,15,16,14)        -96.1994         estimate D2E/DX2                !
 ! D143  D(18,15,16,32)         17.5907         estimate D2E/DX2                !
 ! D144  D(18,15,16,70)        141.3829         estimate D2E/DX2                !
 ! D145  D(76,15,16,14)        147.8875         estimate D2E/DX2                !
 ! D146  D(76,15,16,32)        -98.3224         estimate D2E/DX2                !
 ! D147  D(76,15,16,70)         25.4698         estimate D2E/DX2                !
 ! D148  D(5,15,18,17)           6.4531         estimate D2E/DX2                !
 ! D149  D(5,15,18,33)        -147.4252         estimate D2E/DX2                !
 ! D150  D(16,15,18,17)        130.2299         estimate D2E/DX2                !
 ! D151  D(16,15,18,33)        -23.6484         estimate D2E/DX2                !
 ! D152  D(76,15,18,17)       -113.1315         estimate D2E/DX2                !
 ! D153  D(76,15,18,33)         92.9902         estimate D2E/DX2                !
 ! D154  D(14,16,32,33)        108.9548         estimate D2E/DX2                !
 ! D155  D(14,16,32,34)        -36.0622         estimate D2E/DX2                !
 ! D156  D(15,16,32,33)         -6.6488         estimate D2E/DX2                !
 ! D157  D(15,16,32,34)       -151.6658         estimate D2E/DX2                !
 ! D158  D(70,16,32,33)       -130.6846         estimate D2E/DX2                !
 ! D159  D(70,16,32,34)         84.2984         estimate D2E/DX2                !
 ! D160  D(6,17,18,15)          -0.5268         estimate D2E/DX2                !
 ! D161  D(6,17,18,33)         151.0547         estimate D2E/DX2                !
 ! D162  D(19,17,18,15)       -154.8173         estimate D2E/DX2                !
 ! D163  D(19,17,18,33)         -3.2359         estimate D2E/DX2                !
 ! D164  D(6,17,19,21)          -6.546          estimate D2E/DX2                !
 ! D165  D(6,17,19,35)        -161.7616         estimate D2E/DX2                !
 ! D166  D(18,17,19,21)        147.508          estimate D2E/DX2                !
 ! D167  D(18,17,19,35)         -7.7076         estimate D2E/DX2                !
 ! D168  D(15,18,33,32)         20.3321         estimate D2E/DX2                !
 ! D169  D(15,18,33,36)        166.6278         estimate D2E/DX2                !
 ! D170  D(17,18,33,32)       -135.9974         estimate D2E/DX2                !
 ! D171  D(17,18,33,36)         10.2983         estimate D2E/DX2                !
 ! D172  D(17,19,21,20)         -2.1365         estimate D2E/DX2                !
 ! D173  D(17,19,21,38)       -155.5483         estimate D2E/DX2                !
 ! D174  D(35,19,21,20)        152.427          estimate D2E/DX2                !
 ! D175  D(35,19,21,38)         -0.9848         estimate D2E/DX2                !
 ! D176  D(17,19,35,36)         11.7216         estimate D2E/DX2                !
 ! D177  D(17,19,35,37)        153.1853         estimate D2E/DX2                !
 ! D178  D(21,19,35,36)       -143.5391         estimate D2E/DX2                !
 ! D179  D(21,19,35,37)         -2.0754         estimate D2E/DX2                !
 ! D180  D(8,20,21,19)           7.5001         estimate D2E/DX2                !
 ! D181  D(8,20,21,38)         161.0573         estimate D2E/DX2                !
 ! D182  D(23,20,21,19)       -142.9361         estimate D2E/DX2                !
 ! D183  D(23,20,21,38)         10.6211         estimate D2E/DX2                !
 ! D184  D(8,20,23,22)         -20.0338         estimate D2E/DX2                !
 ! D185  D(8,20,23,40)        -157.2915         estimate D2E/DX2                !
 ! D186  D(21,20,23,22)        131.7679         estimate D2E/DX2                !
 ! D187  D(21,20,23,40)         -5.4898         estimate D2E/DX2                !
 ! D188  D(19,21,38,39)          3.0768         estimate D2E/DX2                !
 ! D189  D(19,21,38,42)        145.2873         estimate D2E/DX2                !
 ! D190  D(20,21,38,39)       -151.0297         estimate D2E/DX2                !
 ! D191  D(20,21,38,42)         -8.8193         estimate D2E/DX2                !
 ! D192  D(9,22,23,20)           8.0321         estimate D2E/DX2                !
 ! D193  D(9,22,23,40)         150.4199         estimate D2E/DX2                !
 ! D194  D(24,22,23,20)       -140.5266         estimate D2E/DX2                !
 ! D195  D(24,22,23,40)          1.8612         estimate D2E/DX2                !
 ! D196  D(9,22,24,26)          -8.2918         estimate D2E/DX2                !
 ! D197  D(9,22,24,41)        -152.2248         estimate D2E/DX2                !
 ! D198  D(23,22,24,26)        141.1704         estimate D2E/DX2                !
 ! D199  D(23,22,24,41)         -2.7626         estimate D2E/DX2                !
 ! D200  D(20,23,40,41)        140.5837         estimate D2E/DX2                !
 ! D201  D(20,23,40,42)         -1.9148         estimate D2E/DX2                !
 ! D202  D(22,23,40,41)         -0.2496         estimate D2E/DX2                !
 ! D203  D(22,23,40,42)       -142.7482         estimate D2E/DX2                !
 ! D204  D(22,24,26,25)          2.7502         estimate D2E/DX2                !
 ! D205  D(22,24,26,44)       -139.516          estimate D2E/DX2                !
 ! D206  D(41,24,26,25)        142.3509         estimate D2E/DX2                !
 ! D207  D(41,24,26,44)          0.0847         estimate D2E/DX2                !
 ! D208  D(22,24,41,40)          2.6441         estimate D2E/DX2                !
 ! D209  D(22,24,41,43)        143.7107         estimate D2E/DX2                !
 ! D210  D(26,24,41,40)       -140.2878         estimate D2E/DX2                !
 ! D211  D(26,24,41,43)          0.7788         estimate D2E/DX2                !
 ! D212  D(11,25,26,24)          5.4567         estimate D2E/DX2                !
 ! D213  D(11,25,26,44)        150.7671         estimate D2E/DX2                !
 ! D214  D(28,25,26,24)       -150.35           estimate D2E/DX2                !
 ! D215  D(28,25,26,44)         -5.0396         estimate D2E/DX2                !
 ! D216  D(11,25,28,27)        -29.2132         estimate D2E/DX2                !
 ! D217  D(11,25,28,45)       -144.5172         estimate D2E/DX2                !
 ! D218  D(11,25,28,73)         94.0599         estimate D2E/DX2                !
 ! D219  D(26,25,28,27)        125.2141         estimate D2E/DX2                !
 ! D220  D(26,25,28,45)          9.9101         estimate D2E/DX2                !
 ! D221  D(26,25,28,73)       -111.5128         estimate D2E/DX2                !
 ! D222  D(24,26,44,45)        143.0339         estimate D2E/DX2                !
 ! D223  D(24,26,44,46)         -1.0203         estimate D2E/DX2                !
 ! D224  D(25,26,44,45)         -2.4797         estimate D2E/DX2                !
 ! D225  D(25,26,44,46)       -146.534          estimate D2E/DX2                !
 ! D226  D(13,27,28,25)         38.4245         estimate D2E/DX2                !
 ! D227  D(13,27,28,45)        147.2064         estimate D2E/DX2                !
 ! D228  D(13,27,28,73)        -89.0106         estimate D2E/DX2                !
 ! D229  D(30,27,28,25)       -129.3298         estimate D2E/DX2                !
 ! D230  D(30,27,28,45)        -20.5478         estimate D2E/DX2                !
 ! D231  D(30,27,28,73)        103.2351         estimate D2E/DX2                !
 ! D232  D(13,27,30,29)         -4.5928         estimate D2E/DX2                !
 ! D233  D(13,27,30,47)       -176.7386         estimate D2E/DX2                !
 ! D234  D(28,27,30,29)        162.8984         estimate D2E/DX2                !
 ! D235  D(28,27,30,47)         -9.2474         estimate D2E/DX2                !
 ! D236  D(25,28,45,44)        -11.6471         estimate D2E/DX2                !
 ! D237  D(25,28,45,48)        137.1352         estimate D2E/DX2                !
 ! D238  D(27,28,45,44)       -121.6769         estimate D2E/DX2                !
 ! D239  D(27,28,45,48)         27.1054         estimate D2E/DX2                !
 ! D240  D(73,28,45,44)        114.3702         estimate D2E/DX2                !
 ! D241  D(73,28,45,48)        -96.8475         estimate D2E/DX2                !
 ! D242  D(14,29,30,27)          2.0464         estimate D2E/DX2                !
 ! D243  D(14,29,30,47)        174.0855         estimate D2E/DX2                !
 ! D244  D(31,29,30,27)       -170.3566         estimate D2E/DX2                !
 ! D245  D(31,29,30,47)          1.6826         estimate D2E/DX2                !
 ! D246  D(14,29,31,34)        -35.8267         estimate D2E/DX2                !
 ! D247  D(14,29,31,49)       -145.9446         estimate D2E/DX2                !
 ! D248  D(14,29,31,71)         89.8567         estimate D2E/DX2                !
 ! D249  D(30,29,31,34)        136.6338         estimate D2E/DX2                !
 ! D250  D(30,29,31,49)         26.5158         estimate D2E/DX2                !
 ! D251  D(30,29,31,71)        -97.6829         estimate D2E/DX2                !
 ! D252  D(27,30,47,48)         32.2561         estimate D2E/DX2                !
 ! D253  D(27,30,47,50)        143.9593         estimate D2E/DX2                !
 ! D254  D(27,30,47,72)        -91.6097         estimate D2E/DX2                !
 ! D255  D(29,30,47,48)       -139.7831         estimate D2E/DX2                !
 ! D256  D(29,30,47,50)        -28.0799         estimate D2E/DX2                !
 ! D257  D(29,30,47,72)         96.3511         estimate D2E/DX2                !
 ! D258  D(29,31,34,32)         30.552          estimate D2E/DX2                !
 ! D259  D(29,31,34,51)       -121.3589         estimate D2E/DX2                !
 ! D260  D(49,31,34,32)        147.261          estimate D2E/DX2                !
 ! D261  D(49,31,34,51)         -4.65           estimate D2E/DX2                !
 ! D262  D(71,31,34,32)        -91.4553         estimate D2E/DX2                !
 ! D263  D(71,31,34,51)        116.6337         estimate D2E/DX2                !
 ! D264  D(29,31,49,50)        -28.9573         estimate D2E/DX2                !
 ! D265  D(29,31,49,54)        120.4603         estimate D2E/DX2                !
 ! D266  D(34,31,49,50)       -143.1084         estimate D2E/DX2                !
 ! D267  D(34,31,49,54)          6.3093         estimate D2E/DX2                !
 ! D268  D(71,31,49,50)         93.5105         estimate D2E/DX2                !
 ! D269  D(71,31,49,54)       -117.0718         estimate D2E/DX2                !
 ! D270  D(16,32,33,18)         -8.1334         estimate D2E/DX2                !
 ! D271  D(16,32,33,36)       -153.8365         estimate D2E/DX2                !
 ! D272  D(34,32,33,18)        138.2115         estimate D2E/DX2                !
 ! D273  D(34,32,33,36)         -7.4917         estimate D2E/DX2                !
 ! D274  D(16,32,34,31)          6.2016         estimate D2E/DX2                !
 ! D275  D(16,32,34,51)        155.673          estimate D2E/DX2                !
 ! D276  D(33,32,34,31)       -136.2417         estimate D2E/DX2                !
 ! D277  D(33,32,34,51)         13.2296         estimate D2E/DX2                !
 ! D278  D(18,33,36,35)         -6.2812         estimate D2E/DX2                !
 ! D279  D(18,33,36,52)       -146.1144         estimate D2E/DX2                !
 ! D280  D(32,33,36,35)        135.781          estimate D2E/DX2                !
 ! D281  D(32,33,36,52)         -4.0521         estimate D2E/DX2                !
 ! D282  D(31,34,51,52)        144.9733         estimate D2E/DX2                !
 ! D283  D(31,34,51,54)          1.4714         estimate D2E/DX2                !
 ! D284  D(32,34,51,52)         -7.9417         estimate D2E/DX2                !
 ! D285  D(32,34,51,54)       -151.4436         estimate D2E/DX2                !
 ! D286  D(19,35,36,33)         -5.1209         estimate D2E/DX2                !
 ! D287  D(19,35,36,52)        138.5765         estimate D2E/DX2                !
 ! D288  D(37,35,36,33)       -151.3409         estimate D2E/DX2                !
 ! D289  D(37,35,36,52)         -7.6435         estimate D2E/DX2                !
 ! D290  D(19,35,37,39)          3.1108         estimate D2E/DX2                !
 ! D291  D(19,35,37,53)       -139.8402         estimate D2E/DX2                !
 ! D292  D(36,35,37,39)        148.6666         estimate D2E/DX2                !
 ! D293  D(36,35,37,53)          5.7156         estimate D2E/DX2                !
 ! D294  D(33,36,52,51)          9.4147         estimate D2E/DX2                !
 ! D295  D(33,36,52,53)        150.6173         estimate D2E/DX2                !
 ! D296  D(35,36,52,51)       -134.7002         estimate D2E/DX2                !
 ! D297  D(35,36,52,53)          6.5024         estimate D2E/DX2                !
 ! D298  D(35,37,39,38)         -1.0095         estimate D2E/DX2                !
 ! D299  D(35,37,39,57)       -140.1922         estimate D2E/DX2                !
 ! D300  D(53,37,39,38)        136.7143         estimate D2E/DX2                !
 ! D301  D(53,37,39,57)         -2.4684         estimate D2E/DX2                !
 ! D302  D(35,37,53,52)         -1.7395         estimate D2E/DX2                !
 ! D303  D(35,37,53,55)        139.0483         estimate D2E/DX2                !
 ! D304  D(39,37,53,52)       -143.8179         estimate D2E/DX2                !
 ! D305  D(39,37,53,55)         -3.0302         estimate D2E/DX2                !
 ! D306  D(21,38,39,37)         -2.1041         estimate D2E/DX2                !
 ! D307  D(21,38,39,57)        141.0602         estimate D2E/DX2                !
 ! D308  D(42,38,39,37)       -149.0556         estimate D2E/DX2                !
 ! D309  D(42,38,39,57)         -5.8913         estimate D2E/DX2                !
 ! D310  D(21,38,42,40)          1.7408         estimate D2E/DX2                !
 ! D311  D(21,38,42,58)       -140.8818         estimate D2E/DX2                !
 ! D312  D(39,38,42,40)        148.8419         estimate D2E/DX2                !
 ! D313  D(39,38,42,58)          6.2194         estimate D2E/DX2                !
 ! D314  D(37,39,57,58)        146.4796         estimate D2E/DX2                !
 ! D315  D(37,39,57,60)          5.6905         estimate D2E/DX2                !
 ! D316  D(38,39,57,58)          3.3274         estimate D2E/DX2                !
 ! D317  D(38,39,57,60)       -137.4617         estimate D2E/DX2                !
 ! D318  D(23,40,41,24)         -1.4316         estimate D2E/DX2                !
 ! D319  D(23,40,41,43)       -142.6959         estimate D2E/DX2                !
 ! D320  D(42,40,41,24)        140.7336         estimate D2E/DX2                !
 ! D321  D(42,40,41,43)         -0.5307         estimate D2E/DX2                !
 ! D322  D(23,40,42,38)          3.8102         estimate D2E/DX2                !
 ! D323  D(23,40,42,58)        142.2071         estimate D2E/DX2                !
 ! D324  D(41,40,42,38)       -133.9445         estimate D2E/DX2                !
 ! D325  D(41,40,42,58)          4.4525         estimate D2E/DX2                !
 ! D326  D(24,41,43,46)         -0.6942         estimate D2E/DX2                !
 ! D327  D(24,41,43,59)       -139.1479         estimate D2E/DX2                !
 ! D328  D(40,41,43,46)        135.9395         estimate D2E/DX2                !
 ! D329  D(40,41,43,59)         -2.5141         estimate D2E/DX2                !
 ! D330  D(38,42,58,57)         -4.2225         estimate D2E/DX2                !
 ! D331  D(38,42,58,59)        136.9799         estimate D2E/DX2                !
 ! D332  D(40,42,58,57)       -146.5513         estimate D2E/DX2                !
 ! D333  D(40,42,58,59)         -5.3489         estimate D2E/DX2                !
 ! D334  D(41,43,46,44)         -0.2451         estimate D2E/DX2                !
 ! D335  D(41,43,46,61)       -141.9347         estimate D2E/DX2                !
 ! D336  D(59,43,46,44)        142.6362         estimate D2E/DX2                !
 ! D337  D(59,43,46,61)          0.9466         estimate D2E/DX2                !
 ! D338  D(41,43,59,58)          1.5903         estimate D2E/DX2                !
 ! D339  D(41,43,59,65)        142.7195         estimate D2E/DX2                !
 ! D340  D(46,43,59,58)       -140.7099         estimate D2E/DX2                !
 ! D341  D(46,43,59,65)          0.4193         estimate D2E/DX2                !
 ! D342  D(26,44,45,28)          9.1998         estimate D2E/DX2                !
 ! D343  D(26,44,45,48)       -140.3489         estimate D2E/DX2                !
 ! D344  D(46,44,45,28)        152.3623         estimate D2E/DX2                !
 ! D345  D(46,44,45,48)          2.8136         estimate D2E/DX2                !
 ! D346  D(26,44,46,43)          1.1083         estimate D2E/DX2                !
 ! D347  D(26,44,46,61)        138.8729         estimate D2E/DX2                !
 ! D348  D(45,44,46,43)       -137.5856         estimate D2E/DX2                !
 ! D349  D(45,44,46,61)          0.1789         estimate D2E/DX2                !
 ! D350  D(28,45,48,47)         -3.2154         estimate D2E/DX2                !
 ! D351  D(28,45,48,62)       -150.2034         estimate D2E/DX2                !
 ! D352  D(44,45,48,47)        142.7905         estimate D2E/DX2                !
 ! D353  D(44,45,48,62)         -4.1975         estimate D2E/DX2                !
 ! D354  D(43,46,61,62)        141.1065         estimate D2E/DX2                !
 ! D355  D(43,46,61,65)         -1.9414         estimate D2E/DX2                !
 ! D356  D(44,46,61,62)         -1.6089         estimate D2E/DX2                !
 ! D357  D(44,46,61,65)       -144.6568         estimate D2E/DX2                !
 ! D358  D(30,47,48,45)        -26.6225         estimate D2E/DX2                !
 ! D359  D(30,47,48,62)        122.7746         estimate D2E/DX2                !
 ! D360  D(50,47,48,45)       -144.3744         estimate D2E/DX2                !
 ! D361  D(50,47,48,62)          5.0228         estimate D2E/DX2                !
 ! D362  D(72,47,48,45)         93.107          estimate D2E/DX2                !
 ! D363  D(72,47,48,62)       -117.4959         estimate D2E/DX2                !
 ! D364  D(30,47,50,49)         26.6265         estimate D2E/DX2                !
 ! D365  D(30,47,50,63)       -122.4625         estimate D2E/DX2                !
 ! D366  D(48,47,50,49)        143.8276         estimate D2E/DX2                !
 ! D367  D(48,47,50,63)         -5.2614         estimate D2E/DX2                !
 ! D368  D(72,47,50,49)        -93.7072         estimate D2E/DX2                !
 ! D369  D(72,47,50,63)        117.2037         estimate D2E/DX2                !
 ! D370  D(45,48,62,61)          2.7965         estimate D2E/DX2                !
 ! D371  D(45,48,62,63)        147.5184         estimate D2E/DX2                !
 ! D372  D(47,48,62,61)       -147.8154         estimate D2E/DX2                !
 ! D373  D(47,48,62,63)         -3.0935         estimate D2E/DX2                !
 ! D374  D(31,49,50,47)          2.0925         estimate D2E/DX2                !
 ! D375  D(31,49,50,63)        148.5656         estimate D2E/DX2                !
 ! D376  D(54,49,50,47)       -144.8            estimate D2E/DX2                !
 ! D377  D(54,49,50,63)          1.6731         estimate D2E/DX2                !
 ! D378  D(31,49,54,51)         -5.8486         estimate D2E/DX2                !
 ! D379  D(31,49,54,56)       -150.1442         estimate D2E/DX2                !
 ! D380  D(50,49,54,51)        144.44           estimate D2E/DX2                !
 ! D381  D(50,49,54,56)          0.1445         estimate D2E/DX2                !
 ! D382  D(47,50,63,62)          3.7592         estimate D2E/DX2                !
 ! D383  D(47,50,63,64)        147.8668         estimate D2E/DX2                !
 ! D384  D(49,50,63,62)       -146.263          estimate D2E/DX2                !
 ! D385  D(49,50,63,64)         -2.1554         estimate D2E/DX2                !
 ! D386  D(34,51,52,36)         -3.6886         estimate D2E/DX2                !
 ! D387  D(34,51,52,53)       -139.4314         estimate D2E/DX2                !
 ! D388  D(54,51,52,36)        135.9153         estimate D2E/DX2                !
 ! D389  D(54,51,52,53)          0.1725         estimate D2E/DX2                !
 ! D390  D(34,51,54,49)          2.6517         estimate D2E/DX2                !
 ! D391  D(34,51,54,56)        147.5448         estimate D2E/DX2                !
 ! D392  D(52,51,54,49)       -141.6732         estimate D2E/DX2                !
 ! D393  D(52,51,54,56)          3.22           estimate D2E/DX2                !
 ! D394  D(36,52,53,37)         -2.9202         estimate D2E/DX2                !
 ! D395  D(36,52,53,55)       -143.2778         estimate D2E/DX2                !
 ! D396  D(51,52,53,37)        136.9218         estimate D2E/DX2                !
 ! D397  D(51,52,53,55)         -3.4359         estimate D2E/DX2                !
 ! D398  D(37,53,55,56)       -133.0376         estimate D2E/DX2                !
 ! D399  D(37,53,55,60)          5.2421         estimate D2E/DX2                !
 ! D400  D(52,53,55,56)          3.2087         estimate D2E/DX2                !
 ! D401  D(52,53,55,60)        141.4884         estimate D2E/DX2                !
 ! D402  D(49,54,56,55)        136.9469         estimate D2E/DX2                !
 ! D403  D(49,54,56,64)         -1.5538         estimate D2E/DX2                !
 ! D404  D(51,54,56,55)         -3.4368         estimate D2E/DX2                !
 ! D405  D(51,54,56,64)       -141.9375         estimate D2E/DX2                !
 ! D406  D(53,55,56,54)          0.1767         estimate D2E/DX2                !
 ! D407  D(53,55,56,64)        142.8948         estimate D2E/DX2                !
 ! D408  D(60,55,56,54)       -142.3389         estimate D2E/DX2                !
 ! D409  D(60,55,56,64)          0.3793         estimate D2E/DX2                !
 ! D410  D(53,55,60,57)         -2.016          estimate D2E/DX2                !
 ! D411  D(53,55,60,66)       -143.7836         estimate D2E/DX2                !
 ! D412  D(56,55,60,57)        139.982          estimate D2E/DX2                !
 ! D413  D(56,55,60,66)         -1.7856         estimate D2E/DX2                !
 ! D414  D(54,56,64,63)          1.0844         estimate D2E/DX2                !
 ! D415  D(54,56,64,66)        144.6544         estimate D2E/DX2                !
 ! D416  D(55,56,64,63)       -142.3775         estimate D2E/DX2                !
 ! D417  D(55,56,64,66)          1.1925         estimate D2E/DX2                !
 ! D418  D(39,57,58,42)          0.5465         estimate D2E/DX2                !
 ! D419  D(39,57,58,59)       -140.5126         estimate D2E/DX2                !
[...]
 Alpha virt. eigenvalues --    1.32977   1.33778   1.33991   1.34235   1.34742
 Alpha virt. eigenvalues --    1.34972   1.35145   1.35455   1.35855   1.36357
 Alpha virt. eigenvalues --    1.36615   1.36735   1.37157   1.37505   1.37643
 Alpha virt. eigenvalues --    1.38272   1.38409   1.38630   1.39393   1.39431
 Alpha virt. eigenvalues --    1.39765   1.39981   1.40015   1.40433   1.40678
 Alpha virt. eigenvalues --    1.40946   1.41200   1.41545   1.41611   1.41784
 Alpha virt. eigenvalues --    1.42232   1.42494   1.42708   1.43101   1.43350
 Alpha virt. eigenvalues --    1.43569   1.43678   1.43797   1.43872   1.44048
 Alpha virt. eigenvalues --    1.44199   1.44817   1.45061   1.45393   1.45624
 Alpha virt. eigenvalues --    1.45797   1.46089   1.46316   1.46403   1.46594
 Alpha virt. eigenvalues --    1.46982   1.47232   1.47570   1.47782   1.48076
 Alpha virt. eigenvalues --    1.48605   1.49145   1.49335   1.49450   1.49648
 Alpha virt. eigenvalues --    1.49887   1.50328   1.50538   1.50765   1.51238
 Alpha virt. eigenvalues --    1.51447   1.51613   1.51716   1.52379   1.52733
 Alpha virt. eigenvalues --    1.52858   1.53006   1.53222   1.53769   1.54088
 Alpha virt. eigenvalues --    1.54455   1.54928   1.55130   1.55444   1.55654
 Alpha virt. eigenvalues --    1.55961   1.56177   1.56494   1.57050   1.57378
 Alpha virt. eigenvalues --    1.57481   1.58405   1.58674   1.58903   1.59402
 Alpha virt. eigenvalues --    1.59810   1.60102   1.60277   1.60727   1.61008
 Alpha virt. eigenvalues --    1.61215   1.61794   1.62028   1.62235   1.62999
 Alpha virt. eigenvalues --    1.63163   1.63639   1.64292   1.64413   1.64729
 Alpha virt. eigenvalues --    1.65100   1.65237   1.65759   1.66385   1.66717
 Alpha virt. eigenvalues --    1.66822   1.67295   1.67553   1.68257   1.68612
 Alpha virt. eigenvalues --    1.68754   1.69016   1.69592   1.69844   1.70219
 Alpha virt. eigenvalues --    1.70727   1.70964   1.71430   1.71666   1.71871
 Alpha virt. eigenvalues --    1.72443   1.72908   1.73020   1.73421   1.73509
 Alpha virt. eigenvalues --    1.73845   1.74325   1.74777   1.75401   1.75632
 Alpha virt. eigenvalues --    1.76075   1.76260   1.76769   1.76894   1.77470
 Alpha virt. eigenvalues --    1.77720   1.78423   1.78666   1.79214   1.79849
 Alpha virt. eigenvalues --    1.80247   1.80410   1.80605   1.81393   1.81423
 Alpha virt. eigenvalues --    1.82038   1.82744   1.83627   1.83894   1.84064
 Alpha virt. eigenvalues --    1.85324   1.85727   1.86290   1.86586   1.86921
 Alpha virt. eigenvalues --    1.87409   1.87856   1.87975   1.89157   1.89328
 Alpha virt. eigenvalues --    1.90129   1.90349   1.90973   1.91232   1.91426
 Alpha virt. eigenvalues --    1.91674   1.92367   1.92839   1.93097   1.93806
 Alpha virt. eigenvalues --    1.94159   1.94571   1.94979   1.95642   1.96005
 Alpha virt. eigenvalues --    1.96831   1.97061   1.97697   1.98617   1.98800
 Alpha virt. eigenvalues --    1.99366   1.99687   1.99764   2.00198   2.00577
 Alpha virt. eigenvalues --    2.00994   2.01045   2.01404   2.01648   2.02405
 Alpha virt. eigenvalues --    2.02543   2.03017   2.03866   2.04092   2.04316
 Alpha virt. eigenvalues --    2.05191   2.05359   2.05717   2.05965   2.06288
 Alpha virt. eigenvalues --    2.06815   2.07100   2.07410   2.08132   2.08483
 Alpha virt. eigenvalues --    2.08815   2.09153   2.09457   2.10180   2.10930
 Alpha virt. eigenvalues --    2.11530   2.12296   2.12320   2.12793   2.13256
 Alpha virt. eigenvalues --    2.13679   2.13921   2.14105   2.14698   2.15172
 Alpha virt. eigenvalues --    2.15577   2.16360   2.16421   2.17186   2.17761
 Alpha virt. eigenvalues --    2.17922   2.18307   2.18784   2.19075   2.19639
 Alpha virt. eigenvalues --    2.19680   2.20345   2.20696   2.21073   2.21271
 Alpha virt. eigenvalues --    2.21589   2.22686   2.22938   2.23423   2.23782
 Alpha virt. eigenvalues --    2.24280   2.24832   2.24961   2.25516   2.25784
 Alpha virt. eigenvalues --    2.26170   2.26347   2.26981   2.27024   2.27687
 Alpha virt. eigenvalues --    2.28239   2.28470   2.28710   2.29287   2.29411
 Alpha virt. eigenvalues --    2.29916   2.30830   2.31032   2.31888   2.32060
 Alpha virt. eigenvalues --    2.32296   2.33158   2.33408   2.33796   2.34137
 Alpha virt. eigenvalues --    2.34473   2.34722   2.35286   2.35474   2.35918
 Alpha virt. eigenvalues --    2.36310   2.36710   2.37333   2.37954   2.38463
 Alpha virt. eigenvalues --    2.38657   2.39308   2.39414   2.39572   2.40440
 Alpha virt. eigenvalues --    2.40650   2.41128   2.41399   2.41527   2.41655
 Alpha virt. eigenvalues --    2.42178   2.42514   2.42784   2.43122   2.44054
 Alpha virt. eigenvalues --    2.44624   2.44870   2.45449   2.45990   2.46088
 Alpha virt. eigenvalues --    2.46431   2.47445   2.47998   2.48084   2.48283
 Alpha virt. eigenvalues --    2.49147   2.49552   2.50299   2.51194   2.51648
 Alpha virt. eigenvalues --    2.52310   2.52547   2.53365   2.53498   2.54018
 Alpha virt. eigenvalues --    2.54510   2.54891   2.55258   2.55527   2.55719
 Alpha virt. eigenvalues --    2.56264   2.56834   2.57489   2.57804   2.58203
 Alpha virt. eigenvalues --    2.58866   2.59242   2.59724   2.59987   2.61056
 Alpha virt. eigenvalues --    2.61315   2.61385   2.61965   2.62535   2.62828
 Alpha virt. eigenvalues --    2.63184   2.63964   2.64037   2.64472   2.65216
 Alpha virt. eigenvalues --    2.65683   2.67140   2.67304   2.68339   2.69291
 Alpha virt. eigenvalues --    2.70087   2.70596   2.70918   2.72470   2.72834
 Alpha virt. eigenvalues --    2.73833   2.74682   2.75774   2.76256   2.76998
 Alpha virt. eigenvalues --    2.78528   2.79206   2.79891   2.79978   2.80567
 Alpha virt. eigenvalues --    2.80987   2.81478   2.81601   2.81996   2.83018
 Alpha virt. eigenvalues --    2.83547   2.85484   2.86042   2.86673   2.87290
 Alpha virt. eigenvalues --    2.87897   2.88375   2.90551   2.91627   2.92225
 Alpha virt. eigenvalues --    2.92565   2.92629   2.93682   2.94138   2.94329
 Alpha virt. eigenvalues --    2.94764   2.94921   2.95283   2.95617   2.96132
 Alpha virt. eigenvalues --    2.96837   2.97498   2.97771   2.98046   2.98179
 Alpha virt. eigenvalues --    2.98394   2.98825   2.99517   2.99748   3.00284
 Alpha virt. eigenvalues --    3.00846   3.01231   3.01395   3.01536   3.02267
 Alpha virt. eigenvalues --    3.02422   3.03124   3.03534   3.03984   3.04524
 Alpha virt. eigenvalues --    3.04797   3.05098   3.05796   3.05950   3.06113
 Alpha virt. eigenvalues --    3.06255   3.06990   3.07550   3.07662   3.08476
 Alpha virt. eigenvalues --    3.08774   3.09292   3.09531   3.10070   3.10135
 Alpha virt. eigenvalues --    3.10487   3.10986   3.11183   3.11486   3.11567
 Alpha virt. eigenvalues --    3.11941   3.12156   3.12650   3.12833   3.13495
 Alpha virt. eigenvalues --    3.13785   3.14121   3.14703   3.15187   3.15364
 Alpha virt. eigenvalues --    3.15593   3.15982   3.16674   3.16986   3.17448
 Alpha virt. eigenvalues --    3.17758   3.18183   3.19056   3.19528   3.20202
 Alpha virt. eigenvalues --    3.20700   3.21055   3.21948   3.23739   3.24519
 Alpha virt. eigenvalues --    3.24988   3.25315   3.26916   3.28291   3.31815
 Alpha virt. eigenvalues --    3.33797   3.35005   3.36551   3.37335   3.37539
 Alpha virt. eigenvalues --    3.40725   3.41463   3.42699   3.43316   3.44647
 Alpha virt. eigenvalues --    3.46681   3.47120   3.47780   3.49409   3.49826
 Alpha virt. eigenvalues --    3.50949   3.51773   3.52171   3.53479   3.54016
 Alpha virt. eigenvalues --    3.55534   3.56948   3.57246   3.57628   3.59517
 Alpha virt. eigenvalues --    3.59726   3.60709   3.61379   3.62608   3.63359
 Alpha virt. eigenvalues --    3.64886   3.65824   3.67127   3.68068   3.68569
 Alpha virt. eigenvalues --    3.69017   3.70691   3.71055   3.72085   3.72243
 Alpha virt. eigenvalues --    3.73861   3.75120   3.76201   3.76685   3.79293
 Alpha virt. eigenvalues --    3.81097   3.81330   3.82667   3.83129   3.83346
 Alpha virt. eigenvalues --    3.85007   3.85848   3.86622   3.86721   3.87510
 Alpha virt. eigenvalues --    3.87770   3.88413   3.89331   3.89617   3.90590
 Alpha virt. eigenvalues --    3.91288   3.92552   3.94670   4.01973   4.07238
 Alpha virt. eigenvalues --    4.16388   4.19988   4.21533   4.22276   4.25615
 Alpha virt. eigenvalues --    4.27872   4.31804   4.32627   4.32873   4.34683
 Alpha virt. eigenvalues --    4.36937   4.38414   4.40597   4.41840   4.46037
 Alpha virt. eigenvalues --    4.47734   4.48660   4.50096   4.56001   4.60945
 Alpha virt. eigenvalues --    4.62883   4.63541   4.68457   4.70502   4.77171
 Alpha virt. eigenvalues --    4.78843   4.79949   4.85385   4.86567   4.94503
 Alpha virt. eigenvalues --    4.96539   4.99409   5.01816   5.04180   9.49502
 Alpha virt. eigenvalues --    9.55369   9.59360   9.59815   9.63081   9.66791
 Alpha virt. eigenvalues --    9.67747   9.69829   9.72579   9.75649  22.99975
 Alpha virt. eigenvalues --   23.20782  23.22277  23.22896  23.39593  23.43534
 Alpha virt. eigenvalues --   23.45686  23.50739  23.52942  23.60329  23.63172
 Alpha virt. eigenvalues --   23.65562  23.66201  23.67631  23.69111  23.71747
 Alpha virt. eigenvalues --   23.72926  23.73201  23.75298  23.76096  23.77026
 Alpha virt. eigenvalues --   23.78558  23.79521  23.80545  23.81743  23.82070
 Alpha virt. eigenvalues --   23.82965  23.83103  23.85703  23.86649  23.88971
 Alpha virt. eigenvalues --   23.89429  23.90908  23.91660  23.91854  23.93284
 Alpha virt. eigenvalues --   23.94317  23.95564  23.96289  23.96609  23.97186
 Alpha virt. eigenvalues --   23.97447  23.98631  23.99228  23.99466  23.99583
 Alpha virt. eigenvalues --   24.00310  24.01261  24.01471  24.03037  24.06406
 Alpha virt. eigenvalues --   24.06586  24.07635  24.07845  24.08606  24.08867
 Alpha virt. eigenvalues --   24.09147  24.10154  24.10941  24.11561  24.12182
 Alpha virt. eigenvalues --   24.13865  24.14065  24.14728  24.15217  24.24951
 Alpha virt. eigenvalues --   25.52387  25.55602  25.60883  25.62150  25.64278
 Alpha virt. eigenvalues --   25.65910  25.71221  25.74014  25.77624  25.78551
 Alpha virt. eigenvalues --   25.81118  25.84975  25.85871  25.87587  25.89317
 Alpha virt. eigenvalues --   25.91383  25.93941  25.96438  25.99591  26.08143
 Alpha virt. eigenvalues --   26.11149  26.22776  26.27382  26.30017  26.38864
 Alpha virt. eigenvalues --   26.43161  26.47326  26.54412  26.59342  26.79428
 Alpha virt. eigenvalues --  215.43786 215.50580 215.55257 215.55623 215.59574
 Alpha virt. eigenvalues --  215.63758 215.64832 215.67213 215.70355 215.73723
          Condensed to atoms (all electrons):
 Mulliken charges:
               1
     1  C   -0.273372
     2  C   -0.154375
     3  C   -0.459203
     4  C    0.127011
     5  C    0.350909
     6  C    0.066747
     7  C   -0.474064
     8  C    0.126013
     9  C    0.130030
    10  C   -0.525742
    11  C    0.169637
    12  C    0.177800
    13  C    0.235810
    14  C    0.246784
    15  C   -0.460819
    16  C   -0.495411
    17  C    0.036630
    18  C    0.125477
    19  C    0.014944
    20  C    0.067719
    21  C    0.027887
    22  C    0.062980
    23  C    0.007817
    24  C    0.003569
    25  C    0.180145
    26  C    0.031018
    27  C    0.280610
    28  C   -0.662589
    29  C    0.185169
    30  C    0.152957
    31  C   -0.673403
    32  C    0.153890
    33  C    0.089353
    34  C    0.181622
    35  C    0.003453
    36  C   -0.004627
    37  C   -0.005675
    38  C   -0.000267
    39  C    0.001702
    40  C   -0.002766
    41  C    0.002709
    42  C   -0.002589
    43  C    0.005329
    44  C    0.042501
    45  C    0.158905
    46  C   -0.000322
    47  C   -0.688572
    48  C    0.184755
    49  C    0.169269
    50  C    0.180485
    51  C    0.039687
    52  C    0.002681
    53  C    0.003034
    54  C    0.035417
    55  C    0.003224
    56  C    0.001048
    57  C    0.002139
    58  C    0.003938
    59  C    0.004671
    60  C    0.005179
    61  C    0.003472
    62  C    0.037864
    63  C    0.034448
    64  C    0.001674
    65  C    0.001647
    66  C    0.001751
    67  Cl   0.089433
    68  Cl   0.104967
    69  Cl   0.071011
    70  Cl   0.086542
    71  Cl   0.052834
    72  Cl   0.050368
    73  Cl   0.055845
    74  Cl   0.093491
    75  Cl   0.058174
    76  Cl   0.057625
 Sum of Mulliken charges =  -0.00000
 Mulliken charges with hydrogens summed into heavy atoms:
               1
     1  C   -0.273372
     2  C   -0.154375
     3  C   -0.459203
     4  C    0.127011
     5  C    0.350909
     6  C    0.066747
     7  C   -0.474064
     8  C    0.126013
     9  C    0.130030
    10  C   -0.525742
    11  C    0.169637
    12  C    0.177800
    13  C    0.235810
    14  C    0.246784
    15  C   -0.460819
    16  C   -0.495411
    17  C    0.036630
    18  C    0.125477
    19  C    0.014944
    20  C    0.067719
    21  C    0.027887
    22  C    0.062980
    23  C    0.007817
    24  C    0.003569
    25  C    0.180145
    26  C    0.031018
    27  C    0.280610
    28  C   -0.662589
    29  C    0.185169
    30  C    0.152957
    31  C   -0.673403
    32  C    0.153890
    33  C    0.089353
    34  C    0.181622
    35  C    0.003453
    36  C   -0.004627
    37  C   -0.005675
    38  C   -0.000267
    39  C    0.001702
    40  C   -0.002766
    41  C    0.002709
    42  C   -0.002589
    43  C    0.005329
    44  C    0.042501
    45  C    0.158905
    46  C   -0.000322
    47  C   -0.688572
    48  C    0.184755
    49  C    0.169269
    50  C    0.180485
    51  C    0.039687
    52  C    0.002681
    53  C    0.003034
    54  C    0.035417
    55  C    0.003224
    56  C    0.001048
    57  C    0.002139
    58  C    0.003938
    59  C    0.004671
    60  C    0.005179
    61  C    0.003472
    62  C    0.037864
    63  C    0.034448
    64  C    0.001674
    65  C    0.001647
    66  C    0.001751
    67  Cl   0.089433
    68  Cl   0.104967
    69  Cl   0.071011
    70  Cl   0.086542
    71  Cl   0.052834
    72  Cl   0.050368
    73  Cl   0.055845
    74  Cl   0.093491
    75  Cl   0.058174
    76  Cl   0.057625
 Electronic spatial extent (au):  <R**2>=          39441.3525
 Charge=             -0.0000 electrons
 Dipole moment (field-independent basis, Debye):
    X=              5.3257    Y=             -2.3571    Z=             -3.1218  Tot=              6.6080
 Quadrupole moment (field-independent basis, Debye-Ang):
   XX=           -506.9689   YY=           -509.7223   ZZ=           -507.2772
   XY=             -3.4910   XZ=             -4.2116   YZ=             -3.1074
 Traceless Quadrupole moment (field-independent basis, Debye-Ang):
   XX=              1.0206   YY=             -1.7329   ZZ=              0.7123
   XY=             -3.4910   XZ=             -4.2116   YZ=             -3.1074
 Octapole moment (field-independent basis, Debye-Ang**2):
  XXX=           -106.7843  YYY=             27.6951  ZZZ=             21.0993  XYY=            -32.4693
  XXY=             21.0405  XXZ=             27.6309  XZZ=            -56.5528  YZZ=             13.5790
  YYZ=             25.3738  XYZ=            -17.1762
 Hexadecapole moment (field-independent basis, Debye-Ang**3):
 XXXX=         -24328.3920 YYYY=         -17259.9990 ZZZZ=         -15222.8679 XXXY=             56.1879
 XXXZ=             28.4693 YYYX=            -23.4067 YYYZ=             24.6911 ZZZX=             -2.4961
 ZZZY=             50.2570 XXYY=          -6963.9983 XXZZ=          -6594.6338 YYZZ=          -5402.2952
 XXYZ=             -3.1319 YYXZ=            -38.3505 ZZXY=              9.7899
 N-N= 1.701574472123D+04 E-N=-5.079529350779D+04  KE= 7.096692691785D+03
 No NMR shielding tensors so no spin-rotation constants.
 Leave Link  601 at Fri Jul 15 01:19:20 2022, MaxMem=  1342177280 cpu:              64.2 elap:               1.6
 (Enter /home/mkliu/g16/l9999.exe)
 1\1\GINC-NODE03\FOpt\RB3LYP\6-311G(d,p)\C66Cl10\MKLIU\15-Jul-2022\0\\#
 P opt b3lyp/6-311G(d, p) empiricaldispersion=GD3\\force\\0,1\C,-1.3509
 387623,1.8927333283,-3.9662604039\C,0.1940205771,2.3224818098,-4.11973
 39065\C,0.9544999926,0.8939302929,-4.311743365\C,-1.2631724134,0.41413
 55525,-3.854998305\C,-0.1037710831,-0.1405855149,-4.1970772288\C,-2.18
 0631496,-0.1195752623,-2.8997315619\C,-2.1846730855,2.2747467424,-2.66
 7108814\C,-2.6944212649,0.9087266697,-2.1621659554\C,-1.3934595816,2.9
 046710841,-1.5415109013\C,0.8734061816,2.9391023085,-2.7911083273\C,-0
 .0252507982,3.2334223063,-1.5954161417\C,1.766270553,0.7106522722,-3.0
 566851093\C,1.8215700322,1.8567104285,-2.2916704368\C,2.107351639,-0.5
 331076767,-2.5117047659\C,0.1636830014,-1.563831623,-3.8828279658\C,1.
 5945939656,-1.8126347089,-3.1859376869\C,-1.9535322186,-1.4350567812,-
 2.3691658771\C,-0.8145207282,-2.0961074236,-2.8438702401\C,-2.50012857
 24,-1.7444711676,-1.0626757404\C,-3.1279292039,0.6862153517,-0.8156047
 61\C,-3.1190025314,-0.6720778758,-0.2790970526\C,-2.0428345793,2.85014
 4633,-0.2982904999\C,-2.991523207,1.7767124396,0.0549899075\C,-1.39630
 91158,3.2487086387,0.8897493774\C,0.6584625123,3.4864611382,-0.3925380
 062\C,-0.0257295953,3.5277759489,0.8346098014\C,2.3770924029,1.8363706
 831,-1.0105523845\C,2.1081123962,3.0410971121,-0.1264837049\C,2.737603
 7249,-0.5689152565,-1.2511450737\C,2.9015952035,0.6284080551,-0.508585
 6716\C,3.0895912234,-1.9287024306,-0.6260537474\C,1.2635625319,-2.8201
 394357,-2.1099832505\C,-0.1514884707,-3.0346497995,-2.0296260801\C,2.0
 109575745,-2.9427834713,-0.9791723232\C,-1.9612987526,-2.8615115117,-0
 .3840136794\C,-0.7497978341,-3.4729635883,-0.8492403347\C,-1.955509547
 2,-2.9442690714,1.0582758915\C,-3.1761881861,-0.8220664616,1.129534678
 9\C,-2.5611512185,-1.950715016,1.8007534205\C,-2.9242055093,1.58966297
 66,1.4663023882\C,-1.943018317,2.5065547229,2.0099165702\C,-3.05332949
 82,0.3111201637,2.0049923047\C,-1.128796947,2.1142665173,3.0576880697\
 C,0.8311728872,3.0784017668,1.9152152496\C,2.0580700491,2.6517639536,1
 .3311461731\C,0.2963528567,2.4138945128,3.0158381924\C,3.463395359,0.5
 930745603,0.9182365657\C,2.7126071081,1.5615578607,1.8201320082\C,2.99
 19063942,-1.8834385021,0.8867285795\C,3.1809352342,-0.7357568343,1.594
 2240119\C,1.4286188933,-3.4730553841,0.2215720446\C,0.0710197947,-3.79
 53603952,0.2856992653\C,-0.6855613137,-3.5038028283,1.4817260673\C,2.0
 709713971,-2.8726951115,1.3635674588\C,-0.0529407984,-2.9947320331,2.6
 109104202\C,1.3637283104,-2.679776607,2.5533433988\C,-1.9546826365,-1.
 4843019431,3.0297138556\C,-2.2542688415,-0.0771831302,3.1535388911\C,-
 1.2903572837,0.8001809881,3.6540011113\C,-0.7026411846,-1.9759569454,3
 .4103439616\C,1.0014205784,1.2943235886,3.5692518317\C,2.1901924237,0.
 8760663522,2.961887245\C,2.4828240327,-0.5302196369,2.8296025267\C,1.5
 858210389,-1.4832929438,3.3152902812\C,0.026964755,0.301474883,3.99440
 70881\C,0.3146181913,-1.0547217612,3.8755388681\Cl,-2.3315879336,2.177
 045441,-5.4720984977\Cl,0.4112339443,3.3902920982,-5.5264827093\Cl,2.0
 083438952,0.7370732615,-5.7771984929\Cl,2.8921823363,-2.4330120904,-4.
 2984303286\Cl,4.7805505681,-2.4277353459,-1.1607933707\Cl,5.2697872652
 ,0.9625061243,0.8522035242\Cl,3.4213912149,4.3284587871,-0.2899445869\
 Cl,1.7965443507,4.4817358295,-3.151287819\Cl,-3.5987699968,3.415719055
 8,-2.9819388647\Cl,-0.0554003245,-2.5674629069,-5.4176113868\\Version=
 ES64L-G16RevA.03\State=1-A\HF=-7117.689589\RMSD=3.580e-09\RMSF=1.457e-
 05\Dipole=-1.306317,-0.8589318,2.0771548\Quadrupole=-3.36602,1.922834,
 1.443186,2.3262843,-3.0258975,-0.1175668\PG=C01 [X(C66Cl10)]\\@


 THE PROGRESS OF RIVERS TO THE SEA IS NOT AS RAPID
 AS THAT OF MAN TO ERROR.
                                              -- VOLTAIRE
 Job cpu time:       3 days 14 hours  1 minutes 59.8 seconds.
 Elapsed time:       0 days  1 hours 47 minutes 47.7 seconds.
 File lengths (MBytes):  RWF=   1283 Int=      0 D2E=      0 Chk=    157 Scr=      1
 Normal termination of Gaussian 16 at Fri Jul 15 01:19:22 2022.
