 Entering Gaussian System, Link 0=g16
 Input=dtndsip6oxpmo_addon_10.gjf
 Output=dtndsip6oxpmo_addon_10.log
 Initial command:
 /home/mkliu/g16/l1.exe "/data/scratch/Gau-186857.inp" -scrdir="/data/scratch/"
 Entering Link 1 = /home/mkliu/g16/l1.exe PID=    186858.
  
 Copyright (c) 1988,1990,1992,1993,1995,1998,2003,2009,2016,
            Gaussian, Inc.  All Rights Reserved.
  
 This is part of the Gaussian(R) 16 program.  It is based on
 the Gaussian(R) 09 system (copyright 2009, Gaussian, Inc.),
 the Gaussian(R) 03 system (copyright 2003, Gaussian, Inc.),
 the Gaussian(R) 98 system (copyright 1998, Gaussian, Inc.),
 the Gaussian(R) 94 system (copyright 1995, Gaussian, Inc.),
 the Gaussian 92(TM) system (copyright 1992, Gaussian, Inc.),
 the Gaussian 90(TM) system (copyright 1990, Gaussian, Inc.),
 the Gaussian 88(TM) system (copyright 1988, Gaussian, Inc.),
 the Gaussian 86(TM) system (copyright 1986, Carnegie Mellon
 University), and the Gaussian 82(TM) system (copyright 1983,
 Carnegie Mellon University). Gaussian is a federally registered
 trademark of Gaussian, Inc.
  
 This software contains proprietary and confidential information,
 including trade secrets, belonging to Gaussian, Inc.
  
 This software is provided under written license and may be
 used, copied, transmitted, or stored only in accord with that
 written license.
  
 The following legend is applicable only to US Government
 contracts under FAR:
  
                    RESTRICTED RIGHTS LEGEND
  
 Use, reproduction and disclosure by the US Government is
 subject to restrictions as set forth in subparagraphs (a)
 and (c) of the Commercial Computer Software - Restricted
 Rights clause in FAR 52.227-19.
  
 Gaussian, Inc.
 340 Quinnipiac St., Bldg. 40, Wallingford CT 06492
  
  
 ---------------------------------------------------------------
 Warning -- This program may not be used in any manner that
 competes with the business of Gaussian, Inc. or will provide
 assistance to any competitor of Gaussian, Inc.  The licensee
 of this program is prohibited from giving any competitor of
 Gaussian, Inc. access to this program.  By using this program,
 the user acknowledges that Gaussian, Inc. is engaged in the
 business of creating and licensing software in the field of
 computational chemistry and represents and warrants to the
 licensee that it is not a competitor of Gaussian, Inc. and that
 it will not use this program in any manner prohibited above.
 ---------------------------------------------------------------
  

 Cite this work as:
 Gaussian 16, Revision A.03,
 M. J. Frisch, G. W. Trucks, H. B. Schlegel, G. E. Scuseria, 
 M. A. Robb, J. R. Cheeseman, G. Scalmani, V. Barone, 
 G. A. Petersson, H. Nakatsuji, X. Li, M. Caricato, A. V. Marenich, 
 J. Bloino, B. G. Janesko, R. Gomperts, B. Mennucci, H. P. Hratchian, 
 J. V. Ortiz, A. F. Izmaylov, J. L. Sonnenberg, D. Williams-Young, 
 F. Ding, F. Lipparini, F. Egidi, J. Goings, B. Peng, A. Petrone, 
 T. Henderson, D. Ranasinghe, V. G. Zakrzewski, J. Gao, N. Rega, 
 G. Zheng, W. Liang, M. Hada, M. Ehara, K. Toyota, R. Fukuda, 
 J. Hasegawa, M. Ishida, T. Nakajima, Y. Honda, O. Kitao, H. Nakai, 
 T. Vreven, K. Throssell, J. A. Montgomery, Jr., J. E. Peralta, 
 F. Ogliaro, M. J. Bearpark, J. J. Heyd, E. N. Brothers, K. N. Kudin, 
 V. N. Staroverov, T. A. Keith, R. Kobayashi, J. Normand, 
 K. Raghavachari, A. P. Rendell, J. C. Burant, S. S. Iyengar, 
 J. Tomasi, M. Cossi, J. M. Millam, M. Klene, C. Adamo, R. Cammi, 
 J. W. Ochterski, R. L. Martin, K. Morokuma, O. Farkas, 
 J. B. Foresman, and D. J. Fox, Gaussian, Inc., Wallingford CT, 2016.
 
 ******************************************
 Gaussian 16:  ES64L-G16RevA.03 25-Dec-2016
                15-Jul-2022 
 ******************************************
 %mem=10GB
 %chk=dtndsip6oxpmo_addon_10.chk
 %nprocshared=48
 Will use up to   48 processors via shared memory.
 -------------------------------------------------
 #P opt b3lyp/6-311G(d, p) empiricaldispersion=GD3
 -------------------------------------------------
 1/18=20,19=15,26=3,38=1/1,3;
 2/9=110,12=2,17=6,18=5,40=1/2;
 3/5=4,6=6,7=101,11=2,25=1,30=1,71=1,74=-5,124=31/1,2,3;
 4//1;
 5/5=2,38=5/2;
 6/7=2,8=2,9=2,10=2,28=1/1;
 7//1,2,3,16;
 1/18=20,19=15,26=3/3(2);
 2/9=110/2;
 99//99;
 2/9=110/2;
 3/5=4,6=6,7=101,11=2,25=1,30=1,71=1,74=-5,124=31/1,2,3;
 4/5=5,16=3,69=1/1;
 5/5=2,38=5/2;
 7//1,2,3,16;
 1/18=20,19=15,26=3/3(-5);
 2/9=110/2;
 6/7=2,8=2,9=2,10=2,19=2,28=1/1;
 99/9=1/99;
 Leave Link    1 at Fri Jul 15 03:57:26 2022, MaxMem=  1342177280 cpu:               2.2 elap:               0.1
 (Enter /home/mkliu/g16/l101.exe)
 -----
 force
 -----
 Symbolic Z-matrix:
 Charge =  0 Multiplicity = 1
 C                    -1.34697   1.87418  -3.93992 
 C                     0.18338   2.27521  -4.07135 
 C                     0.95308   0.91262  -4.261 
 C                    -1.28475   0.40447  -3.77182 
 C                    -0.06282  -0.15123  -4.08694 
 C                    -2.14833  -0.10949  -2.85417 
 C                    -2.17481   2.28234  -2.70212 
 C                    -2.9728    0.96536  -2.26076 
 C                    -1.34252   2.73035  -1.54337 
 C                     0.86497   2.88238  -2.80108 
 C                     0.00766   3.12736  -1.5896 
 C                     1.7944    0.70181  -3.02896 
 C                     1.80485   1.83457  -2.26047 
 C                     2.17257  -0.52677  -2.4975 
 C                     0.21607  -1.36713  -3.54978 
 C                     1.60693  -1.78959  -3.14167 
 C                    -1.92402  -1.38196  -2.31863 
 C                    -0.75762  -2.0246   -2.76141 
 C                    -2.5199   -1.7351   -1.045 
 C                    -3.20694   0.67225  -0.8074 
 C                    -3.15228  -0.67589  -0.28188 
 C                    -1.99019   2.73158  -0.32843 
 C                    -2.99884   1.72132   0.04458 
 C                    -1.35313   3.14289   0.85797 
 C                     0.68157   3.37571  -0.40729 
 C                    -0.0058    3.43851   0.82081 
 C                     2.37429   1.81351  -1.00039 
 C                     2.1258    3.01719  -0.12737 
 C                     2.79334  -0.56262  -1.24361 
 C                     2.91361   0.62508  -0.50383 
 C                     3.12621  -1.91698  -0.62571 
 C                     1.30275  -2.802    -2.08071 
 C                    -0.1114   -3.00766  -1.9841 
 C                     2.04526  -2.91036  -0.95575 
 C                    -1.95053  -2.82099  -0.37802 
 C                    -0.72515  -3.42925  -0.83497 
 C                    -1.95278  -2.913     1.05143 
 C                    -3.17753  -0.81274   1.11407 
 C                    -2.56828  -1.93025   1.77953 
 C                    -2.92425   1.55572   1.45772 
 C                    -1.92991   2.45454   1.97013 
 C                    -3.05865   0.29962   2.0016 
 C                    -1.12491   2.07096   3.02329 
 C                     0.82956   3.03086   1.89679 
 C                     2.07169   2.63697   1.32216 
 C                     0.28328   2.3669    2.97598 
 C                     3.47256   0.59896   0.91159 
 C                     2.71279   1.54404   1.80009 
 C                     3.01451  -1.86499   0.87294 
 C                     3.1903   -0.71893   1.5747 
 C                     1.44672  -3.44621   0.22672 
 C                     0.09324  -3.74588   0.28426 
 C                    -0.68226  -3.46238   1.45188 
 C                     2.07501  -2.83792   1.34717 
 C                    -0.05717  -2.95092   2.5687 
 C                     1.34345  -2.63539   2.50277 
 C                    -1.96665  -1.48419   3.01103 
 C                    -2.26361  -0.0879    3.13691 
 C                    -1.30456   0.77876   3.62499 
 C                    -0.7223   -1.95963   3.36739 
 C                     0.98461   1.25692   3.52109 
 C                     2.17457   0.86178   2.93485 
 C                     2.46735  -0.52492   2.79726 
 C                     1.55544  -1.45193   3.25795 
 C                     0.00918   0.29336   3.94742 
 C                     0.29452  -1.05029   3.82015 
 Cl                   -2.27445   2.20026  -5.43871 
 Cl                    0.36955   3.33426  -5.48581 
 Cl                    1.93364   0.77815  -5.72861 
 Cl                    2.68698  -2.39758  -4.42919 
 Cl                    4.76928  -2.3895   -1.2087 
 Cl                    5.23214   0.9914    0.77664 
 Cl                    3.37338   4.27858  -0.40231 
 Cl                    1.76469   4.38355  -3.1933 
 Cl                   -3.29651   3.65039  -3.01818 
 Cl                   -4.62365   0.95881  -3.03249 
 
 ITRead=  0  0  0  0  0  0  0  0  0  0  0  0  0  0  0  0  0  0  0  0
 ITRead=  0  0  0  0  0  0  0  0  0  0  0  0  0  0  0  0  0  0  0  0
 ITRead=  0  0  0  0  0  0  0  0  0  0  0  0  0  0  0  0  0  0  0  0
 ITRead=  0  0  0  0  0  0  0  0  0  0  0  0  0  0  0  0
 MicOpt= -1 -1 -1 -1 -1 -1 -1 -1 -1 -1 -1 -1 -1 -1 -1 -1 -1 -1 -1 -1
 MicOpt= -1 -1 -1 -1 -1 -1 -1 -1 -1 -1 -1 -1 -1 -1 -1 -1 -1 -1 -1 -1
 MicOpt= -1 -1 -1 -1 -1 -1 -1 -1 -1 -1 -1 -1 -1 -1 -1 -1 -1 -1 -1 -1
 MicOpt= -1 -1 -1 -1 -1 -1 -1 -1 -1 -1 -1 -1 -1 -1 -1 -1
 NAtoms=     76 NQM=       76 NQMF=       0 NMMI=      0 NMMIF=      0
                NMic=       0 NMicF=      0.
                    Isotopes and Nuclear Properties:
 (Nuclear quadrupole moments (NQMom) in fm**2, nuclear magnetic moments (NMagM)
  in nuclear magnetons)

  Atom         1           2           3           4           5           6           7           8           9          10
 IAtWgt=          12          12          12          12          12          12          12          12          12          12
 AtmWgt=  12.0000000  12.0000000  12.0000000  12.0000000  12.0000000  12.0000000  12.0000000  12.0000000  12.0000000  12.0000000
 NucSpn=           0           0           0           0           0           0           0           0           0           0
 AtZEff=  -0.0000000  -0.0000000  -0.0000000  -0.0000000  -0.0000000  -0.0000000  -0.0000000  -0.0000000  -0.0000000  -0.0000000
 NQMom=    0.0000000   0.0000000   0.0000000   0.0000000   0.0000000   0.0000000   0.0000000   0.0000000   0.0000000   0.0000000
 NMagM=    0.0000000   0.0000000   0.0000000   0.0000000   0.0000000   0.0000000   0.0000000   0.0000000   0.0000000   0.0000000
 AtZNuc=   6.0000000   6.0000000   6.0000000   6.0000000   6.0000000   6.0000000   6.0000000   6.0000000   6.0000000   6.0000000

  Atom        11          12          13          14          15          16          17          18          19          20
 IAtWgt=          12          12          12          12          12          12          12          12          12          12
 AtmWgt=  12.0000000  12.0000000  12.0000000  12.0000000  12.0000000  12.0000000  12.0000000  12.0000000  12.0000000  12.0000000
 NucSpn=           0           0           0           0           0           0           0           0           0           0
 AtZEff=  -0.0000000  -0.0000000  -0.0000000  -0.0000000  -0.0000000  -0.0000000  -0.0000000  -0.0000000  -0.0000000  -0.0000000
 NQMom=    0.0000000   0.0000000   0.0000000   0.0000000   0.0000000   0.0000000   0.0000000   0.0000000   0.0000000   0.0000000
 NMagM=    0.0000000   0.0000000   0.0000000   0.0000000   0.0000000   0.0000000   0.0000000   0.0000000   0.0000000   0.0000000
 AtZNuc=   6.0000000   6.0000000   6.0000000   6.0000000   6.0000000   6.0000000   6.0000000   6.0000000   6.0000000   6.0000000

  Atom        21          22          23          24          25          26          27          28          29          30
 IAtWgt=          12          12          12          12          12          12          12          12          12          12
 AtmWgt=  12.0000000  12.0000000  12.0000000  12.0000000  12.0000000  12.0000000  12.0000000  12.0000000  12.0000000  12.0000000
 NucSpn=           0           0           0           0           0           0           0           0           0           0
 AtZEff=  -0.0000000  -0.0000000  -0.0000000  -0.0000000  -0.0000000  -0.0000000  -0.0000000  -0.0000000  -0.0000000  -0.0000000
 NQMom=    0.0000000   0.0000000   0.0000000   0.0000000   0.0000000   0.0000000   0.0000000   0.0000000   0.0000000   0.0000000
 NMagM=    0.0000000   0.0000000   0.0000000   0.0000000   0.0000000   0.0000000   0.0000000   0.0000000   0.0000000   0.0000000
 AtZNuc=   6.0000000   6.0000000   6.0000000   6.0000000   6.0000000   6.0000000   6.0000000   6.0000000   6.0000000   6.0000000

  Atom        31          32          33          34          35          36          37          38          39          40
 IAtWgt=          12          12          12          12          12          12          12          12          12          12
 AtmWgt=  12.0000000  12.0000000  12.0000000  12.0000000  12.0000000  12.0000000  12.0000000  12.0000000  12.0000000  12.0000000
 NucSpn=           0           0           0           0           0           0           0           0           0           0
 AtZEff=  -0.0000000  -0.0000000  -0.0000000  -0.0000000  -0.0000000  -0.0000000  -0.0000000  -0.0000000  -0.0000000  -0.0000000
 NQMom=    0.0000000   0.0000000   0.0000000   0.0000000   0.0000000   0.0000000   0.0000000   0.0000000   0.0000000   0.0000000
 NMagM=    0.0000000   0.0000000   0.0000000   0.0000000   0.0000000   0.0000000   0.0000000   0.0000000   0.0000000   0.0000000
 AtZNuc=   6.0000000   6.0000000   6.0000000   6.0000000   6.0000000   6.0000000   6.0000000   6.0000000   6.0000000   6.0000000

  Atom        41          42          43          44          45          46          47          48          49          50
 IAtWgt=          12          12          12          12          12          12          12          12          12          12
 AtmWgt=  12.0000000  12.0000000  12.0000000  12.0000000  12.0000000  12.0000000  12.0000000  12.0000000  12.0000000  12.0000000
 NucSpn=           0           0           0           0           0           0           0           0           0           0
 AtZEff=  -0.0000000  -0.0000000  -0.0000000  -0.0000000  -0.0000000  -0.0000000  -0.0000000  -0.0000000  -0.0000000  -0.0000000
 NQMom=    0.0000000   0.0000000   0.0000000   0.0000000   0.0000000   0.0000000   0.0000000   0.0000000   0.0000000   0.0000000
 NMagM=    0.0000000   0.0000000   0.0000000   0.0000000   0.0000000   0.0000000   0.0000000   0.0000000   0.0000000   0.0000000
 AtZNuc=   6.0000000   6.0000000   6.0000000   6.0000000   6.0000000   6.0000000   6.0000000   6.0000000   6.0000000   6.0000000

  Atom        51          52          53          54          55          56          57          58          59          60
 IAtWgt=          12          12          12          12          12          12          12          12          12          12
 AtmWgt=  12.0000000  12.0000000  12.0000000  12.0000000  12.0000000  12.0000000  12.0000000  12.0000000  12.0000000  12.0000000
 NucSpn=           0           0           0           0           0           0           0           0           0           0
 AtZEff=  -0.0000000  -0.0000000  -0.0000000  -0.0000000  -0.0000000  -0.0000000  -0.0000000  -0.0000000  -0.0000000  -0.0000000
 NQMom=    0.0000000   0.0000000   0.0000000   0.0000000   0.0000000   0.0000000   0.0000000   0.0000000   0.0000000   0.0000000
 NMagM=    0.0000000   0.0000000   0.0000000   0.0000000   0.0000000   0.0000000   0.0000000   0.0000000   0.0000000   0.0000000
 AtZNuc=   6.0000000   6.0000000   6.0000000   6.0000000   6.0000000   6.0000000   6.0000000   6.0000000   6.0000000   6.0000000

  Atom        61          62          63          64          65          66          67          68          69          70
 IAtWgt=          12          12          12          12          12          12          35          35          35          35
 AtmWgt=  12.0000000  12.0000000  12.0000000  12.0000000  12.0000000  12.0000000  34.9688527  34.9688527  34.9688527  34.9688527
 NucSpn=           0           0           0           0           0           0           3           3           3           3
 AtZEff=  -0.0000000  -0.0000000  -0.0000000  -0.0000000  -0.0000000  -0.0000000  -0.0000000  -0.0000000  -0.0000000  -0.0000000
 NQMom=    0.0000000   0.0000000   0.0000000   0.0000000   0.0000000   0.0000000  -8.1650000  -8.1650000  -8.1650000  -8.1650000
 NMagM=    0.0000000   0.0000000   0.0000000   0.0000000   0.0000000   0.0000000   0.8218740   0.8218740   0.8218740   0.8218740
 AtZNuc=   6.0000000   6.0000000   6.0000000   6.0000000   6.0000000   6.0000000  17.0000000  17.0000000  17.0000000  17.0000000

  Atom        71          72          73          74          75          76
 IAtWgt=          35          35          35          35          35          35
 AtmWgt=  34.9688527  34.9688527  34.9688527  34.9688527  34.9688527  34.9688527
 NucSpn=           3           3           3           3           3           3
 AtZEff=  -0.0000000  -0.0000000  -0.0000000  -0.0000000  -0.0000000  -0.0000000
 NQMom=   -8.1650000  -8.1650000  -8.1650000  -8.1650000  -8.1650000  -8.1650000
 NMagM=    0.8218740   0.8218740   0.8218740   0.8218740   0.8218740   0.8218740
 AtZNuc=  17.0000000  17.0000000  17.0000000  17.0000000  17.0000000  17.0000000
 Leave Link  101 at Fri Jul 15 03:57:26 2022, MaxMem=  1342177280 cpu:              13.4 elap:               0.3
 (Enter /home/mkliu/g16/l103.exe)

 GradGradGradGradGradGradGradGradGradGradGradGradGradGradGradGradGradGrad
 Berny optimization.
 Initialization pass.
                           ----------------------------
                           !    Initial Parameters    !
                           ! (Angstroms and Degrees)  !
 --------------------------                            --------------------------
 ! Name  Definition              Value          Derivative Info.                !
 --------------------------------------------------------------------------------
 ! R1    R(1,2)                  1.5875         estimate D2E/DX2                !
 ! R2    R(1,4)                  1.4806         estimate D2E/DX2                !
 ! R3    R(1,7)                  1.544          estimate D2E/DX2                !
 ! R4    R(1,67)                 1.7925         estimate D2E/DX2                !
 ! R5    R(2,3)                  1.5764         estimate D2E/DX2                !
 ! R6    R(2,10)                 1.5642         estimate D2E/DX2                !
 ! R7    R(2,68)                 1.7768         estimate D2E/DX2                !
 ! R8    R(3,5)                  1.4813         estimate D2E/DX2                !
 ! R9    R(3,12)                 1.5067         estimate D2E/DX2                !
 ! R10   R(3,69)                 1.7702         estimate D2E/DX2                !
 ! R11   R(4,5)                  1.3788         estimate D2E/DX2                !
 ! R12   R(4,6)                  1.3609         estimate D2E/DX2                !
 ! R13   R(5,15)                 1.3582         estimate D2E/DX2                !
 ! R14   R(6,8)                  1.4789         estimate D2E/DX2                !
 ! R15   R(6,17)                 1.3987         estimate D2E/DX2                !
 ! R16   R(7,8)                  1.6019         estimate D2E/DX2                !
 ! R17   R(7,9)                  1.4954         estimate D2E/DX2                !
 ! R18   R(7,75)                 1.7971         estimate D2E/DX2                !
 ! R19   R(8,20)                 1.501          estimate D2E/DX2                !
 ! R20   R(8,76)                 1.8223         estimate D2E/DX2                !
 ! R21   R(9,11)                 1.4081         estimate D2E/DX2                !
 ! R22   R(9,22)                 1.3768         estimate D2E/DX2                !
 ! R23   R(10,11)                1.5042         estimate D2E/DX2                !
 ! R24   R(10,13)                1.5078         estimate D2E/DX2                !
 ! R25   R(10,74)                1.7936         estimate D2E/DX2                !
 ! R26   R(11,25)                1.3834         estimate D2E/DX2                !
 ! R27   R(12,13)                1.3689         estimate D2E/DX2                !
 ! R28   R(12,14)                1.391          estimate D2E/DX2                !
 ! R29   R(13,27)                1.3829         estimate D2E/DX2                !
 ! R30   R(14,16)                1.5263         estimate D2E/DX2                !
 ! R31   R(14,29)                1.3996         estimate D2E/DX2                !
 ! R32   R(15,16)                1.5098         estimate D2E/DX2                !
 ! R33   R(15,18)                1.4149         estimate D2E/DX2                !
 ! R34   R(16,32)                1.4977         estimate D2E/DX2                !
 ! R35   R(16,70)                1.7871         estimate D2E/DX2                !
 ! R36   R(17,18)                1.4034         estimate D2E/DX2                !
 ! R37   R(17,19)                1.4498         estimate D2E/DX2                !
 ! R38   R(18,33)                1.41           estimate D2E/DX2                !
 ! R39   R(19,21)                1.4506         estimate D2E/DX2                !
 ! R40   R(19,35)                1.3958         estimate D2E/DX2                !
 ! R41   R(20,21)                1.448          estimate D2E/DX2                !
 ! R42   R(20,23)                1.3674         estimate D2E/DX2                !
 ! R43   R(21,38)                1.4029         estimate D2E/DX2                !
 ! R44   R(22,23)                1.4755         estimate D2E/DX2                !
 ! R45   R(22,24)                1.408          estimate D2E/DX2                !
 ! R46   R(23,40)                1.4248         estimate D2E/DX2                !
 ! R47   R(24,26)                1.3799         estimate D2E/DX2                !
 ! R48   R(24,41)                1.4295         estimate D2E/DX2                !
 ! R49   R(25,26)                1.4088         estimate D2E/DX2                !
 ! R50   R(25,28)                1.5142         estimate D2E/DX2                !
 ! R51   R(26,44)                1.4219         estimate D2E/DX2                !
 ! R52   R(27,28)                1.5076         estimate D2E/DX2                !
 ! R53   R(27,30)                1.3964         estimate D2E/DX2                !
 ! R54   R(28,45)                1.4995         estimate D2E/DX2                !
 ! R55   R(28,73)                1.7953         estimate D2E/DX2                !
 ! R56   R(29,30)                1.4044         estimate D2E/DX2                !
 ! R57   R(29,31)                1.5254         estimate D2E/DX2                !
 ! R58   R(30,47)                1.522          estimate D2E/DX2                !
 ! R59   R(31,34)                1.5047         estimate D2E/DX2                !
 ! R60   R(31,49)                1.5037         estimate D2E/DX2                !
 ! R61   R(31,71)                1.8063         estimate D2E/DX2                !
 ! R62   R(32,33)                1.4323         estimate D2E/DX2                !
 ! R63   R(32,34)                1.3523         estimate D2E/DX2                !
 ! R64   R(33,36)                1.3693         estimate D2E/DX2                !
 ! R65   R(34,51)                1.4296         estimate D2E/DX2                !
 ! R66   R(35,36)                1.4423         estimate D2E/DX2                !
 ! R67   R(35,37)                1.4324         estimate D2E/DX2                !
 ! R68   R(36,52)                1.4222         estimate D2E/DX2                !
 ! R69   R(37,39)                1.3692         estimate D2E/DX2                !
 ! R70   R(37,53)                1.441          estimate D2E/DX2                !
 ! R71   R(38,39)                1.4363         estimate D2E/DX2                !
 ! R72   R(38,42)                1.428          estimate D2E/DX2                !
 ! R73   R(39,57)                1.4414         estimate D2E/DX2                !
 ! R74   R(40,41)                1.435          estimate D2E/DX2                !
 ! R75   R(40,42)                1.3754         estimate D2E/DX2                !
 ! R76   R(41,43)                1.38           estimate D2E/DX2                !
 ! R77   R(42,58)                1.4392         estimate D2E/DX2                !
 ! R78   R(43,46)                1.4397         estimate D2E/DX2                !
 ! R79   R(43,59)                1.4367         estimate D2E/DX2                !
 ! R80   R(44,45)                1.4242         estimate D2E/DX2                !
 ! R81   R(44,46)                1.3798         estimate D2E/DX2                !
 ! R82   R(45,48)                1.3542         estimate D2E/DX2                !
 ! R83   R(46,61)                1.4216         estimate D2E/DX2                !
 ! R84   R(47,48)                1.5033         estimate D2E/DX2                !
 ! R85   R(47,50)                1.5021         estimate D2E/DX2                !
 ! R86   R(47,72)                1.8079         estimate D2E/DX2                !
 ! R87   R(48,62)                1.4293         estimate D2E/DX2                !
 ! R88   R(49,50)                1.3553         estimate D2E/DX2                !
 ! R89   R(49,54)                1.4332         estimate D2E/DX2                !
 ! R90   R(50,63)                1.4335         estimate D2E/DX2                !
 ! R91   R(51,52)                1.3874         estimate D2E/DX2                !
 ! R92   R(51,54)                1.4213         estimate D2E/DX2                !
 ! R93   R(52,53)                1.4301         estimate D2E/DX2                !
 ! R94   R(53,55)                1.3783         estimate D2E/DX2                !
 ! R95   R(54,56)                1.3826         estimate D2E/DX2                !
 ! R96   R(55,56)                1.4372         estimate D2E/DX2                !
 ! R97   R(55,60)                1.4363         estimate D2E/DX2                !
 ! R98   R(56,64)                1.4198         estimate D2E/DX2                !
 ! R99   R(57,58)                1.4331         estimate D2E/DX2                !
 ! R100  R(57,60)                1.3789         estimate D2E/DX2                !
 ! R101  R(58,59)                1.3817         estimate D2E/DX2                !
 ! R102  R(59,65)                1.4372         estimate D2E/DX2                !
 ! R103  R(60,66)                1.4373         estimate D2E/DX2                !
 ! R104  R(61,62)                1.3841         estimate D2E/DX2                !
 ! R105  R(61,65)                1.4359         estimate D2E/DX2                !
 ! R106  R(62,63)                1.4239         estimate D2E/DX2                !
 ! R107  R(63,64)                1.3796         estimate D2E/DX2                !
 ! R108  R(64,66)                1.4378         estimate D2E/DX2                !
 ! R109  R(65,66)                1.3795         estimate D2E/DX2                !
 ! A1    A(2,1,4)              102.6888         estimate D2E/DX2                !
 ! A2    A(2,1,7)              121.0945         estimate D2E/DX2                !
 ! A3    A(2,1,67)             112.5589         estimate D2E/DX2                !
 ! A4    A(4,1,7)              101.1812         estimate D2E/DX2                !
 ! A5    A(4,1,67)             107.2932         estimate D2E/DX2                !
 ! A6    A(7,1,67)             110.1698         estimate D2E/DX2                !
 ! A7    A(1,2,3)              105.2065         estimate D2E/DX2                !
 ! A8    A(1,2,10)             116.8006         estimate D2E/DX2                !
 ! A9    A(1,2,68)             108.5116         estimate D2E/DX2                !
 ! A10   A(3,2,10)             102.7354         estimate D2E/DX2                !
 ! A11   A(3,2,68)             111.6087         estimate D2E/DX2                !
 ! A12   A(10,2,68)            111.6821         estimate D2E/DX2                !
 ! A13   A(2,3,5)              105.7703         estimate D2E/DX2                !
 ! A14   A(2,3,12)             107.1695         estimate D2E/DX2                !
 ! A15   A(2,3,69)             115.841          estimate D2E/DX2                !
 ! A16   A(5,3,12)             100.7419         estimate D2E/DX2                !
 ! A17   A(5,3,69)             115.0098         estimate D2E/DX2                !
 ! A18   A(12,3,69)            110.9781         estimate D2E/DX2                !
 ! A19   A(1,4,5)              114.2894         estimate D2E/DX2                !
 ! A20   A(1,4,6)              115.1368         estimate D2E/DX2                !
 ! A21   A(5,4,6)              124.3508         estimate D2E/DX2                !
 ! A22   A(3,5,4)              110.1935         estimate D2E/DX2                !
 ! A23   A(3,5,15)             123.2709         estimate D2E/DX2                !
 ! A24   A(4,5,15)             116.896          estimate D2E/DX2                !
 ! A25   A(4,6,8)              110.4777         estimate D2E/DX2                !
 ! A26   A(4,6,17)             120.0001         estimate D2E/DX2                !
 ! A27   A(8,6,17)             126.6536         estimate D2E/DX2                !
 ! A28   A(1,7,8)              105.7022         estimate D2E/DX2                !
 ! A29   A(1,7,9)              113.7027         estimate D2E/DX2                !
 ! A30   A(1,7,75)             113.2594         estimate D2E/DX2                !
 ! A31   A(8,7,9)              108.0635         estimate D2E/DX2                !
 ! A32   A(8,7,75)             111.3079         estimate D2E/DX2                !
 ! A33   A(9,7,75)             104.8093         estimate D2E/DX2                !
 ! A34   A(6,8,7)              102.0787         estimate D2E/DX2                !
 ! A35   A(6,8,20)             109.4847         estimate D2E/DX2                !
 ! A36   A(6,8,76)             109.4197         estimate D2E/DX2                !
 ! A37   A(7,8,20)             120.3337         estimate D2E/DX2                !
 ! A38   A(7,8,76)             109.7277         estimate D2E/DX2                !
 ! A39   A(20,8,76)            105.5471         estimate D2E/DX2                !
 ! A40   A(7,9,11)             126.3496         estimate D2E/DX2                !
 ! A41   A(7,9,22)             114.9763         estimate D2E/DX2                !
 ! A42   A(11,9,22)            118.6719         estimate D2E/DX2                !
 ! A43   A(2,10,11)            117.963          estimate D2E/DX2                !
 ! A44   A(2,10,13)            107.0393         estimate D2E/DX2                !
 ! A45   A(2,10,74)            111.4617         estimate D2E/DX2                !
 ! A46   A(11,10,13)           100.3513         estimate D2E/DX2                !
 ! A47   A(11,10,74)           109.0091         estimate D2E/DX2                !
 ! A48   A(13,10,74)           110.3251         estimate D2E/DX2                !
 ! A49   A(9,11,10)            121.8045         estimate D2E/DX2                !
 ! A50   A(9,11,25)            119.319          estimate D2E/DX2                !
 ! A51   A(10,11,25)           116.099          estimate D2E/DX2                !
 ! A52   A(3,12,13)            110.337          estimate D2E/DX2                !
 ! A53   A(3,12,14)            126.0012         estimate D2E/DX2                !
 ! A54   A(13,12,14)           120.9521         estimate D2E/DX2                !
 ! A55   A(10,13,12)           111.6547         estimate D2E/DX2                !
 ! A56   A(10,13,27)           126.436          estimate D2E/DX2                !
 ! A57   A(12,13,27)           120.1372         estimate D2E/DX2                !
 ! A58   A(12,14,16)           117.9539         estimate D2E/DX2                !
 ! A59   A(12,14,29)           119.0451         estimate D2E/DX2                !
 ! A60   A(16,14,29)           121.4185         estimate D2E/DX2                !
 ! A61   A(5,15,16)            123.1312         estimate D2E/DX2                !
 ! A62   A(5,15,18)            119.6739         estimate D2E/DX2                !
 ! A63   A(16,15,18)           110.6905         estimate D2E/DX2                !
 ! A64   A(14,16,15)           102.942          estimate D2E/DX2                !
 ! A65   A(14,16,32)           109.6072         estimate D2E/DX2                !
 ! A66   A(14,16,70)           111.1963         estimate D2E/DX2                !
 ! A67   A(15,16,32)           101.1587         estimate D2E/DX2                !
 ! A68   A(15,16,70)           117.206          estimate D2E/DX2                !
 ! A69   A(32,16,70)           113.7738         estimate D2E/DX2                !
 ! A70   A(6,17,18)            115.4096         estimate D2E/DX2                !
 ! A71   A(6,17,19)            119.4753         estimate D2E/DX2                !
 ! A72   A(18,17,19)           120.4794         estimate D2E/DX2                !
 ! A73   A(15,18,17)           122.3421         estimate D2E/DX2                !
 ! A74   A(15,18,33)           108.4061         estimate D2E/DX2                !
 ! A75   A(17,18,33)           121.7512         estimate D2E/DX2                !
 ! A76   A(17,19,21)           117.6113         estimate D2E/DX2                !
 ! A77   A(17,19,35)           116.2078         estimate D2E/DX2                !
 ! A78   A(21,19,35)           119.6384         estimate D2E/DX2                !
 ! A79   A(8,20,21)            121.8256         estimate D2E/DX2                !
 ! A80   A(8,20,23)            115.451          estimate D2E/DX2                !
 ! A81   A(21,20,23)           118.8447         estimate D2E/DX2                !
 ! A82   A(19,21,20)           120.3566         estimate D2E/DX2                !
 ! A83   A(19,21,38)           117.3937         estimate D2E/DX2                !
 ! A84   A(20,21,38)           116.8261         estimate D2E/DX2                !
 ! A85   A(9,22,23)            122.9595         estimate D2E/DX2                !
 ! A86   A(9,22,24)            122.0704         estimate D2E/DX2                !
 ! A87   A(23,22,24)           107.235          estimate D2E/DX2                !
 ! A88   A(20,23,22)           118.153          estimate D2E/DX2                !
 ! A89   A(20,23,40)           122.4646         estimate D2E/DX2                !
 ! A90   A(22,23,40)           107.1295         estimate D2E/DX2                !
 ! A91   A(22,24,26)           118.7942         estimate D2E/DX2                !
 ! A92   A(22,24,41)           109.4102         estimate D2E/DX2                !
 ! A93   A(26,24,41)           121.204          estimate D2E/DX2                !
 ! A94   A(11,25,26)           121.0218         estimate D2E/DX2                !
 ! A95   A(11,25,28)           125.4607         estimate D2E/DX2                !
 ! A96   A(26,25,28)           108.3478         estimate D2E/DX2                !
 ! A97   A(24,26,25)           119.3626         estimate D2E/DX2                !
 ! A98   A(24,26,44)           119.4619         estimate D2E/DX2                !
 ! A99   A(25,26,44)           111.1153         estimate D2E/DX2                !
 ! A100  A(13,27,28)           116.5912         estimate D2E/DX2                !
 ! A101  A(13,27,30)           119.7367         estimate D2E/DX2                !
 ! A102  A(28,27,30)           122.4979         estimate D2E/DX2                !
 ! A103  A(25,28,27)           103.8399         estimate D2E/DX2                !
 ! A104  A(25,28,45)           101.7899         estimate D2E/DX2                !
 ! A105  A(25,28,73)           117.9139         estimate D2E/DX2                !
 ! A106  A(27,28,45)           111.3013         estimate D2E/DX2                !
 ! A107  A(27,28,73)           110.9622         estimate D2E/DX2                !
 ! A108  A(45,28,73)           110.5644         estimate D2E/DX2                !
 ! A109  A(14,29,30)           119.2249         estimate D2E/DX2                !
 ! A110  A(14,29,31)           118.8438         estimate D2E/DX2                !
 ! A111  A(30,29,31)           121.2516         estimate D2E/DX2                !
 ! A112  A(27,30,29)           119.9581         estimate D2E/DX2                !
 ! A113  A(27,30,47)           119.1536         estimate D2E/DX2                !
 ! A114  A(29,30,47)           120.4513         estimate D2E/DX2                !
 ! A115  A(29,31,34)           109.9098         estimate D2E/DX2                !
 ! A116  A(29,31,49)           110.9038         estimate D2E/DX2                !
 ! A117  A(29,31,71)           107.4581         estimate D2E/DX2                !
 ! A118  A(34,31,49)           100.8401         estimate D2E/DX2                !
 ! A119  A(34,31,71)           114.2022         estimate D2E/DX2                !
 ! A120  A(49,31,71)           113.4704         estimate D2E/DX2                !
 ! A121  A(16,32,33)           110.2041         estimate D2E/DX2                !
 ! A122  A(16,32,34)           122.1382         estimate D2E/DX2                !
 ! A123  A(33,32,34)           118.3285         estimate D2E/DX2                !
 ! A124  A(18,33,32)           108.3735         estimate D2E/DX2                !
 ! A125  A(18,33,36)           118.1555         estimate D2E/DX2                !
 ! A126  A(32,33,36)           122.913          estimate D2E/DX2                !
 ! A127  A(31,34,32)           121.6027         estimate D2E/DX2                !
 ! A128  A(31,34,51)           111.5184         estimate D2E/DX2                !
 ! A129  A(32,34,51)           119.2263         estimate D2E/DX2                !
 ! A130  A(19,35,36)           121.5509         estimate D2E/DX2                !
 ! A131  A(19,35,37)           121.7489         estimate D2E/DX2                !
 ! A132  A(36,35,37)           106.8823         estimate D2E/DX2                !
 ! A133  A(33,36,35)           121.1208         estimate D2E/DX2                !
 ! A134  A(33,36,52)           118.103          estimate D2E/DX2                !
 ! A135  A(35,36,52)           109.4779         estimate D2E/DX2                !
 ! A136  A(35,37,39)           119.0303         estimate D2E/DX2                !
 ! A137  A(35,37,53)           107.4837         estimate D2E/DX2                !
 ! A138  A(39,37,53)           121.4809         estimate D2E/DX2                !
 ! A139  A(21,38,39)           121.9586         estimate D2E/DX2                !
 ! A140  A(21,38,42)           122.7498         estimate D2E/DX2                !
 ! A141  A(39,38,42)           106.4277         estimate D2E/DX2                !
 ! A142  A(37,39,38)           120.1822         estimate D2E/DX2                !
 ! A143  A(37,39,57)           119.2637         estimate D2E/DX2                !
 ! A144  A(38,39,57)           109.3982         estimate D2E/DX2                !
 ! A145  A(23,40,41)           108.5206         estimate D2E/DX2                !
 ! A146  A(23,40,42)           119.5546         estimate D2E/DX2                !
 ! A147  A(41,40,42)           119.9042         estimate D2E/DX2                !
 ! A148  A(24,41,40)           107.6613         estimate D2E/DX2                !
 ! A149  A(24,41,43)           119.488          estimate D2E/DX2                !
 ! A150  A(40,41,43)           120.1748         estimate D2E/DX2                !
 ! A151  A(38,42,40)           118.2792         estimate D2E/DX2                !
 ! A152  A(38,42,58)           109.0585         estimate D2E/DX2                !
 ! A153  A(40,42,58)           120.2573         estimate D2E/DX2                !
 ! A154  A(41,43,46)           119.2325         estimate D2E/DX2                !
 ! A155  A(41,43,59)           119.7808         estimate D2E/DX2                !
 ! A156  A(46,43,59)           108.7201         estimate D2E/DX2                !
 ! A157  A(26,44,45)           106.641          estimate D2E/DX2                !
 ! A158  A(26,44,46)           119.8164         estimate D2E/DX2                !
 ! A159  A(45,44,46)           121.8561         estimate D2E/DX2                !
 ! A160  A(28,45,44)           110.5709         estimate D2E/DX2                !
 ! A161  A(28,45,48)           121.9178         estimate D2E/DX2                !
 ! A162  A(44,45,48)           119.5849         estimate D2E/DX2                !
 ! A163  A(43,46,44)           120.7865         estimate D2E/DX2                !
 ! A164  A(43,46,61)           108.0245         estimate D2E/DX2                !
 ! A165  A(44,46,61)           118.7043         estimate D2E/DX2                !
 ! A166  A(30,47,48)           110.6862         estimate D2E/DX2                !
 ! A167  A(30,47,50)           110.8908         estimate D2E/DX2                !
 ! A168  A(30,47,72)           106.5168         estimate D2E/DX2                !
 ! A169  A(48,47,50)           101.285          estimate D2E/DX2                !
 ! A170  A(48,47,72)           113.5509         estimate D2E/DX2                !
 ! A171  A(50,47,72)           113.9732         estimate D2E/DX2                !
 ! A172  A(45,48,47)           122.5511         estimate D2E/DX2                !
 ! A173  A(45,48,62)           119.1545         estimate D2E/DX2                !
 ! A174  A(47,48,62)           111.0683         estimate D2E/DX2                !
 ! A175  A(31,49,50)           122.3881         estimate D2E/DX2                !
 ! A176  A(31,49,54)           110.7929         estimate D2E/DX2                !
 ! A177  A(50,49,54)           119.1918         estimate D2E/DX2                !
 ! A178  A(47,50,49)           122.5286         estimate D2E/DX2                !
 ! A179  A(47,50,63)           110.6418         estimate D2E/DX2                !
 ! A180  A(49,50,63)           119.3818         estimate D2E/DX2                !
 ! A181  A(34,51,52)           121.5806         estimate D2E/DX2                !
 ! A182  A(34,51,54)           107.8521         estimate D2E/DX2                !
 ! A183  A(52,51,54)           119.4047         estimate D2E/DX2                !
 ! A184  A(36,52,51)           118.7262         estimate D2E/DX2                !
 ! A185  A(36,52,53)           106.64           estimate D2E/DX2                !
 ! A186  A(51,52,53)           121.3347         estimate D2E/DX2                !
 ! A187  A(37,53,52)           109.0753         estimate D2E/DX2                !
 ! A188  A(37,53,55)           118.9203         estimate D2E/DX2                !
 ! A189  A(52,53,55)           119.2896         estimate D2E/DX2                !
 ! A190  A(49,54,51)           108.6298         estimate D2E/DX2                !
 ! A191  A(49,54,56)           121.5984         estimate D2E/DX2                !
 ! A192  A(51,54,56)           119.1876         estimate D2E/DX2                !
 ! A193  A(53,55,56)           119.0961         estimate D2E/DX2                !
 ! A194  A(53,55,60)           119.7805         estimate D2E/DX2                !
 ! A195  A(56,55,60)           108.9829         estimate D2E/DX2                !
 ! A196  A(54,56,55)           121.4546         estimate D2E/DX2                !
 ! A197  A(54,56,64)           119.1868         estimate D2E/DX2                !
 ! A198  A(55,56,64)           107.7039         estimate D2E/DX2                !
 ! A199  A(39,57,58)           106.8635         estimate D2E/DX2                !
 ! A200  A(39,57,60)           119.391          estimate D2E/DX2                !
 ! A201  A(58,57,60)           120.016          estimate D2E/DX2                !
 ! A202  A(42,58,57)           107.9112         estimate D2E/DX2                !
 ! A203  A(42,58,59)           119.5523         estimate D2E/DX2                !
 ! A204  A(57,58,59)           119.8906         estimate D2E/DX2                !
 ! A205  A(43,59,58)           120.1992         estimate D2E/DX2                !
 ! A206  A(43,59,65)           106.4651         estimate D2E/DX2                !
 ! A207  A(58,59,65)           120.1252         estimate D2E/DX2                !
 ! A208  A(55,60,57)           120.8071         estimate D2E/DX2                !
 ! A209  A(55,60,66)           106.5113         estimate D2E/DX2                !
 ! A210  A(57,60,66)           120.1107         estimate D2E/DX2                !
 ! A211  A(46,61,62)           118.987          estimate D2E/DX2                !
 ! A212  A(46,61,65)           107.6183         estimate D2E/DX2                !
 ! A213  A(62,61,65)           121.2131         estimate D2E/DX2                !
 ! A214  A(48,62,61)           121.5834         estimate D2E/DX2                !
 ! A215  A(48,62,63)           108.1024         estimate D2E/DX2                !
 ! A216  A(61,62,63)           119.7164         estimate D2E/DX2                !
 ! A217  A(50,63,62)           108.5362         estimate D2E/DX2                !
 ! A218  A(50,63,64)           121.8177         estimate D2E/DX2                !
 ! A219  A(62,63,64)           119.092          estimate D2E/DX2                !
 ! A220  A(56,64,63)           118.7631         estimate D2E/DX2                !
 ! A221  A(56,64,66)           108.0521         estimate D2E/DX2                !
 ! A222  A(63,64,66)           121.504          estimate D2E/DX2                !
 ! A223  A(59,65,61)           109.1308         estimate D2E/DX2                !
 ! A224  A(59,65,66)           119.8248         estimate D2E/DX2                !
 ! A225  A(61,65,66)           119.0601         estimate D2E/DX2                !
 ! A226  A(60,66,64)           108.6938         estimate D2E/DX2                !
 ! A227  A(60,66,65)           119.9316         estimate D2E/DX2                !
 ! A228  A(64,66,65)           119.3112         estimate D2E/DX2                !
 ! D1    D(4,1,2,3)             11.5126         estimate D2E/DX2                !
 ! D2    D(4,1,2,10)          -101.6442         estimate D2E/DX2                !
 ! D3    D(4,1,2,68)           131.0809         estimate D2E/DX2                !
 ! D4    D(7,1,2,3)            123.0994         estimate D2E/DX2                !
 ! D5    D(7,1,2,10)             9.9426         estimate D2E/DX2                !
 ! D6    D(7,1,2,68)          -117.3323         estimate D2E/DX2                !
 ! D7    D(67,1,2,3)          -103.5421         estimate D2E/DX2                !
 ! D8    D(67,1,2,10)          143.3011         estimate D2E/DX2                !
 ! D9    D(67,1,2,68)           16.0262         estimate D2E/DX2                !
 ! D10   D(2,1,4,5)            -14.2728         estimate D2E/DX2                !
 ! D11   D(2,1,4,6)            139.3093         estimate D2E/DX2                !
 ! D12   D(7,1,4,5)           -140.0141         estimate D2E/DX2                !
 ! D13   D(7,1,4,6)             13.568          estimate D2E/DX2                !
 ! D14   D(67,1,4,5)           104.5402         estimate D2E/DX2                !
 ! D15   D(67,1,4,6)          -101.8777         estimate D2E/DX2                !
 ! D16   D(2,1,7,8)           -133.8374         estimate D2E/DX2                !
 ! D17   D(2,1,7,9)            -15.4659         estimate D2E/DX2                !
 ! D18   D(2,1,7,75)           104.0425         estimate D2E/DX2                !
 ! D19   D(4,1,7,8)            -21.4611         estimate D2E/DX2                !
 ! D20   D(4,1,7,9)             96.9104         estimate D2E/DX2                !
 ! D21   D(4,1,7,75)          -143.5812         estimate D2E/DX2                !
 ! D22   D(67,1,7,8)            91.8309         estimate D2E/DX2                !
 ! D23   D(67,1,7,9)          -149.7976         estimate D2E/DX2                !
 ! D24   D(67,1,7,75)          -30.2892         estimate D2E/DX2                !
 ! D25   D(1,2,3,5)             -5.9797         estimate D2E/DX2                !
 ! D26   D(1,2,3,12)          -112.8356         estimate D2E/DX2                !
 ! D27   D(1,2,3,69)           122.6944         estimate D2E/DX2                !
 ! D28   D(10,2,3,5)           116.7356         estimate D2E/DX2                !
 ! D29   D(10,2,3,12)            9.8797         estimate D2E/DX2                !
 ! D30   D(10,2,3,69)         -114.5903         estimate D2E/DX2                !
 ! D31   D(68,2,3,5)          -123.4673         estimate D2E/DX2                !
 ! D32   D(68,2,3,12)          129.6768         estimate D2E/DX2                !
 ! D33   D(68,2,3,69)            5.2069         estimate D2E/DX2                !
 ! D34   D(1,2,10,11)           -4.0657         estimate D2E/DX2                !
 ! D35   D(1,2,10,13)          107.9881         estimate D2E/DX2                !
 ! D36   D(1,2,10,74)         -131.2915         estimate D2E/DX2                !
 ! D37   D(3,2,10,11)         -118.6132         estimate D2E/DX2                !
 ! D38   D(3,2,10,13)           -6.5593         estimate D2E/DX2                !
 ! D39   D(3,2,10,74)          114.1611         estimate D2E/DX2                !
 ! D40   D(68,2,10,11)         121.6406         estimate D2E/DX2                !
 ! D41   D(68,2,10,13)        -126.3055         estimate D2E/DX2                !
 ! D42   D(68,2,10,74)          -5.5851         estimate D2E/DX2                !
 ! D43   D(2,3,5,4)             -2.4696         estimate D2E/DX2                !
 ! D44   D(2,3,5,15)          -147.3374         estimate D2E/DX2                !
 ! D45   D(12,3,5,4)           108.9868         estimate D2E/DX2                !
 ! D46   D(12,3,5,15)          -35.881          estimate D2E/DX2                !
 ! D47   D(69,3,5,4)          -131.6331         estimate D2E/DX2                !
 ! D48   D(69,3,5,15)           83.4991         estimate D2E/DX2                !
 ! D49   D(2,3,12,13)          -10.2168         estimate D2E/DX2                !
 ! D50   D(2,3,12,14)          151.1013         estimate D2E/DX2                !
 ! D51   D(5,3,12,13)         -120.5908         estimate D2E/DX2                !
 ! D52   D(5,3,12,14)           40.7274         estimate D2E/DX2                !
 ! D53   D(69,3,12,13)         117.1602         estimate D2E/DX2                !
 ! D54   D(69,3,12,14)         -81.5217         estimate D2E/DX2                !
 ! D55   D(1,4,5,3)             11.1043         estimate D2E/DX2                !
 ! D56   D(1,4,5,15)           158.455          estimate D2E/DX2                !
 ! D57   D(6,4,5,3)           -139.6954         estimate D2E/DX2                !
 ! D58   D(6,4,5,15)             7.6553         estimate D2E/DX2                !
 ! D59   D(1,4,6,8)              1.1599         estimate D2E/DX2                !
 ! D60   D(1,4,6,17)          -160.9104         estimate D2E/DX2                !
 ! D61   D(5,4,6,8)            151.7407         estimate D2E/DX2                !
 ! D62   D(5,4,6,17)           -10.3296         estimate D2E/DX2                !
 ! D63   D(3,5,15,16)           -3.4054         estimate D2E/DX2                !
 ! D64   D(3,5,15,18)          145.6291         estimate D2E/DX2                !
 ! D65   D(4,5,15,16)         -146.1334         estimate D2E/DX2                !
 ! D66   D(4,5,15,18)            2.9011         estimate D2E/DX2                !
 ! D67   D(4,6,8,7)            -14.8162         estimate D2E/DX2                !
 ! D68   D(4,6,8,20)          -143.3926         estimate D2E/DX2                !
 ! D69   D(4,6,8,76)           101.3808         estimate D2E/DX2                !
 ! D70   D(17,6,8,7)           145.7743         estimate D2E/DX2                !
 ! D71   D(17,6,8,20)           17.1978         estimate D2E/DX2                !
 ! D72   D(17,6,8,76)          -98.0288         estimate D2E/DX2                !
 ! D73   D(4,6,17,18)            2.0247         estimate D2E/DX2                !
 ! D74   D(4,6,17,19)          158.0232         estimate D2E/DX2                !
 ! D75   D(8,6,17,18)         -156.907          estimate D2E/DX2                !
 ! D76   D(8,6,17,19)           -0.9085         estimate D2E/DX2                !
 ! D77   D(1,7,8,6)             22.5629         estimate D2E/DX2                !
 ! D78   D(1,7,8,20)           143.9239         estimate D2E/DX2                !
 ! D79   D(1,7,8,76)           -93.4103         estimate D2E/DX2                !
 ! D80   D(9,7,8,6)            -99.5041         estimate D2E/DX2                !
 ! D81   D(9,7,8,20)            21.8568         estimate D2E/DX2                !
 ! D82   D(9,7,8,76)           144.5226         estimate D2E/DX2                !
 ! D83   D(75,7,8,6)           145.9268         estimate D2E/DX2                !
 ! D84   D(75,7,8,20)          -92.7123         estimate D2E/DX2                !
 ! D85   D(75,7,8,76)           29.9535         estimate D2E/DX2                !
 ! D86   D(1,7,9,11)            17.2882         estimate D2E/DX2                !
 ! D87   D(1,7,9,22)          -162.1668         estimate D2E/DX2                !
 ! D88   D(8,7,9,11)           134.294          estimate D2E/DX2                !
 ! D89   D(8,7,9,22)           -45.161          estimate D2E/DX2                !
 ! D90   D(75,7,9,11)         -106.9175         estimate D2E/DX2                !
 ! D91   D(75,7,9,22)           73.6275         estimate D2E/DX2                !
 ! D92   D(6,8,20,21)          -24.6529         estimate D2E/DX2                !
 ! D93   D(6,8,20,23)          132.8965         estimate D2E/DX2                !
 ! D94   D(7,8,20,21)         -142.3119         estimate D2E/DX2                !
 ! D95   D(7,8,20,23)           15.2375         estimate D2E/DX2                !
 ! D96   D(76,8,20,21)          93.0258         estimate D2E/DX2                !
 ! D97   D(76,8,20,23)        -109.4248         estimate D2E/DX2                !
 ! D98   D(7,9,11,10)          -12.5841         estimate D2E/DX2                !
 ! D99   D(7,9,11,25)         -172.969          estimate D2E/DX2                !
 ! D100  D(22,9,11,10)         166.8528         estimate D2E/DX2                !
 ! D101  D(22,9,11,25)           6.4679         estimate D2E/DX2                !
 ! D102  D(7,9,22,23)           35.4708         estimate D2E/DX2                !
 ! D103  D(7,9,22,24)         -179.1435         estimate D2E/DX2                !
 ! D104  D(11,9,22,23)        -144.0288         estimate D2E/DX2                !
 ! D105  D(11,9,22,24)           1.3569         estimate D2E/DX2                !
 ! D106  D(2,10,11,9)            5.0513         estimate D2E/DX2                !
 ! D107  D(2,10,11,25)         166.0292         estimate D2E/DX2                !
 ! D108  D(13,10,11,9)        -110.6842         estimate D2E/DX2                !
 ! D109  D(13,10,11,25)         50.2937         estimate D2E/DX2                !
 ! D110  D(74,10,11,9)         133.4424         estimate D2E/DX2                !
 ! D111  D(74,10,11,25)        -65.5797         estimate D2E/DX2                !
 ! D112  D(2,10,13,12)           0.6996         estimate D2E/DX2                !
 ! D113  D(2,10,13,27)        -163.9997         estimate D2E/DX2                !
 ! D114  D(11,10,13,12)        124.3775         estimate D2E/DX2                !
 ! D115  D(11,10,13,27)        -40.3218         estimate D2E/DX2                !
 ! D116  D(74,10,13,12)       -120.7406         estimate D2E/DX2                !
 ! D117  D(74,10,13,27)         74.5601         estimate D2E/DX2                !
 ! D118  D(9,11,25,26)          -9.8146         estimate D2E/DX2                !
 ! D119  D(9,11,25,28)         141.7444         estimate D2E/DX2                !
 ! D120  D(10,11,25,26)       -171.2914         estimate D2E/DX2                !
 ! D121  D(10,11,25,28)        -19.7324         estimate D2E/DX2                !
 ! D122  D(3,12,13,10)           6.0071         estimate D2E/DX2                !
 ! D123  D(3,12,13,27)         171.7966         estimate D2E/DX2                !
 ! D124  D(14,12,13,10)       -156.4053         estimate D2E/DX2                !
 ! D125  D(14,12,13,27)          9.3842         estimate D2E/DX2                !
 ! D126  D(3,12,14,16)          -5.0718         estimate D2E/DX2                !
 ! D127  D(3,12,14,29)        -170.9407         estimate D2E/DX2                !
 ! D128  D(13,12,14,16)        154.4276         estimate D2E/DX2                !
 ! D129  D(13,12,14,29)        -11.4414         estimate D2E/DX2                !
 ! D130  D(10,13,27,28)         -5.7387         estimate D2E/DX2                !
 ! D131  D(10,13,27,30)        162.1895         estimate D2E/DX2                !
 ! D132  D(12,13,27,28)       -169.2638         estimate D2E/DX2                !
 ! D133  D(12,13,27,30)         -1.3356         estimate D2E/DX2                !
 ! D134  D(12,14,16,15)        -34.9234         estimate D2E/DX2                !
 ! D135  D(12,14,16,32)       -141.9404         estimate D2E/DX2                !
 ! D136  D(12,14,16,70)         91.3945         estimate D2E/DX2                !
 ! D137  D(29,14,16,15)        130.5927         estimate D2E/DX2                !
 ! D138  D(29,14,16,32)         23.5757         estimate D2E/DX2                !
 ! D139  D(29,14,16,70)       -103.0894         estimate D2E/DX2                !
 ! D140  D(12,14,29,30)          5.4976         estimate D2E/DX2                !
 ! D141  D(12,14,29,31)        176.1715         estimate D2E/DX2                !
 ! D142  D(16,14,29,30)       -159.8646         estimate D2E/DX2                !
 ! D143  D(16,14,29,31)         10.8093         estimate D2E/DX2                !
 ! D144  D(5,15,16,14)          40.5569         estimate D2E/DX2                !
 ! D145  D(5,15,16,32)         153.9028         estimate D2E/DX2                !
 ! D146  D(5,15,16,70)         -81.8053         estimate D2E/DX2                !
 ! D147  D(18,15,16,14)       -110.8969         estimate D2E/DX2                !
 ! D148  D(18,15,16,32)          2.449          estimate D2E/DX2                !
 ! D149  D(18,15,16,70)        126.7409         estimate D2E/DX2                !
 ! D150  D(5,15,18,17)         -10.9679         estimate D2E/DX2                !
 ! D151  D(5,15,18,33)        -161.097          estimate D2E/DX2                !
 ! D152  D(16,15,18,17)        141.6077         estimate D2E/DX2                !
 ! D153  D(16,15,18,33)         -8.5214         estimate D2E/DX2                !
 ! D154  D(14,16,32,33)        112.6422         estimate D2E/DX2                !
 ! D155  D(14,16,32,34)        -33.2858         estimate D2E/DX2                !
 ! D156  D(15,16,32,33)          4.4263         estimate D2E/DX2                !
 ! D157  D(15,16,32,34)       -141.5018         estimate D2E/DX2                !
 ! D158  D(70,16,32,33)       -122.165          estimate D2E/DX2                !
 ! D159  D(70,16,32,34)         91.907          estimate D2E/DX2                !
 ! D160  D(6,17,18,15)           8.2257         estimate D2E/DX2                !
 ! D161  D(6,17,18,33)         154.464          estimate D2E/DX2                !
 ! D162  D(19,17,18,15)       -147.5133         estimate D2E/DX2                !
 ! D163  D(19,17,18,33)         -1.275          estimate D2E/DX2                !
 ! D164  D(6,17,19,21)          -9.4981         estimate D2E/DX2                !
 ! D165  D(6,17,19,35)        -161.0785         estimate D2E/DX2                !
 ! D166  D(18,17,19,21)        145.2673         estimate D2E/DX2                !
 ! D167  D(18,17,19,35)         -6.3131         estimate D2E/DX2                !
 ! D168  D(15,18,33,32)         11.2094         estimate D2E/DX2                !
 ! D169  D(15,18,33,36)        157.0171         estimate D2E/DX2                !
 ! D170  D(17,18,33,32)       -139.1312         estimate D2E/DX2                !
 ! D171  D(17,18,33,36)          6.6765         estimate D2E/DX2                !
 ! D172  D(17,19,21,20)          1.5936         estimate D2E/DX2                !
 ! D173  D(17,19,21,38)       -151.6012         estimate D2E/DX2                !
 ! D174  D(35,19,21,20)        152.1692         estimate D2E/DX2                !
 ! D175  D(35,19,21,38)         -1.0257         estimate D2E/DX2                !
 ! D176  D(17,19,35,36)          8.6526         estimate D2E/DX2                !
 ! D177  D(17,19,35,37)        149.9776         estimate D2E/DX2                !
 ! D178  D(21,19,35,36)       -142.3215         estimate D2E/DX2                !
 ! D179  D(21,19,35,37)         -0.9965         estimate D2E/DX2                !
 ! D180  D(8,20,21,19)          16.954          estimate D2E/DX2                !
 ! D181  D(8,20,21,38)         170.2952         estimate D2E/DX2                !
 ! D182  D(23,20,21,19)       -139.8631         estimate D2E/DX2                !
 ! D183  D(23,20,21,38)         13.4781         estimate D2E/DX2                !
 ! D184  D(8,20,23,22)         -30.2284         estimate D2E/DX2                !
 ! D185  D(8,20,23,40)        -167.6527         estimate D2E/DX2                !
 ! D186  D(21,20,23,22)        128.0294         estimate D2E/DX2                !
 ! D187  D(21,20,23,40)         -9.395          estimate D2E/DX2                !
 ! D188  D(19,21,38,39)          1.9492         estimate D2E/DX2                !
 ! D189  D(19,21,38,42)        144.8513         estimate D2E/DX2                !
 ! D190  D(20,21,38,39)       -152.1981         estimate D2E/DX2                !
 ! D191  D(20,21,38,42)         -9.296          estimate D2E/DX2                !
 ! D192  D(9,22,23,20)           6.0929         estimate D2E/DX2                !
 ! D193  D(9,22,23,40)         149.4141         estimate D2E/DX2                !
 ! D194  D(24,22,23,20)       -143.6425         estimate D2E/DX2                !
 ! D195  D(24,22,23,40)         -0.3213         estimate D2E/DX2                !
 ! D196  D(9,22,24,26)          -5.936          estimate D2E/DX2                !
 ! D197  D(9,22,24,41)        -151.068          estimate D2E/DX2                !
 ! D198  D(23,22,24,26)        144.128          estimate D2E/DX2                !
 ! D199  D(23,22,24,41)         -1.004          estimate D2E/DX2                !
 ! D200  D(20,23,40,41)        142.8899         estimate D2E/DX2                !
 ! D201  D(20,23,40,42)          0.2932         estimate D2E/DX2                !
 ! D202  D(22,23,40,41)          1.514          estimate D2E/DX2                !
 ! D203  D(22,23,40,42)       -141.0827         estimate D2E/DX2                !
 ! D204  D(22,24,26,25)          2.6276         estimate D2E/DX2                !
 ! D205  D(22,24,26,44)       -139.7973         estimate D2E/DX2                !
 ! D206  D(41,24,26,25)        143.5483         estimate D2E/DX2                !
 ! D207  D(41,24,26,44)          1.1234         estimate D2E/DX2                !
 ! D208  D(22,24,41,40)          1.9455         estimate D2E/DX2                !
 ! D209  D(22,24,41,43)        143.7641         estimate D2E/DX2                !
 ! D210  D(26,24,41,40)       -142.199          estimate D2E/DX2                !
 ! D211  D(26,24,41,43)         -0.3804         estimate D2E/DX2                !
 ! D212  D(11,25,26,24)          5.1971         estimate D2E/DX2                !
 ! D213  D(11,25,26,44)        150.5056         estimate D2E/DX2                !
 ! D214  D(28,25,26,24)       -150.6802         estimate D2E/DX2                !
 ! D215  D(28,25,26,44)         -5.3718         estimate D2E/DX2                !
 ! D216  D(11,25,28,27)        -28.2379         estimate D2E/DX2                !
 ! D217  D(11,25,28,45)       -143.9353         estimate D2E/DX2                !
 ! D218  D(11,25,28,73)         94.9565         estimate D2E/DX2                !
 ! D219  D(26,25,28,27)        126.2949         estimate D2E/DX2                !
 ! D220  D(26,25,28,45)         10.5974         estimate D2E/DX2                !
 ! D221  D(26,25,28,73)       -110.5107         estimate D2E/DX2                !
 ! D222  D(24,26,44,45)        142.5611         estimate D2E/DX2                !
 ! D223  D(24,26,44,46)         -1.1649         estimate D2E/DX2                !
 ! D224  D(25,26,44,45)         -2.7086         estimate D2E/DX2                !
 ! D225  D(25,26,44,46)       -146.4346         estimate D2E/DX2                !
 ! D226  D(13,27,28,25)         39.3034         estimate D2E/DX2                !
 ! D227  D(13,27,28,45)        148.0826         estimate D2E/DX2                !
 ! D228  D(13,27,28,73)        -88.3365         estimate D2E/DX2                !
 ! D229  D(30,27,28,25)       -128.2627         estimate D2E/DX2                !
 ! D230  D(30,27,28,45)        -19.4836         estimate D2E/DX2                !
 ! D231  D(30,27,28,73)        104.0973         estimate D2E/DX2                !
 ! D232  D(13,27,30,29)         -4.4393         estimate D2E/DX2                !
 ! D233  D(13,27,30,47)       -176.8893         estimate D2E/DX2                !
 ! D234  D(28,27,30,29)        162.7497         estimate D2E/DX2                !
 ! D235  D(28,27,30,47)         -9.7004         estimate D2E/DX2                !
 ! D236  D(25,28,45,44)        -12.5496         estimate D2E/DX2                !
 ! D237  D(25,28,45,48)        136.2136         estimate D2E/DX2                !
 ! D238  D(27,28,45,44)       -122.6501         estimate D2E/DX2                !
 ! D239  D(27,28,45,48)         26.1131         estimate D2E/DX2                !
 ! D240  D(73,28,45,44)        113.5428         estimate D2E/DX2                !
 ! D241  D(73,28,45,48)        -97.6941         estimate D2E/DX2                !
 ! D242  D(14,29,30,27)          2.2829         estimate D2E/DX2                !
 ! D243  D(14,29,30,47)        174.6338         estimate D2E/DX2                !
 ! D244  D(31,29,30,27)       -168.1593         estimate D2E/DX2                !
 ! D245  D(31,29,30,47)          4.1916         estimate D2E/DX2                !
 ! D246  D(14,29,31,34)        -36.4459         estimate D2E/DX2                !
 ! D247  D(14,29,31,49)       -147.0832         estimate D2E/DX2                !
 ! D248  D(14,29,31,71)         88.3727         estimate D2E/DX2                !
 ! D249  D(30,29,31,34)        134.0319         estimate D2E/DX2                !
 ! D250  D(30,29,31,49)         23.3946         estimate D2E/DX2                !
 ! D251  D(30,29,31,71)       -101.1495         estimate D2E/DX2                !
 ! D252  D(27,30,47,48)         32.0914         estimate D2E/DX2                !
 ! D253  D(27,30,47,50)        143.6846         estimate D2E/DX2                !
 ! D254  D(27,30,47,72)        -91.7882         estimate D2E/DX2                !
 ! D255  D(29,30,47,48)       -140.3205         estimate D2E/DX2                !
 ! D256  D(29,30,47,50)        -28.7273         estimate D2E/DX2                !
 ! D257  D(29,30,47,72)         95.7999         estimate D2E/DX2                !
 ! D258  D(29,31,34,32)         28.101          estimate D2E/DX2                !
 ! D259  D(29,31,34,51)       -121.083          estimate D2E/DX2                !
 ! D260  D(49,31,34,32)        145.2128         estimate D2E/DX2                !
 ! D261  D(49,31,34,51)         -3.9711         estimate D2E/DX2                !
 ! D262  D(71,31,34,32)        -92.7375         estimate D2E/DX2                !
 ! D263  D(71,31,34,51)        118.0785         estimate D2E/DX2                !
 ! D264  D(29,31,49,50)        -26.8407         estimate D2E/DX2                !
 ! D265  D(29,31,49,54)        122.3293         estimate D2E/DX2                !
 ! D266  D(34,31,49,50)       -143.2188         estimate D2E/DX2                !
 ! D267  D(34,31,49,54)          5.9512         estimate D2E/DX2                !
 ! D268  D(71,31,49,50)         94.2202         estimate D2E/DX2                !
 ! D269  D(71,31,49,54)       -116.6098         estimate D2E/DX2                !
 ! D270  D(16,32,33,18)         -9.8236         estimate D2E/DX2                !
 ! D271  D(16,32,33,36)       -153.6521         estimate D2E/DX2                !
 ! D272  D(34,32,33,18)        137.5656         estimate D2E/DX2                !
 ! D273  D(34,32,33,36)         -6.2628         estimate D2E/DX2                !
 ! D274  D(16,32,34,31)          7.1785         estimate D2E/DX2                !
 ! D275  D(16,32,34,51)        154.0789         estimate D2E/DX2                !
 ! D276  D(33,32,34,31)       -136.1453         estimate D2E/DX2                !
 ! D277  D(33,32,34,51)         10.7551         estimate D2E/DX2                !
 ! D278  D(18,33,36,35)         -4.3481         estimate D2E/DX2                !
 ! D279  D(18,33,36,52)       -144.1629         estimate D2E/DX2                !
 ! D280  D(32,33,36,35)        136.2104         estimate D2E/DX2                !
 ! D281  D(32,33,36,52)         -3.6045         estimate D2E/DX2                !
 ! D282  D(31,34,51,52)        144.1255         estimate D2E/DX2                !
 ! D283  D(31,34,51,54)          0.663          estimate D2E/DX2                !
 ! D284  D(32,34,51,52)         -5.8772         estimate D2E/DX2                !
 ! D285  D(32,34,51,54)       -149.3397         estimate D2E/DX2                !
 ! D286  D(19,35,36,33)         -3.5154         estimate D2E/DX2                !
 ! D287  D(19,35,36,52)        139.3466         estimate D2E/DX2                !
 ! D288  D(37,35,36,33)       -149.7822         estimate D2E/DX2                !
 ! D289  D(37,35,36,52)         -6.9202         estimate D2E/DX2                !
 ! D290  D(19,35,37,39)          2.1509         estimate D2E/DX2                !
 ! D291  D(19,35,37,53)       -141.0745         estimate D2E/DX2                !
 ! D292  D(36,35,37,39)        148.3361         estimate D2E/DX2                !
 ! D293  D(36,35,37,53)          5.1106         estimate D2E/DX2                !
 ! D294  D(33,36,52,51)          8.543          estimate D2E/DX2                !
 ! D295  D(33,36,52,53)        150.0558         estimate D2E/DX2                !
 ! D296  D(35,36,52,51)       -135.5886         estimate D2E/DX2                !
 ! D297  D(35,36,52,53)          5.9242         estimate D2E/DX2                !
 ! D298  D(35,37,39,38)         -1.2262         estimate D2E/DX2                !
 ! D299  D(35,37,39,57)       -141.2509         estimate D2E/DX2                !
 ! D300  D(53,37,39,38)        136.7407         estimate D2E/DX2                !
 ! D301  D(53,37,39,57)         -3.2841         estimate D2E/DX2                !
 ! D302  D(35,37,53,52)         -1.5642         estimate D2E/DX2                !
 ! D303  D(35,37,53,55)        139.9212         estimate D2E/DX2                !
 ! D304  D(39,37,53,52)       -143.6998         estimate D2E/DX2                !
 ! D305  D(39,37,53,55)         -2.2144         estimate D2E/DX2                !
 ! D306  D(21,38,39,37)         -0.8339         estimate D2E/DX2                !
 ! D307  D(21,38,39,57)        142.7107         estimate D2E/DX2                !
 ! D308  D(42,38,39,37)       -148.9035         estimate D2E/DX2                !
 ! D309  D(42,38,39,57)         -5.3589         estimate D2E/DX2                !
 ! D310  D(21,38,42,40)          0.5055         estimate D2E/DX2                !
 ! D311  D(21,38,42,58)       -141.7932         estimate D2E/DX2                !
 ! D312  D(39,38,42,40)        148.2608         estimate D2E/DX2                !
 ! D313  D(39,38,42,58)          5.9622         estimate D2E/DX2                !
 ! D314  D(37,39,57,58)        146.6491         estimate D2E/DX2                !
 ! D315  D(37,39,57,60)          6.2342         estimate D2E/DX2                !
 ! D316  D(38,39,57,58)          2.7198         estimate D2E/DX2                !
 ! D317  D(38,39,57,60)       -137.6951         estimate D2E/DX2                !
 ! D318  D(23,40,41,24)         -2.1337         estimate D2E/DX2                !
 ! D319  D(23,40,41,43)       -143.641          estimate D2E/DX2                !
 ! D320  D(42,40,41,24)        140.3099         estimate D2E/DX2                !
 ! D321  D(42,40,41,43)         -1.1973         estimate D2E/DX2                !
 ! D322  D(23,40,42,38)          4.2535         estimate D2E/DX2                !
 ! D323  D(23,40,42,58)        142.2492         estimate D2E/DX2                !
 ! D324  D(41,40,42,38)       -134.1083         estimate D2E/DX2                !
 ! D325  D(41,40,42,58)          3.8874         estimate D2E/DX2                !
 ! D326  D(24,41,43,46)         -0.3214         estimate D2E/DX2                !
 ! D327  D(24,41,43,59)       -138.3947         estimate D2E/DX2                !
 ! D328  D(40,41,43,46)        136.7301         estimate D2E/DX2                !
 ! D329  D(40,41,43,59)         -1.3433         estimate D2E/DX2                !
 ! D330  D(38,42,58,57)         -4.3855         estimate D2E/DX2                !
 ! D331  D(38,42,58,59)        137.3633         estimate D2E/DX2                !
 ! D332  D(40,42,58,57)       -145.8137         estimate D2E/DX2                !
 ! D333  D(40,42,58,59)         -4.0649         estimate D2E/DX2                !
 ! D334  D(41,43,46,44)          0.268          estimate D2E/DX2                !
 ! D335  D(41,43,46,61)       -141.1573         estimate D2E/DX2                !
 ! D336  D(59,43,46,44)        142.51           estimate D2E/DX2                !
 ! D337  D(59,43,46,61)          1.0847         estimate D2E/DX2                !
 ! D338  D(41,43,59,58)          1.1511         estimate D2E/DX2                !
 ! D339  D(41,43,59,65)        142.1874         estimate D2E/DX2                !
 ! D340  D(46,43,59,58)       -140.8496         estimate D2E/DX2                !
 ! D341  D(46,43,59,65)          0.1867         estimate D2E/DX2                !
 ! D342  D(26,44,45,28)          9.9204         estimate D2E/DX2                !
 ! D343  D(26,44,45,48)       -139.671          estimate D2E/DX2                !
 ! D344  D(46,44,45,28)        152.7378         estimate D2E/DX2                !
 ! D345  D(46,44,45,48)          3.1463         estimate D2E/DX2                !
 ! D346  D(26,44,46,43)          0.4749         estimate D2E/DX2                !
 ! D347  D(26,44,46,61)        137.9425         estimate D2E/DX2                !
 ! D348  D(45,44,46,43)       -137.6589         estimate D2E/DX2                !
 ! D349  D(45,44,46,61)         -0.1914         estimate D2E/DX2                !
 ! D350  D(28,45,48,47)         -2.7872         estimate D2E/DX2                !
 ! D351  D(28,45,48,62)       -150.3975         estimate D2E/DX2                !
 ! D352  D(44,45,48,47)        143.2745         estimate D2E/DX2                !
 ! D353  D(44,45,48,62)         -4.3358         estimate D2E/DX2                !
 ! D354  D(43,46,61,62)        140.9718         estimate D2E/DX2                !
 ! D355  D(43,46,61,65)         -1.9232         estimate D2E/DX2                !
 ! D356  D(44,46,61,62)         -1.3868         estimate D2E/DX2                !
 ! D357  D(44,46,61,65)       -144.2818         estimate D2E/DX2                !
 ! D358  D(30,47,48,45)        -26.4588         estimate D2E/DX2                !
 ! D359  D(30,47,48,62)        123.4537         estimate D2E/DX2                !
 ! D360  D(50,47,48,45)       -144.1059         estimate D2E/DX2                !
 ! D361  D(50,47,48,62)          5.8066         estimate D2E/DX2                !
 ! D362  D(72,47,48,45)         93.2823         estimate D2E/DX2                !
 ! D363  D(72,47,48,62)       -116.8052         estimate D2E/DX2                !
 ! D364  D(30,47,50,49)         26.2617         estimate D2E/DX2                !
 ! D365  D(30,47,50,63)       -123.2903         estimate D2E/DX2                !
 ! D366  D(48,47,50,49)        143.7601         estimate D2E/DX2                !
 ! D367  D(48,47,50,63)         -5.7919         estimate D2E/DX2                !
 ! D368  D(72,47,50,49)        -93.9204         estimate D2E/DX2                !
 ! D369  D(72,47,50,63)        116.5276         estimate D2E/DX2                !
 ! D370  D(45,48,62,61)          2.8025         estimate D2E/DX2                !
 ! D371  D(45,48,62,63)        147.2102         estimate D2E/DX2                !
 ! D372  D(47,48,62,61)       -148.2589         estimate D2E/DX2                !
 ! D373  D(47,48,62,63)         -3.8512         estimate D2E/DX2                !
 ! D374  D(31,49,50,47)          1.7601         estimate D2E/DX2                !
 ! D375  D(31,49,50,63)        148.7881         estimate D2E/DX2                !
 ! D376  D(54,49,50,47)       -144.954          estimate D2E/DX2                !
 ! D377  D(54,49,50,63)          2.0741         estimate D2E/DX2                !
 ! D378  D(31,49,54,51)         -6.0045         estimate D2E/DX2                !
 ! D379  D(31,49,54,56)       -150.2569         estimate D2E/DX2                !
 ! D380  D(50,49,54,51)        144.2776         estimate D2E/DX2                !
 ! D381  D(50,49,54,56)          0.0252         estimate D2E/DX2                !
 ! D382  D(47,50,63,62)          3.8895         estimate D2E/DX2                !
 ! D383  D(47,50,63,64)        148.1364         estimate D2E/DX2                !
 ! D384  D(49,50,63,62)       -146.7483         estimate D2E/DX2                !
 ! D385  D(49,50,63,64)         -2.5014         estimate D2E/DX2                !
 ! D386  D(34,51,52,36)         -4.0724         estimate D2E/DX2                !
 ! D387  D(34,51,52,53)       -139.7976         estimate D2E/DX2                !
 ! D388  D(54,51,52,36)        135.3496         estimate D2E/DX2                !
 ! D389  D(54,51,52,53)         -0.3756         estimate D2E/DX2                !
 ! D390  D(34,51,54,49)          3.2407         estimate D2E/DX2                !
 ! D391  D(34,51,54,56)        148.4925         estimate D2E/DX2                !
 ! D392  D(52,51,54,49)       -141.1553         estimate D2E/DX2                !
 ! D393  D(52,51,54,56)          4.0965         estimate D2E/DX2                !
 ! D394  D(36,52,53,37)         -2.6678         estimate D2E/DX2                !
 ! D395  D(36,52,53,55)       -143.9892         estimate D2E/DX2                !
 ! D396  D(51,52,53,37)        137.6194         estimate D2E/DX2                !
 ! D397  D(51,52,53,55)         -3.702          estimate D2E/DX2                !
 ! D398  D(37,53,55,56)       -133.6202         estimate D2E/DX2                !
 ! D399  D(37,53,55,60)          4.7428         estimate D2E/DX2                !
 ! D400  D(52,53,55,56)          3.9422         estimate D2E/DX2                !
 ! D401  D(52,53,55,60)        142.3053         estimate D2E/DX2                !
 ! D402  D(49,54,56,55)        136.7942         estimate D2E/DX2                !
 ! D403  D(49,54,56,64)         -1.7974         estimate D2E/DX2                !
 ! D404  D(51,54,56,55)         -3.8511         estimate D2E/DX2                !
 ! D405  D(51,54,56,64)       -142.4426         estimate D2E/DX2                !
 ! D406  D(53,55,56,54)         -0.2161         estimate D2E/DX2                !
 ! D407  D(53,55,56,64)        142.4722         estimate D2E/DX2                !
 ! D408  D(60,55,56,54)       -142.639          estimate D2E/DX2                !
 ! D409  D(60,55,56,64)          0.0493         estimate D2E/DX2                !
 ! D410  D(53,55,60,57)         -1.7831         estimate D2E/DX2                !
 ! D411  D(53,55,60,66)       -143.5932         estimate D2E/DX2                !
 ! D412  D(56,55,60,57)        140.341          estimate D2E/DX2                !
 ! D413  D(56,55,60,66)         -1.4691         estimate D2E/DX2                !
 ! D414  D(54,56,64,63)          1.388          estimate D2E/DX2                !
 ! D415  D(54,56,64,66)        145.083          estimate D2E/DX2                !
 ! D416  D(55,56,64,63)       -142.2931         estimate D2E/DX2                !
 ! D417  D(55,56,64,66)          1.4019         estimate D2E/DX2                !
 ! D418  D(39,57,58,42)          1.0011         estimate D2E/DX2                !
 ! D419  D(39,57,58,59)       -140.595          estimate D2E/DX2                !
[...]
 Alpha virt. eigenvalues --    1.37634   1.38125   1.38453   1.38517   1.39313
 Alpha virt. eigenvalues --    1.39510   1.39859   1.40258   1.40406   1.40831
 Alpha virt. eigenvalues --    1.41001   1.41068   1.41276   1.41812   1.41857
 Alpha virt. eigenvalues --    1.42138   1.42432   1.42515   1.42795   1.42882
 Alpha virt. eigenvalues --    1.43093   1.43575   1.43831   1.43973   1.44196
 Alpha virt. eigenvalues --    1.44276   1.44541   1.44846   1.45268   1.45608
 Alpha virt. eigenvalues --    1.45836   1.45875   1.46247   1.46357   1.46767
 Alpha virt. eigenvalues --    1.46883   1.47312   1.47466   1.47868   1.48115
 Alpha virt. eigenvalues --    1.48443   1.48704   1.49067   1.49293   1.49501
 Alpha virt. eigenvalues --    1.49609   1.50016   1.50135   1.50260   1.50374
 Alpha virt. eigenvalues --    1.50785   1.51412   1.51479   1.51925   1.52660
 Alpha virt. eigenvalues --    1.52813   1.52881   1.53338   1.53703   1.53936
 Alpha virt. eigenvalues --    1.54158   1.54749   1.54882   1.55198   1.55341
 Alpha virt. eigenvalues --    1.55792   1.56394   1.56583   1.57036   1.57344
 Alpha virt. eigenvalues --    1.58054   1.58305   1.58665   1.59088   1.59446
 Alpha virt. eigenvalues --    1.59710   1.60026   1.60436   1.60684   1.60907
 Alpha virt. eigenvalues --    1.61446   1.61837   1.62218   1.62516   1.62684
 Alpha virt. eigenvalues --    1.63311   1.63390   1.63794   1.64360   1.64558
 Alpha virt. eigenvalues --    1.64755   1.65578   1.65750   1.66238   1.66458
 Alpha virt. eigenvalues --    1.66897   1.67040   1.67364   1.68027   1.68351
 Alpha virt. eigenvalues --    1.68727   1.69000   1.69688   1.69761   1.70171
 Alpha virt. eigenvalues --    1.70309   1.70566   1.71244   1.71755   1.71910
 Alpha virt. eigenvalues --    1.72176   1.72710   1.72986   1.73306   1.73707
 Alpha virt. eigenvalues --    1.73814   1.73906   1.74489   1.74852   1.75275
 Alpha virt. eigenvalues --    1.75867   1.76346   1.76691   1.77162   1.77249
 Alpha virt. eigenvalues --    1.77631   1.78036   1.78909   1.79191   1.79526
 Alpha virt. eigenvalues --    1.80447   1.80569   1.80694   1.81750   1.82108
 Alpha virt. eigenvalues --    1.82240   1.82754   1.83745   1.84141   1.84497
 Alpha virt. eigenvalues --    1.85670   1.86223   1.86654   1.86882   1.87034
 Alpha virt. eigenvalues --    1.87954   1.88241   1.88766   1.88856   1.89169
 Alpha virt. eigenvalues --    1.89705   1.91005   1.91057   1.91381   1.91803
 Alpha virt. eigenvalues --    1.92232   1.92672   1.93066   1.93370   1.93917
 Alpha virt. eigenvalues --    1.94389   1.94794   1.94967   1.95480   1.95577
 Alpha virt. eigenvalues --    1.96661   1.97391   1.97780   1.98027   1.98723
 Alpha virt. eigenvalues --    1.99230   1.99594   2.00256   2.00338   2.00619
 Alpha virt. eigenvalues --    2.00790   2.01389   2.01452   2.01747   2.02408
 Alpha virt. eigenvalues --    2.02737   2.03417   2.03568   2.04542   2.05029
 Alpha virt. eigenvalues --    2.05332   2.05460   2.05930   2.06263   2.06512
 Alpha virt. eigenvalues --    2.06741   2.07328   2.07613   2.07871   2.08206
 Alpha virt. eigenvalues --    2.08624   2.09177   2.09663   2.10105   2.11091
 Alpha virt. eigenvalues --    2.11471   2.11700   2.12219   2.12343   2.13045
 Alpha virt. eigenvalues --    2.13230   2.13887   2.14110   2.14733   2.15406
 Alpha virt. eigenvalues --    2.15561   2.15705   2.16159   2.16578   2.16747
 Alpha virt. eigenvalues --    2.17375   2.18617   2.18750   2.19390   2.19639
 Alpha virt. eigenvalues --    2.19768   2.19944   2.20109   2.20792   2.21447
 Alpha virt. eigenvalues --    2.21794   2.22442   2.23088   2.23212   2.23372
 Alpha virt. eigenvalues --    2.23842   2.24151   2.24722   2.25431   2.25646
 Alpha virt. eigenvalues --    2.25804   2.26462   2.26769   2.27065   2.27596
 Alpha virt. eigenvalues --    2.28258   2.28409   2.28685   2.29491   2.29712
 Alpha virt. eigenvalues --    2.30057   2.30152   2.31219   2.31711   2.31828
 Alpha virt. eigenvalues --    2.32743   2.32873   2.33128   2.33621   2.33851
 Alpha virt. eigenvalues --    2.34579   2.34887   2.35336   2.35667   2.35915
 Alpha virt. eigenvalues --    2.36264   2.36583   2.37056   2.37751   2.38326
 Alpha virt. eigenvalues --    2.38583   2.39121   2.39892   2.40428   2.40774
 Alpha virt. eigenvalues --    2.40858   2.40920   2.41223   2.41791   2.42303
 Alpha virt. eigenvalues --    2.42538   2.42851   2.43065   2.43592   2.44009
 Alpha virt. eigenvalues --    2.44649   2.44928   2.45324   2.45919   2.46169
 Alpha virt. eigenvalues --    2.46550   2.47406   2.47737   2.47797   2.48623
 Alpha virt. eigenvalues --    2.49110   2.49682   2.49851   2.50737   2.51941
 Alpha virt. eigenvalues --    2.52749   2.52934   2.53518   2.53736   2.54058
 Alpha virt. eigenvalues --    2.54487   2.54631   2.55015   2.55632   2.55908
 Alpha virt. eigenvalues --    2.56750   2.57048   2.57586   2.57891   2.57996
 Alpha virt. eigenvalues --    2.58312   2.59520   2.59551   2.60312   2.61004
 Alpha virt. eigenvalues --    2.61279   2.61792   2.62432   2.62746   2.63180
 Alpha virt. eigenvalues --    2.63720   2.64192   2.64527   2.65162   2.65644
 Alpha virt. eigenvalues --    2.66266   2.66323   2.68347   2.68781   2.69221
 Alpha virt. eigenvalues --    2.70143   2.70588   2.71092   2.72788   2.73329
 Alpha virt. eigenvalues --    2.73776   2.74539   2.75520   2.76714   2.76913
 Alpha virt. eigenvalues --    2.77570   2.79122   2.79432   2.79760   2.79985
 Alpha virt. eigenvalues --    2.80658   2.81249   2.81914   2.82554   2.83177
 Alpha virt. eigenvalues --    2.84001   2.84220   2.85258   2.86231   2.86533
 Alpha virt. eigenvalues --    2.87084   2.89790   2.91387   2.91906   2.92175
 Alpha virt. eigenvalues --    2.92648   2.92791   2.93616   2.93659   2.94395
 Alpha virt. eigenvalues --    2.94652   2.95122   2.95469   2.95623   2.95748
 Alpha virt. eigenvalues --    2.96272   2.96900   2.97159   2.97702   2.97932
 Alpha virt. eigenvalues --    2.98465   2.98820   2.99115   2.99811   3.00259
 Alpha virt. eigenvalues --    3.00477   3.01037   3.01332   3.01719   3.01980
 Alpha virt. eigenvalues --    3.02565   3.03698   3.03934   3.04021   3.04798
 Alpha virt. eigenvalues --    3.05110   3.05363   3.05557   3.05816   3.06041
 Alpha virt. eigenvalues --    3.06230   3.06795   3.07012   3.07778   3.08393
 Alpha virt. eigenvalues --    3.08765   3.08859   3.09539   3.09741   3.10484
 Alpha virt. eigenvalues --    3.10851   3.11460   3.11616   3.11969   3.12076
 Alpha virt. eigenvalues --    3.12568   3.13183   3.13346   3.13760   3.14075
 Alpha virt. eigenvalues --    3.14134   3.14442   3.14732   3.14960   3.15363
 Alpha virt. eigenvalues --    3.15817   3.16536   3.16853   3.17229   3.17243
 Alpha virt. eigenvalues --    3.18228   3.18652   3.19047   3.19638   3.20676
 Alpha virt. eigenvalues --    3.21039   3.21783   3.22422   3.22861   3.24749
 Alpha virt. eigenvalues --    3.24934   3.26006   3.26615   3.28550   3.31367
 Alpha virt. eigenvalues --    3.32554   3.34787   3.36487   3.36945   3.38692
 Alpha virt. eigenvalues --    3.40551   3.40990   3.42409   3.43406   3.45192
 Alpha virt. eigenvalues --    3.45532   3.46515   3.47644   3.49122   3.49602
 Alpha virt. eigenvalues --    3.50344   3.51210   3.52147   3.52380   3.53861
 Alpha virt. eigenvalues --    3.55056   3.56659   3.57052   3.57587   3.57734
 Alpha virt. eigenvalues --    3.60105   3.60538   3.60815   3.62460   3.63119
 Alpha virt. eigenvalues --    3.65131   3.65630   3.66763   3.67524   3.69041
 Alpha virt. eigenvalues --    3.69555   3.70493   3.70841   3.71494   3.72373
 Alpha virt. eigenvalues --    3.73757   3.75376   3.76745   3.76805   3.77963
 Alpha virt. eigenvalues --    3.80520   3.81593   3.81958   3.83193   3.83328
 Alpha virt. eigenvalues --    3.85763   3.85822   3.86721   3.87121   3.87579
 Alpha virt. eigenvalues --    3.88074   3.88840   3.89233   3.90029   3.90160
 Alpha virt. eigenvalues --    3.91313   3.93390   3.94680   4.03100   4.05703
 Alpha virt. eigenvalues --    4.17288   4.20615   4.21027   4.22746   4.23877
 Alpha virt. eigenvalues --    4.25166   4.31727   4.32981   4.33934   4.35822
 Alpha virt. eigenvalues --    4.37047   4.38848   4.39627   4.41808   4.45593
 Alpha virt. eigenvalues --    4.46593   4.48164   4.50471   4.53657   4.61589
 Alpha virt. eigenvalues --    4.62226   4.63701   4.68744   4.73291   4.77468
 Alpha virt. eigenvalues --    4.79168   4.82501   4.84802   4.86829   4.95437
 Alpha virt. eigenvalues --    4.96121   4.99546   5.01957   5.04594   9.49579
 Alpha virt. eigenvalues --    9.56628   9.57810   9.59259   9.63086   9.66476
 Alpha virt. eigenvalues --    9.67017   9.69249   9.72667   9.75472  22.99964
 Alpha virt. eigenvalues --   23.20631  23.22063  23.23322  23.39140  23.42487
 Alpha virt. eigenvalues --   23.46902  23.51654  23.52455  23.61065  23.64197
 Alpha virt. eigenvalues --   23.65469  23.65947  23.67712  23.69865  23.71174
 Alpha virt. eigenvalues --   23.72369  23.73644  23.75159  23.75467  23.76654
 Alpha virt. eigenvalues --   23.79030  23.79628  23.79763  23.81829  23.82361
 Alpha virt. eigenvalues --   23.83134  23.85218  23.86646  23.87830  23.88782
 Alpha virt. eigenvalues --   23.89975  23.90880  23.91958  23.92454  23.93694
 Alpha virt. eigenvalues --   23.94731  23.95624  23.96082  23.96484  23.97495
 Alpha virt. eigenvalues --   23.98046  23.98387  23.98552  23.98981  24.00419
 Alpha virt. eigenvalues --   24.00673  24.02094  24.02525  24.03537  24.05929
 Alpha virt. eigenvalues --   24.06900  24.07584  24.07950  24.08180  24.08977
 Alpha virt. eigenvalues --   24.09138  24.10036  24.10144  24.10854  24.12004
 Alpha virt. eigenvalues --   24.13505  24.14088  24.14326  24.15254  24.18990
 Alpha virt. eigenvalues --   25.51596  25.55539  25.59591  25.62332  25.65128
 Alpha virt. eigenvalues --   25.67765  25.69736  25.73400  25.76393  25.77776
 Alpha virt. eigenvalues --   25.80746  25.82406  25.85954  25.86498  25.88316
 Alpha virt. eigenvalues --   25.92353  25.96290  25.97784  26.00950  26.07613
 Alpha virt. eigenvalues --   26.11490  26.22993  26.26747  26.30054  26.39295
 Alpha virt. eigenvalues --   26.42320  26.47379  26.53567  26.58471  26.77334
 Alpha virt. eigenvalues --  215.43883 215.52112 215.53522 215.55067 215.59622
 Alpha virt. eigenvalues --  215.63404 215.63990 215.66508 215.70347 215.73553
          Condensed to atoms (all electrons):
 Mulliken charges:
               1
     1  C   -0.267091
     2  C   -0.161292
     3  C   -0.501695
     4  C    0.152603
     5  C    0.232678
     6  C    0.205168
     7  C   -0.321406
     8  C   -0.421470
     9  C    0.076456
    10  C   -0.516518
    11  C    0.186519
    12  C    0.205874
    13  C    0.234548
    14  C    0.244873
    15  C    0.158937
    16  C   -0.669399
    17  C    0.064612
    18  C    0.041448
    19  C   -0.007029
    20  C    0.054187
    21  C    0.085203
    22  C    0.074465
    23  C    0.054216
    24  C    0.006226
    25  C    0.186334
    26  C    0.032020
    27  C    0.271769
    28  C   -0.663056
    29  C    0.173285
    30  C    0.147820
    31  C   -0.674428
    32  C    0.165074
    33  C    0.017012
    34  C    0.180664
    35  C   -0.004459
    36  C   -0.006119
    37  C   -0.002974
    38  C   -0.000636
    39  C    0.000197
    40  C    0.005482
    41  C    0.001332
    42  C    0.000407
    43  C    0.005395
    44  C    0.042721
    45  C    0.159012
    46  C   -0.000323
    47  C   -0.688647
    48  C    0.186006
    49  C    0.175090
    50  C    0.176964
    51  C    0.040400
    52  C    0.003813
    53  C    0.002913
    54  C    0.031773
    55  C    0.002371
    56  C    0.000681
    57  C    0.003417
    58  C    0.001601
    59  C    0.005458
    60  C    0.004754
    61  C    0.003701
    62  C    0.037412
    63  C    0.035887
    64  C    0.001791
    65  C    0.001060
    66  C    0.001039
    67  Cl   0.087975
    68  Cl   0.106521
    69  Cl   0.080257
    70  Cl   0.063784
    71  Cl   0.051313
    72  Cl   0.049066
    73  Cl   0.055429
    74  Cl   0.093524
    75  Cl   0.083543
    76  Cl   0.052462
 Sum of Mulliken charges =  -0.00000
 Mulliken charges with hydrogens summed into heavy atoms:
               1
     1  C   -0.267091
     2  C   -0.161292
     3  C   -0.501695
     4  C    0.152603
     5  C    0.232678
     6  C    0.205168
     7  C   -0.321406
     8  C   -0.421470
     9  C    0.076456
    10  C   -0.516518
    11  C    0.186519
    12  C    0.205874
    13  C    0.234548
    14  C    0.244873
    15  C    0.158937
    16  C   -0.669399
    17  C    0.064612
    18  C    0.041448
    19  C   -0.007029
    20  C    0.054187
    21  C    0.085203
    22  C    0.074465
    23  C    0.054216
    24  C    0.006226
    25  C    0.186334
    26  C    0.032020
    27  C    0.271769
    28  C   -0.663056
    29  C    0.173285
    30  C    0.147820
    31  C   -0.674428
    32  C    0.165074
    33  C    0.017012
    34  C    0.180664
    35  C   -0.004459
    36  C   -0.006119
    37  C   -0.002974
    38  C   -0.000636
    39  C    0.000197
    40  C    0.005482
    41  C    0.001332
    42  C    0.000407
    43  C    0.005395
    44  C    0.042721
    45  C    0.159012
    46  C   -0.000323
    47  C   -0.688647
    48  C    0.186006
    49  C    0.175090
    50  C    0.176964
    51  C    0.040400
    52  C    0.003813
    53  C    0.002913
    54  C    0.031773
    55  C    0.002371
    56  C    0.000681
    57  C    0.003417
    58  C    0.001601
    59  C    0.005458
    60  C    0.004754
    61  C    0.003701
    62  C    0.037412
    63  C    0.035887
    64  C    0.001791
    65  C    0.001060
    66  C    0.001039
    67  Cl   0.087975
    68  Cl   0.106521
    69  Cl   0.080257
    70  Cl   0.063784
    71  Cl   0.051313
    72  Cl   0.049066
    73  Cl   0.055429
    74  Cl   0.093524
    75  Cl   0.083543
    76  Cl   0.052462
 Electronic spatial extent (au):  <R**2>=          39603.5556
 Charge=             -0.0000 electrons
 Dipole moment (field-independent basis, Debye):
    X=              4.3487    Y=             -3.7794    Z=             -1.0326  Tot=              5.8534
 Quadrupole moment (field-independent basis, Debye-Ang):
   XX=           -508.9726   YY=           -514.2932   ZZ=           -501.7064
   XY=             -8.8912   XZ=             -0.8326   YZ=             -3.4870
 Traceless Quadrupole moment (field-independent basis, Debye-Ang):
   XX=             -0.6485   YY=             -5.9691   ZZ=              6.6177
   XY=             -8.8912   XZ=             -0.8326   YZ=             -3.4870
 Octapole moment (field-independent basis, Debye-Ang**2):
  XXX=            -98.5797  YYY=             65.8277  ZZZ=              3.2620  XYY=            -53.4400
  XXY=             28.7523  XXZ=              6.2930  XZZ=            -45.4623  YZZ=             -0.8107
  YYZ=             22.3287  XYZ=             -2.0151
 Hexadecapole moment (field-independent basis, Debye-Ang**3):
 XXXX=         -24453.7311 YYYY=         -17786.5318 ZZZZ=         -14679.6121 XXXY=             70.8135
 XXXZ=            -20.6006 YYYX=             10.4638 YYYZ=             33.0974 ZZZX=            -16.5732
 ZZZY=             29.6839 XXYY=          -7116.9976 XXZZ=          -6506.8020 YYZZ=          -5433.8839
 XXYZ=             -1.0899 YYXZ=            -21.3808 ZZXY=             21.3939
 N-N= 1.699890123143D+04 E-N=-5.076162809349D+04  KE= 7.096700497257D+03
 No NMR shielding tensors so no spin-rotation constants.
 Leave Link  601 at Fri Jul 15 05:51:03 2022, MaxMem=  1342177280 cpu:              62.8 elap:               1.6
 (Enter /home/mkliu/g16/l9999.exe)
 1\1\GINC-NODE03\FOpt\RB3LYP\6-311G(d,p)\C66Cl10\MKLIU\15-Jul-2022\0\\#
 P opt b3lyp/6-311G(d, p) empiricaldispersion=GD3\\force\\0,1\C,-1.3657
 204003,1.8855911629,-3.9703595799\C,0.1978049955,2.3059462199,-4.11615
 88654\C,0.9643012183,0.8830362555,-4.3002731608\C,-1.2939160014,0.4203
 156252,-3.8007813367\C,-0.0874729833,-0.1632666698,-4.1429564204\C,-2.
 1798244646,-0.1193245488,-2.9063410773\C,-2.217377292,2.3298294266,-2.
 71362917\C,-3.0200056208,0.941082085,-2.2887407009\C,-1.3900268366,2.8
 37516082,-1.5520778798\C,0.8802486411,2.9185211356,-2.7919462905\C,-0.
 0235065639,3.1778497248,-1.5999733677\C,1.8306968829,0.7146494683,-3.0
 714308165\C,1.8604224839,1.8545552719,-2.3027509869\C,2.1989599279,-0.
 5314744113,-2.5297289194\C,0.1882261474,-1.4031624826,-3.630646189\C,1
 .5904592048,-1.7947718494,-3.1688638281\C,-1.9545950465,-1.3986865678,
 -2.3663281834\C,-0.7806043156,-2.0588120926,-2.8346415814\C,-2.5165994
 527,-1.748799502,-1.0668073478\C,-3.1794303437,0.67859684,-0.809734977
 1\C,-3.1452900126,-0.6772589994,-0.2805980157\C,-2.0401230491,2.809487
 9647,-0.3132636312\C,-2.9960351762,1.7439941533,0.0474390199\C,-1.3956
 223743,3.2143734756,0.8719023587\C,0.6577362049,3.4481965132,-0.400440
 0864\C,-0.0262157225,3.4987190336,0.8227135385\C,2.4108484453,1.833004
 3397,-1.0135867463\C,2.1141245447,3.0293649399,-0.1288110571\C,2.80303
 26772,-0.5692238547,-1.2608002816\C,2.9429679014,0.6318708756,-0.51009
 91817\C,3.1234287991,-1.9332556635,-0.6218069449\C,1.287159285,-2.8187
 190922,-2.0992305577\C,-0.1245988582,-3.0414364873,-2.0219550923\C,2.0
 382652743,-2.9432877633,-0.9715236897\C,-1.9567868866,-2.8501279043,-0
 .3956900269\C,-0.7278776654,-3.4763763699,-0.8609036067\C,-1.945947964
 4,-2.9404978013,1.0442777069\C,-3.1790963095,-0.8309163379,1.128576453
 6\C,-2.5568208,-1.9536523949,1.7934285872\C,-2.9222079154,1.5684697281
 ,1.4683019351\C,-1.9429775924,2.4852676576,2.0005552619\C,-3.057530091
 5,0.3005209882,2.0120531517\C,-1.1299179549,2.1047086567,3.0552798481\
 C,0.8299718688,3.0675473868,1.909995494\C,2.0621873746,2.6453951823,1.
 3301177742\C,0.2952377739,2.407517857,3.0121268326\C,3.4810119045,0.59
 54874051,0.9264269391\C,2.7198238286,1.5605823914,1.8231675741\C,3.013
 5800553,-1.8831029889,0.8914815566\C,3.1936040556,-0.7342214736,1.5986
 393045\C,1.4512950328,-3.4742438306,0.221515153\C,0.0870611785,-3.7901
 024115,0.2763538596\C,-0.6745280852,-3.4978183747,1.4682431858\C,2.086
 9208378,-2.8720852399,1.3655183974\C,-0.0441773333,-2.9939271747,2.600
 331464\C,1.3733191274,-2.6808004887,2.5506403904\C,-1.9505252089,-1.49
 09350119,3.0253059195\C,-2.2551980399,-0.0859181858,3.1570797498\C,-1.
 2899086424,0.7939447715,3.6550044915\C,-0.6971204766,-1.979156461,3.40
 30441866\C,1.0020116861,1.2905152288,3.5691785506\C,2.1935358565,0.874
 3276577,2.9641681378\C,2.4874283627,-0.5298415345,2.8311613761\C,1.589
 7884945,-1.4842453979,3.3141093035\C,0.0285023032,0.2977124232,3.99479
 72207\C,0.3182409127,-1.0582973574,3.8729434798\Cl,-2.312091043,2.1363
 106121,-5.5102919176\Cl,0.4172348678,3.3776489719,-5.5197510702\Cl,1.9
 493217868,0.7087984847,-5.8064552826\Cl,2.6646928504,-2.5023471398,-4.
 4701296299\Cl,4.8020874167,-2.4670019963,-1.1624572994\Cl,5.288975744,
 0.9666895196,0.8860310693\Cl,3.4040130446,4.3415043603,-0.2866732787\C
 l,1.7643901881,4.4879945441,-3.1381135476\Cl,-3.3397463268,3.717548084
 9,-3.065827578\Cl,-4.7146449241,0.8693765893,-3.0190358459\\Version=ES
 64L-G16RevA.03\State=1-A\HF=-7117.695235\RMSD=3.817e-09\RMSF=1.771e-05
 \Dipole=-0.9822672,-0.9746925,1.8407641\Quadrupole=-8.33771,4.1157798,
 4.2219303,2.3191131,-3.4999388,1.7606105\PG=C01 [X(C66Cl10)]\\@


 THE CHYMISTS ARE A STRANGE CLASS OF MORTALS IMPELLED
 BY AN ALMOST INSANE IMPULSE TO SEEK THEIR PLEASURE
 AMONG SMOKE AND VAPOR, SOOT AND FLAME, POISONS AND
 POVERTY; YET AMONG ALL THESE EVILS I SEEM TO LIVE
 SO SWEETLY, THAT I MAY DIE IF I WOULD CHANGE PLACES
 WITH THE PERSIAN KING.
   --  JOHANN JOACHIM BECHER, 1635-1682
 ACTA LABORATORII CHYMICA MONACENSIS, 1669
 Job cpu time:       3 days 18 hours 17 minutes 47.7 seconds.
 Elapsed time:       0 days  1 hours 53 minutes  7.8 seconds.
 File lengths (MBytes):  RWF=   1283 Int=      0 D2E=      0 Chk=    157 Scr=      1
 Normal termination of Gaussian 16 at Fri Jul 15 05:51:05 2022.
