 Entering Gaussian System, Link 0=g16
 Input=eqhw9mvvr6mtc_addon_10.gjf
 Output=eqhw9mvvr6mtc_addon_10.log
 Initial command:
 /home/mkliu/g16/l1.exe "/data/scratch/Gau-154661.inp" -scrdir="/data/scratch/"
 Entering Link 1 = /home/mkliu/g16/l1.exe PID=    154662.
  
 Copyright (c) 1988,1990,1992,1993,1995,1998,2003,2009,2016,
            Gaussian, Inc.  All Rights Reserved.
  
 This is part of the Gaussian(R) 16 program.  It is based on
 the Gaussian(R) 09 system (copyright 2009, Gaussian, Inc.),
 the Gaussian(R) 03 system (copyright 2003, Gaussian, Inc.),
 the Gaussian(R) 98 system (copyright 1998, Gaussian, Inc.),
 the Gaussian(R) 94 system (copyright 1995, Gaussian, Inc.),
 the Gaussian 92(TM) system (copyright 1992, Gaussian, Inc.),
 the Gaussian 90(TM) system (copyright 1990, Gaussian, Inc.),
 the Gaussian 88(TM) system (copyright 1988, Gaussian, Inc.),
 the Gaussian 86(TM) system (copyright 1986, Carnegie Mellon
 University), and the Gaussian 82(TM) system (copyright 1983,
 Carnegie Mellon University). Gaussian is a federally registered
 trademark of Gaussian, Inc.
  
 This software contains proprietary and confidential information,
 including trade secrets, belonging to Gaussian, Inc.
  
 This software is provided under written license and may be
 used, copied, transmitted, or stored only in accord with that
 written license.
  
 The following legend is applicable only to US Government
 contracts under FAR:
  
                    RESTRICTED RIGHTS LEGEND
  
 Use, reproduction and disclosure by the US Government is
 subject to restrictions as set forth in subparagraphs (a)
 and (c) of the Commercial Computer Software - Restricted
 Rights clause in FAR 52.227-19.
  
 Gaussian, Inc.
 340 Quinnipiac St., Bldg. 40, Wallingford CT 06492
  
  
 ---------------------------------------------------------------
 Warning -- This program may not be used in any manner that
 competes with the business of Gaussian, Inc. or will provide
 assistance to any competitor of Gaussian, Inc.  The licensee
 of this program is prohibited from giving any competitor of
 Gaussian, Inc. access to this program.  By using this program,
 the user acknowledges that Gaussian, Inc. is engaged in the
 business of creating and licensing software in the field of
 computational chemistry and represents and warrants to the
 licensee that it is not a competitor of Gaussian, Inc. and that
 it will not use this program in any manner prohibited above.
 ---------------------------------------------------------------
  

 Cite this work as:
 Gaussian 16, Revision A.03,
 M. J. Frisch, G. W. Trucks, H. B. Schlegel, G. E. Scuseria, 
 M. A. Robb, J. R. Cheeseman, G. Scalmani, V. Barone, 
 G. A. Petersson, H. Nakatsuji, X. Li, M. Caricato, A. V. Marenich, 
 J. Bloino, B. G. Janesko, R. Gomperts, B. Mennucci, H. P. Hratchian, 
 J. V. Ortiz, A. F. Izmaylov, J. L. Sonnenberg, D. Williams-Young, 
 F. Ding, F. Lipparini, F. Egidi, J. Goings, B. Peng, A. Petrone, 
 T. Henderson, D. Ranasinghe, V. G. Zakrzewski, J. Gao, N. Rega, 
 G. Zheng, W. Liang, M. Hada, M. Ehara, K. Toyota, R. Fukuda, 
 J. Hasegawa, M. Ishida, T. Nakajima, Y. Honda, O. Kitao, H. Nakai, 
 T. Vreven, K. Throssell, J. A. Montgomery, Jr., J. E. Peralta, 
 F. Ogliaro, M. J. Bearpark, J. J. Heyd, E. N. Brothers, K. N. Kudin, 
 V. N. Staroverov, T. A. Keith, R. Kobayashi, J. Normand, 
 K. Raghavachari, A. P. Rendell, J. C. Burant, S. S. Iyengar, 
 J. Tomasi, M. Cossi, J. M. Millam, M. Klene, C. Adamo, R. Cammi, 
 J. W. Ochterski, R. L. Martin, K. Morokuma, O. Farkas, 
 J. B. Foresman, and D. J. Fox, Gaussian, Inc., Wallingford CT, 2016.
 
 ******************************************
 Gaussian 16:  ES64L-G16RevA.03 25-Dec-2016
                16-Jul-2022 
 ******************************************
 %mem=10GB
 %chk=eqhw9mvvr6mtc_addon_10.chk
 %nprocshared=48
 Will use up to   48 processors via shared memory.
 -------------------------------------------------
 #P opt b3lyp/6-311G(d, p) empiricaldispersion=GD3
 -------------------------------------------------
 1/18=20,19=15,26=3,38=1/1,3;
 2/9=110,12=2,17=6,18=5,40=1/2;
 3/5=4,6=6,7=101,11=2,25=1,30=1,71=1,74=-5,124=31/1,2,3;
 4//1;
 5/5=2,38=5/2;
 6/7=2,8=2,9=2,10=2,28=1/1;
 7//1,2,3,16;
 1/18=20,19=15,26=3/3(2);
 2/9=110/2;
 99//99;
 2/9=110/2;
 3/5=4,6=6,7=101,11=2,25=1,30=1,71=1,74=-5,124=31/1,2,3;
 4/5=5,16=3,69=1/1;
 5/5=2,38=5/2;
 7//1,2,3,16;
 1/18=20,19=15,26=3/3(-5);
 2/9=110/2;
 6/7=2,8=2,9=2,10=2,19=2,28=1/1;
 99/9=1/99;
 Leave Link    1 at Sat Jul 16 08:31:47 2022, MaxMem=  1342177280 cpu:               2.0 elap:               0.0
 (Enter /home/mkliu/g16/l101.exe)
 -----
 force
 -----
 Symbolic Z-matrix:
 Charge =  0 Multiplicity = 1
 C                    -1.38696   1.92949  -4.01251 
 C                     0.17757   2.26481  -4.08279 
 C                     0.916     0.8991   -4.23409 
 C                    -1.46676   0.36909  -4.11593 
 C                    -0.09663  -0.16181  -4.10978 
 C                    -2.13385  -0.12385  -2.8843 
 C                    -2.13173   2.24091  -2.67378 
 C                    -2.57177   0.90112  -2.1325 
 C                    -1.35326   2.84639  -1.53644 
 C                     0.83119   2.87727  -2.79877 
 C                     0.00138   3.1678   -1.57844 
 C                     1.76888   0.69907  -3.01249 
 C                     1.76026   1.82661  -2.24048 
 C                     2.14706  -0.52598  -2.47726 
 C                     0.19598  -1.35653  -3.58185 
 C                     1.5825   -1.77383  -3.1363 
 C                    -1.9439   -1.43216  -2.352 
 C                    -0.79909  -2.09394  -2.81978 
 C                    -2.48509  -1.73454  -1.05629 
 C                    -3.06817   0.66395  -0.8075 
 C                    -3.0886   -0.67164  -0.28749 
 C                    -2.00181   2.79113  -0.31399 
 C                    -2.95176   1.74754   0.05106 
 C                    -1.35995   3.19699   0.875 
 C                     0.68412   3.40612  -0.39102 
 C                    -0.00854   3.4756    0.83413 
 C                     2.35287   1.81304  -0.98575 
 C                     2.12417   3.02745  -0.11539 
 C                     2.7765   -0.56053  -1.22736 
 C                     2.90069   0.62957  -0.48621 
 C                     3.11199  -1.91542  -0.61783 
 C                     1.28442  -2.805    -2.08701 
 C                    -0.13315  -3.03828  -2.01459 
 C                     2.02366  -2.89942  -0.95882 
 C                    -1.93888  -2.84102  -0.37771 
 C                    -0.72787  -3.45674  -0.8373 
 C                    -1.95122  -2.92623   1.04952 
 C                    -3.15866  -0.81944   1.1146 
 C                    -2.56674  -1.93797   1.78593 
 C                    -2.91108   1.57327   1.45898 
 C                    -1.93038   2.48677   1.98236 
 C                    -3.05097   0.30488   1.99531 
 C                    -1.12887   2.08641   3.02767 
 C                     0.833     3.0482    1.90731 
 C                     2.07268   2.64753   1.33224 
 C                     0.28074   2.37941   2.97991 
 C                     3.46924   0.60343   0.92511 
 C                     2.713     1.55227   1.8112 
 C                     3.0017   -1.863     0.87943 
 C                     3.18247  -0.71617   1.58273 
 C                     1.43657  -3.44723   0.23313 
 C                     0.09043  -3.76045   0.28803 
 C                    -0.68387  -3.47491   1.46468 
 C                     2.06604  -2.83657   1.35343 
 C                    -0.06321  -2.95258   2.57777 
 C                     1.3379   -2.63356   2.51251 
 C                    -1.97123  -1.47908   3.01297 
 C                    -2.26877  -0.07855   3.13866 
 C                    -1.30877   0.78812   3.62771 
 C                    -0.72704  -1.95486   3.37418 
 C                     0.97899   1.26589   3.526 
 C                     2.17033   0.8677    2.94265 
 C                     2.46177  -0.51989   2.80519 
 C                     1.54809  -1.44885   3.26541 
 C                     0.00398   0.30174   3.95175 
 C                     0.28919  -1.04475   3.82726 
 Cl                   -2.24174   2.6603   -5.38528 
 Cl                    0.4914    3.27669  -5.50446 
 Cl                    1.91654   0.70895  -5.69748 
 Cl                    2.68267  -2.38419  -4.40832 
 Cl                    4.75371  -2.39063  -1.19995 
 Cl                    5.22766   0.99007   0.78395 
 Cl                    3.3918    4.26489  -0.4098 
 Cl                    1.75291   4.37349  -3.17765 
 Cl                   -3.56722   3.31435  -2.90314 
 Cl                   -2.34245  -0.24486  -5.57373 
 
 ITRead=  0  0  0  0  0  0  0  0  0  0  0  0  0  0  0  0  0  0  0  0
 ITRead=  0  0  0  0  0  0  0  0  0  0  0  0  0  0  0  0  0  0  0  0
 ITRead=  0  0  0  0  0  0  0  0  0  0  0  0  0  0  0  0  0  0  0  0
 ITRead=  0  0  0  0  0  0  0  0  0  0  0  0  0  0  0  0
 MicOpt= -1 -1 -1 -1 -1 -1 -1 -1 -1 -1 -1 -1 -1 -1 -1 -1 -1 -1 -1 -1
 MicOpt= -1 -1 -1 -1 -1 -1 -1 -1 -1 -1 -1 -1 -1 -1 -1 -1 -1 -1 -1 -1
 MicOpt= -1 -1 -1 -1 -1 -1 -1 -1 -1 -1 -1 -1 -1 -1 -1 -1 -1 -1 -1 -1
 MicOpt= -1 -1 -1 -1 -1 -1 -1 -1 -1 -1 -1 -1 -1 -1 -1 -1
 NAtoms=     76 NQM=       76 NQMF=       0 NMMI=      0 NMMIF=      0
                NMic=       0 NMicF=      0.
                    Isotopes and Nuclear Properties:
 (Nuclear quadrupole moments (NQMom) in fm**2, nuclear magnetic moments (NMagM)
  in nuclear magnetons)

  Atom         1           2           3           4           5           6           7           8           9          10
 IAtWgt=          12          12          12          12          12          12          12          12          12          12
 AtmWgt=  12.0000000  12.0000000  12.0000000  12.0000000  12.0000000  12.0000000  12.0000000  12.0000000  12.0000000  12.0000000
 NucSpn=           0           0           0           0           0           0           0           0           0           0
 AtZEff=  -0.0000000  -0.0000000  -0.0000000  -0.0000000  -0.0000000  -0.0000000  -0.0000000  -0.0000000  -0.0000000  -0.0000000
 NQMom=    0.0000000   0.0000000   0.0000000   0.0000000   0.0000000   0.0000000   0.0000000   0.0000000   0.0000000   0.0000000
 NMagM=    0.0000000   0.0000000   0.0000000   0.0000000   0.0000000   0.0000000   0.0000000   0.0000000   0.0000000   0.0000000
 AtZNuc=   6.0000000   6.0000000   6.0000000   6.0000000   6.0000000   6.0000000   6.0000000   6.0000000   6.0000000   6.0000000

  Atom        11          12          13          14          15          16          17          18          19          20
 IAtWgt=          12          12          12          12          12          12          12          12          12          12
 AtmWgt=  12.0000000  12.0000000  12.0000000  12.0000000  12.0000000  12.0000000  12.0000000  12.0000000  12.0000000  12.0000000
 NucSpn=           0           0           0           0           0           0           0           0           0           0
 AtZEff=  -0.0000000  -0.0000000  -0.0000000  -0.0000000  -0.0000000  -0.0000000  -0.0000000  -0.0000000  -0.0000000  -0.0000000
 NQMom=    0.0000000   0.0000000   0.0000000   0.0000000   0.0000000   0.0000000   0.0000000   0.0000000   0.0000000   0.0000000
 NMagM=    0.0000000   0.0000000   0.0000000   0.0000000   0.0000000   0.0000000   0.0000000   0.0000000   0.0000000   0.0000000
 AtZNuc=   6.0000000   6.0000000   6.0000000   6.0000000   6.0000000   6.0000000   6.0000000   6.0000000   6.0000000   6.0000000

  Atom        21          22          23          24          25          26          27          28          29          30
 IAtWgt=          12          12          12          12          12          12          12          12          12          12
 AtmWgt=  12.0000000  12.0000000  12.0000000  12.0000000  12.0000000  12.0000000  12.0000000  12.0000000  12.0000000  12.0000000
 NucSpn=           0           0           0           0           0           0           0           0           0           0
 AtZEff=  -0.0000000  -0.0000000  -0.0000000  -0.0000000  -0.0000000  -0.0000000  -0.0000000  -0.0000000  -0.0000000  -0.0000000
 NQMom=    0.0000000   0.0000000   0.0000000   0.0000000   0.0000000   0.0000000   0.0000000   0.0000000   0.0000000   0.0000000
 NMagM=    0.0000000   0.0000000   0.0000000   0.0000000   0.0000000   0.0000000   0.0000000   0.0000000   0.0000000   0.0000000
 AtZNuc=   6.0000000   6.0000000   6.0000000   6.0000000   6.0000000   6.0000000   6.0000000   6.0000000   6.0000000   6.0000000

  Atom        31          32          33          34          35          36          37          38          39          40
 IAtWgt=          12          12          12          12          12          12          12          12          12          12
 AtmWgt=  12.0000000  12.0000000  12.0000000  12.0000000  12.0000000  12.0000000  12.0000000  12.0000000  12.0000000  12.0000000
 NucSpn=           0           0           0           0           0           0           0           0           0           0
 AtZEff=  -0.0000000  -0.0000000  -0.0000000  -0.0000000  -0.0000000  -0.0000000  -0.0000000  -0.0000000  -0.0000000  -0.0000000
 NQMom=    0.0000000   0.0000000   0.0000000   0.0000000   0.0000000   0.0000000   0.0000000   0.0000000   0.0000000   0.0000000
 NMagM=    0.0000000   0.0000000   0.0000000   0.0000000   0.0000000   0.0000000   0.0000000   0.0000000   0.0000000   0.0000000
 AtZNuc=   6.0000000   6.0000000   6.0000000   6.0000000   6.0000000   6.0000000   6.0000000   6.0000000   6.0000000   6.0000000

  Atom        41          42          43          44          45          46          47          48          49          50
 IAtWgt=          12          12          12          12          12          12          12          12          12          12
 AtmWgt=  12.0000000  12.0000000  12.0000000  12.0000000  12.0000000  12.0000000  12.0000000  12.0000000  12.0000000  12.0000000
 NucSpn=           0           0           0           0           0           0           0           0           0           0
 AtZEff=  -0.0000000  -0.0000000  -0.0000000  -0.0000000  -0.0000000  -0.0000000  -0.0000000  -0.0000000  -0.0000000  -0.0000000
 NQMom=    0.0000000   0.0000000   0.0000000   0.0000000   0.0000000   0.0000000   0.0000000   0.0000000   0.0000000   0.0000000
 NMagM=    0.0000000   0.0000000   0.0000000   0.0000000   0.0000000   0.0000000   0.0000000   0.0000000   0.0000000   0.0000000
 AtZNuc=   6.0000000   6.0000000   6.0000000   6.0000000   6.0000000   6.0000000   6.0000000   6.0000000   6.0000000   6.0000000

  Atom        51          52          53          54          55          56          57          58          59          60
 IAtWgt=          12          12          12          12          12          12          12          12          12          12
 AtmWgt=  12.0000000  12.0000000  12.0000000  12.0000000  12.0000000  12.0000000  12.0000000  12.0000000  12.0000000  12.0000000
 NucSpn=           0           0           0           0           0           0           0           0           0           0
 AtZEff=  -0.0000000  -0.0000000  -0.0000000  -0.0000000  -0.0000000  -0.0000000  -0.0000000  -0.0000000  -0.0000000  -0.0000000
 NQMom=    0.0000000   0.0000000   0.0000000   0.0000000   0.0000000   0.0000000   0.0000000   0.0000000   0.0000000   0.0000000
 NMagM=    0.0000000   0.0000000   0.0000000   0.0000000   0.0000000   0.0000000   0.0000000   0.0000000   0.0000000   0.0000000
 AtZNuc=   6.0000000   6.0000000   6.0000000   6.0000000   6.0000000   6.0000000   6.0000000   6.0000000   6.0000000   6.0000000

  Atom        61          62          63          64          65          66          67          68          69          70
 IAtWgt=          12          12          12          12          12          12          35          35          35          35
 AtmWgt=  12.0000000  12.0000000  12.0000000  12.0000000  12.0000000  12.0000000  34.9688527  34.9688527  34.9688527  34.9688527
 NucSpn=           0           0           0           0           0           0           3           3           3           3
 AtZEff=  -0.0000000  -0.0000000  -0.0000000  -0.0000000  -0.0000000  -0.0000000  -0.0000000  -0.0000000  -0.0000000  -0.0000000
 NQMom=    0.0000000   0.0000000   0.0000000   0.0000000   0.0000000   0.0000000  -8.1650000  -8.1650000  -8.1650000  -8.1650000
 NMagM=    0.0000000   0.0000000   0.0000000   0.0000000   0.0000000   0.0000000   0.8218740   0.8218740   0.8218740   0.8218740
 AtZNuc=   6.0000000   6.0000000   6.0000000   6.0000000   6.0000000   6.0000000  17.0000000  17.0000000  17.0000000  17.0000000

  Atom        71          72          73          74          75          76
 IAtWgt=          35          35          35          35          35          35
 AtmWgt=  34.9688527  34.9688527  34.9688527  34.9688527  34.9688527  34.9688527
 NucSpn=           3           3           3           3           3           3
 AtZEff=  -0.0000000  -0.0000000  -0.0000000  -0.0000000  -0.0000000  -0.0000000
 NQMom=   -8.1650000  -8.1650000  -8.1650000  -8.1650000  -8.1650000  -8.1650000
 NMagM=    0.8218740   0.8218740   0.8218740   0.8218740   0.8218740   0.8218740
 AtZNuc=  17.0000000  17.0000000  17.0000000  17.0000000  17.0000000  17.0000000
 Leave Link  101 at Sat Jul 16 08:31:47 2022, MaxMem=  1342177280 cpu:              28.4 elap:               0.6
 (Enter /home/mkliu/g16/l103.exe)

 GradGradGradGradGradGradGradGradGradGradGradGradGradGradGradGradGradGrad
 Berny optimization.
 Initialization pass.
                           ----------------------------
                           !    Initial Parameters    !
                           ! (Angstroms and Degrees)  !
 --------------------------                            --------------------------
 ! Name  Definition              Value          Derivative Info.                !
 --------------------------------------------------------------------------------
 ! R1    R(1,2)                  1.6016         estimate D2E/DX2                !
 ! R2    R(1,4)                  1.5659         estimate D2E/DX2                !
 ! R3    R(1,7)                  1.5633         estimate D2E/DX2                !
 ! R4    R(1,67)                 1.7746         estimate D2E/DX2                !
 ! R5    R(2,3)                  1.5599         estimate D2E/DX2                !
 ! R6    R(2,10)                 1.5656         estimate D2E/DX2                !
 ! R7    R(2,68)                 1.773          estimate D2E/DX2                !
 ! R8    R(3,5)                  1.4719         estimate D2E/DX2                !
 ! R9    R(3,12)                 1.5032         estimate D2E/DX2                !
 ! R10   R(3,69)                 1.7829         estimate D2E/DX2                !
 ! R11   R(4,5)                  1.4694         estimate D2E/DX2                !
 ! R12   R(4,6)                  1.4849         estimate D2E/DX2                !
 ! R13   R(4,76)                 1.808          estimate D2E/DX2                !
 ! R14   R(5,15)                 1.3385         estimate D2E/DX2                !
 ! R15   R(6,8)                  1.3444         estimate D2E/DX2                !
 ! R16   R(6,17)                 1.4252         estimate D2E/DX2                !
 ! R17   R(7,8)                  1.5105         estimate D2E/DX2                !
 ! R18   R(7,9)                  1.5054         estimate D2E/DX2                !
 ! R19   R(7,75)                 1.8071         estimate D2E/DX2                !
 ! R20   R(8,20)                 1.4347         estimate D2E/DX2                !
 ! R21   R(9,11)                 1.3929         estimate D2E/DX2                !
 ! R22   R(9,22)                 1.3849         estimate D2E/DX2                !
 ! R23   R(10,11)                1.5041         estimate D2E/DX2                !
 ! R24   R(10,13)                1.5096         estimate D2E/DX2                !
 ! R25   R(10,74)                1.7977         estimate D2E/DX2                !
 ! R26   R(11,25)                1.3903         estimate D2E/DX2                !
 ! R27   R(12,13)                1.3665         estimate D2E/DX2                !
 ! R28   R(12,14)                1.3893         estimate D2E/DX2                !
 ! R29   R(13,27)                1.3877         estimate D2E/DX2                !
 ! R30   R(14,16)                1.5199         estimate D2E/DX2                !
 ! R31   R(14,29)                1.3999         estimate D2E/DX2                !
 ! R32   R(15,16)                1.515          estimate D2E/DX2                !
 ! R33   R(15,18)                1.4542         estimate D2E/DX2                !
 ! R34   R(16,32)                1.5011         estimate D2E/DX2                !
 ! R35   R(16,70)                1.7891         estimate D2E/DX2                !
 ! R36   R(17,18)                1.4026         estimate D2E/DX2                !
 ! R37   R(17,19)                1.4364         estimate D2E/DX2                !
 ! R38   R(18,33)                1.4084         estimate D2E/DX2                !
 ! R39   R(19,21)                1.444          estimate D2E/DX2                !
 ! R40   R(19,35)                1.4082         estimate D2E/DX2                !
 ! R41   R(20,21)                1.4334         estimate D2E/DX2                !
 ! R42   R(20,23)                1.3874         estimate D2E/DX2                !
 ! R43   R(21,38)                1.4116         estimate D2E/DX2                !
 ! R44   R(22,23)                1.4577         estimate D2E/DX2                !
 ! R45   R(22,24)                1.4108         estimate D2E/DX2                !
 ! R46   R(23,40)                1.4193         estimate D2E/DX2                !
 ! R47   R(24,26)                1.3804         estimate D2E/DX2                !
 ! R48   R(24,41)                1.4339         estimate D2E/DX2                !
 ! R49   R(25,26)                1.4091         estimate D2E/DX2                !
 ! R50   R(25,28)                1.5143         estimate D2E/DX2                !
 ! R51   R(26,44)                1.4292         estimate D2E/DX2                !
 ! R52   R(27,28)                1.5115         estimate D2E/DX2                !
 ! R53   R(27,30)                1.3965         estimate D2E/DX2                !
 ! R54   R(28,45)                1.4975         estimate D2E/DX2                !
 ! R55   R(28,73)                1.7958         estimate D2E/DX2                !
 ! R56   R(29,30)                1.4075         estimate D2E/DX2                !
 ! R57   R(29,31)                1.5231         estimate D2E/DX2                !
 ! R58   R(30,47)                1.5218         estimate D2E/DX2                !
 ! R59   R(31,34)                1.5063         estimate D2E/DX2                !
 ! R60   R(31,49)                1.5022         estimate D2E/DX2                !
 ! R61   R(31,71)                1.8055         estimate D2E/DX2                !
 ! R62   R(32,33)                1.4385         estimate D2E/DX2                !
 ! R63   R(32,34)                1.3521         estimate D2E/DX2                !
 ! R64   R(33,36)                1.3838         estimate D2E/DX2                !
 ! R65   R(34,51)                1.4372         estimate D2E/DX2                !
 ! R66   R(35,36)                1.4342         estimate D2E/DX2                !
 ! R67   R(35,37)                1.4298         estimate D2E/DX2                !
 ! R68   R(36,52)                1.4242         estimate D2E/DX2                !
 ! R69   R(37,39)                1.3776         estimate D2E/DX2                !
 ! R70   R(37,53)                1.4421         estimate D2E/DX2                !
 ! R71   R(38,39)                1.4325         estimate D2E/DX2                !
 ! R72   R(38,42)                1.4323         estimate D2E/DX2                !
 ! R73   R(39,57)                1.439          estimate D2E/DX2                !
 ! R74   R(40,41)                1.4388         estimate D2E/DX2                !
 ! R75   R(40,42)                1.3842         estimate D2E/DX2                !
 ! R76   R(41,43)                1.3767         estimate D2E/DX2                !
 ! R77   R(42,58)                1.4374         estimate D2E/DX2                !
 ! R78   R(43,46)                1.4405         estimate D2E/DX2                !
 ! R79   R(43,59)                1.4415         estimate D2E/DX2                !
 ! R80   R(44,45)                1.4241         estimate D2E/DX2                !
 ! R81   R(44,46)                1.3794         estimate D2E/DX2                !
 ! R82   R(45,48)                1.3561         estimate D2E/DX2                !
 ! R83   R(46,61)                1.4233         estimate D2E/DX2                !
 ! R84   R(47,48)                1.5025         estimate D2E/DX2                !
 ! R85   R(47,50)                1.502          estimate D2E/DX2                !
 ! R86   R(47,72)                1.8059         estimate D2E/DX2                !
 ! R87   R(48,62)                1.4294         estimate D2E/DX2                !
 ! R88   R(49,50)                1.3574         estimate D2E/DX2                !
 ! R89   R(49,54)                1.4311         estimate D2E/DX2                !
 ! R90   R(50,63)                1.4326         estimate D2E/DX2                !
 ! R91   R(51,52)                1.3832         estimate D2E/DX2                !
 ! R92   R(51,54)                1.4228         estimate D2E/DX2                !
 ! R93   R(52,53)                1.4372         estimate D2E/DX2                !
 ! R94   R(53,55)                1.3773         estimate D2E/DX2                !
 ! R95   R(54,56)                1.3838         estimate D2E/DX2                !
 ! R96   R(55,56)                1.4384         estimate D2E/DX2                !
 ! R97   R(55,60)                1.4389         estimate D2E/DX2                !
 ! R98   R(56,64)                1.4194         estimate D2E/DX2                !
 ! R99   R(57,58)                1.4373         estimate D2E/DX2                !
 ! R100  R(57,60)                1.3802         estimate D2E/DX2                !
 ! R101  R(58,59)                1.3827         estimate D2E/DX2                !
 ! R102  R(59,65)                1.437          estimate D2E/DX2                !
 ! R103  R(60,66)                1.4375         estimate D2E/DX2                !
 ! R104  R(61,62)                1.385          estimate D2E/DX2                !
 ! R105  R(61,65)                1.4358         estimate D2E/DX2                !
 ! R106  R(62,63)                1.4245         estimate D2E/DX2                !
 ! R107  R(63,64)                1.3819         estimate D2E/DX2                !
 ! R108  R(64,66)                1.4366         estimate D2E/DX2                !
 ! R109  R(65,66)                1.382          estimate D2E/DX2                !
 ! A1    A(2,1,4)              104.8043         estimate D2E/DX2                !
 ! A2    A(2,1,7)              117.4681         estimate D2E/DX2                !
 ! A3    A(2,1,67)             110.5089         estimate D2E/DX2                !
 ! A4    A(4,1,7)              103.3441         estimate D2E/DX2                !
 ! A5    A(4,1,67)             109.557          estimate D2E/DX2                !
 ! A6    A(7,1,67)             110.5445         estimate D2E/DX2                !
 ! A7    A(1,2,3)              106.4617         estimate D2E/DX2                !
 ! A8    A(1,2,10)             116.9841         estimate D2E/DX2                !
 ! A9    A(1,2,68)             109.1222         estimate D2E/DX2                !
 ! A10   A(3,2,10)             102.9685         estimate D2E/DX2                !
 ! A11   A(3,2,68)             109.761          estimate D2E/DX2                !
 ! A12   A(10,2,68)            111.1297         estimate D2E/DX2                !
 ! A13   A(2,3,5)              107.2886         estimate D2E/DX2                !
 ! A14   A(2,3,12)             107.8336         estimate D2E/DX2                !
 ! A15   A(2,3,69)             116.0171         estimate D2E/DX2                !
 ! A16   A(5,3,12)             103.0491         estimate D2E/DX2                !
 ! A17   A(5,3,69)             112.2432         estimate D2E/DX2                !
 ! A18   A(12,3,69)            109.5376         estimate D2E/DX2                !
 ! A19   A(1,4,5)              108.1948         estimate D2E/DX2                !
 ! A20   A(1,4,6)              107.3929         estimate D2E/DX2                !
 ! A21   A(1,4,76)             114.6025         estimate D2E/DX2                !
 ! A22   A(5,4,6)              107.1865         estimate D2E/DX2                !
 ! A23   A(5,4,76)             109.4088         estimate D2E/DX2                !
 ! A24   A(6,4,76)             109.783          estimate D2E/DX2                !
 ! A25   A(3,5,4)              112.379          estimate D2E/DX2                !
 ! A26   A(3,5,15)             121.7534         estimate D2E/DX2                !
 ! A27   A(4,5,15)             121.8681         estimate D2E/DX2                !
 ! A28   A(4,6,8)              110.9198         estimate D2E/DX2                !
 ! A29   A(4,6,17)             123.6883         estimate D2E/DX2                !
 ! A30   A(8,6,17)             122.3043         estimate D2E/DX2                !
 ! A31   A(1,7,8)              105.6024         estimate D2E/DX2                !
 ! A32   A(1,7,9)              118.7348         estimate D2E/DX2                !
 ! A33   A(1,7,75)             112.836          estimate D2E/DX2                !
 ! A34   A(8,7,9)              103.6899         estimate D2E/DX2                !
 ! A35   A(8,7,75)             109.9346         estimate D2E/DX2                !
 ! A36   A(9,7,75)             105.5309         estimate D2E/DX2                !
 ! A37   A(6,8,7)              112.3916         estimate D2E/DX2                !
 ! A38   A(6,8,20)             120.2063         estimate D2E/DX2                !
 ! A39   A(7,8,20)             125.336          estimate D2E/DX2                !
 ! A40   A(7,9,11)             124.9565         estimate D2E/DX2                !
 ! A41   A(7,9,22)             114.1211         estimate D2E/DX2                !
 ! A42   A(11,9,22)            119.4231         estimate D2E/DX2                !
 ! A43   A(2,10,11)            120.7088         estimate D2E/DX2                !
 ! A44   A(2,10,13)            106.7381         estimate D2E/DX2                !
 ! A45   A(2,10,74)            111.5181         estimate D2E/DX2                !
 ! A46   A(11,10,13)           100.0165         estimate D2E/DX2                !
 ! A47   A(11,10,74)           107.0436         estimate D2E/DX2                !
 ! A48   A(13,10,74)           109.9785         estimate D2E/DX2                !
 ! A49   A(9,11,10)            121.0948         estimate D2E/DX2                !
 ! A50   A(9,11,25)            119.4321         estimate D2E/DX2                !
 ! A51   A(10,11,25)           117.0746         estimate D2E/DX2                !
 ! A52   A(3,12,13)            110.2261         estimate D2E/DX2                !
 ! A53   A(3,12,14)            125.7913         estimate D2E/DX2                !
 ! A54   A(13,12,14)           120.772          estimate D2E/DX2                !
 ! A55   A(10,13,12)           111.668          estimate D2E/DX2                !
 ! A56   A(10,13,27)           127.1593         estimate D2E/DX2                !
 ! A57   A(12,13,27)           120.0029         estimate D2E/DX2                !
 ! A58   A(12,14,16)           117.1145         estimate D2E/DX2                !
 ! A59   A(12,14,29)           119.2176         estimate D2E/DX2                !
 ! A60   A(16,14,29)           122.2689         estimate D2E/DX2                !
 ! A61   A(5,15,16)            124.1887         estimate D2E/DX2                !
 ! A62   A(5,15,18)            120.6447         estimate D2E/DX2                !
 ! A63   A(16,15,18)           109.4179         estimate D2E/DX2                !
 ! A64   A(14,16,15)           103.9648         estimate D2E/DX2                !
 ! A65   A(14,16,32)           109.5518         estimate D2E/DX2                !
 ! A66   A(14,16,70)           111.0975         estimate D2E/DX2                !
 ! A67   A(15,16,32)           102.3021         estimate D2E/DX2                !
 ! A68   A(15,16,70)           116.5935         estimate D2E/DX2                !
 ! A69   A(32,16,70)           112.6281         estimate D2E/DX2                !
 ! A70   A(6,17,18)            114.6672         estimate D2E/DX2                !
 ! A71   A(6,17,19)            118.683          estimate D2E/DX2                !
 ! A72   A(18,17,19)           120.5994         estimate D2E/DX2                !
 ! A73   A(15,18,17)           119.6047         estimate D2E/DX2                !
 ! A74   A(15,18,33)           108.425          estimate D2E/DX2                !
 ! A75   A(17,18,33)           120.7716         estimate D2E/DX2                !
 ! A76   A(17,19,21)           118.8682         estimate D2E/DX2                !
 ! A77   A(17,19,35)           116.9966         estimate D2E/DX2                !
 ! A78   A(21,19,35)           118.9422         estimate D2E/DX2                !
 ! A79   A(8,20,21)            119.6048         estimate D2E/DX2                !
 ! A80   A(8,20,23)            114.4178         estimate D2E/DX2                !
 ! A81   A(21,20,23)           120.2932         estimate D2E/DX2                !
 ! A82   A(19,21,20)           119.1276         estimate D2E/DX2                !
 ! A83   A(19,21,38)           118.1974         estimate D2E/DX2                !
 ! A84   A(20,21,38)           117.2974         estimate D2E/DX2                !
 ! A85   A(9,22,23)            123.6972         estimate D2E/DX2                !
 ! A86   A(9,22,24)            121.2893         estimate D2E/DX2                !
 ! A87   A(23,22,24)           106.9414         estimate D2E/DX2                !
 ! A88   A(20,23,22)           117.3141         estimate D2E/DX2                !
 ! A89   A(20,23,40)           121.3593         estimate D2E/DX2                !
 ! A90   A(22,23,40)           108.5216         estimate D2E/DX2                !
 ! A91   A(22,24,26)           118.5875         estimate D2E/DX2                !
 ! A92   A(22,24,41)           109.1095         estimate D2E/DX2                !
 ! A93   A(26,24,41)           120.8161         estimate D2E/DX2                !
 ! A94   A(11,25,26)           120.6403         estimate D2E/DX2                !
 ! A95   A(11,25,28)           125.4216         estimate D2E/DX2                !
 ! A96   A(26,25,28)           108.7554         estimate D2E/DX2                !
 ! A97   A(24,26,25)           119.8023         estimate D2E/DX2                !
 ! A98   A(24,26,44)           119.594          estimate D2E/DX2                !
 ! A99   A(25,26,44)           110.4073         estimate D2E/DX2                !
 ! A100  A(13,27,28)           116.6268         estimate D2E/DX2                !
 ! A101  A(13,27,30)           119.9494         estimate D2E/DX2                !
 ! A102  A(28,27,30)           122.2939         estimate D2E/DX2                !
 ! A103  A(25,28,27)           103.886          estimate D2E/DX2                !
 ! A104  A(25,28,45)           101.9285         estimate D2E/DX2                !
 ! A105  A(25,28,73)           117.9779         estimate D2E/DX2                !
 ! A106  A(27,28,45)           110.9777         estimate D2E/DX2                !
 ! A107  A(27,28,73)           110.636          estimate D2E/DX2                !
 ! A108  A(45,28,73)           110.9512         estimate D2E/DX2                !
 ! A109  A(14,29,30)           119.2727         estimate D2E/DX2                !
 ! A110  A(14,29,31)           118.5758         estimate D2E/DX2                !
 ! A111  A(30,29,31)           121.4659         estimate D2E/DX2                !
 ! A112  A(27,30,29)           119.576          estimate D2E/DX2                !
 ! A113  A(27,30,47)           119.5289         estimate D2E/DX2                !
 ! A114  A(29,30,47)           120.4508         estimate D2E/DX2                !
 ! A115  A(29,31,34)           109.3515         estimate D2E/DX2                !
 ! A116  A(29,31,49)           110.5888         estimate D2E/DX2                !
 ! A117  A(29,31,71)           107.7817         estimate D2E/DX2                !
 ! A118  A(34,31,49)           101.2665         estimate D2E/DX2                !
 ! A119  A(34,31,71)           114.3333         estimate D2E/DX2                !
 ! A120  A(49,31,71)           113.4086         estimate D2E/DX2                !
 ! A121  A(16,32,33)           110.0168         estimate D2E/DX2                !
 ! A122  A(16,32,34)           121.511          estimate D2E/DX2                !
 ! A123  A(33,32,34)           119.0427         estimate D2E/DX2                !
 ! A124  A(18,33,32)           109.1748         estimate D2E/DX2                !
 ! A125  A(18,33,36)           119.0748         estimate D2E/DX2                !
 ! A126  A(32,33,36)           121.025          estimate D2E/DX2                !
 ! A127  A(31,34,32)           122.5673         estimate D2E/DX2                !
 ! A128  A(31,34,51)           110.8794         estimate D2E/DX2                !
 ! A129  A(32,34,51)           119.6888         estimate D2E/DX2                !
 ! A130  A(19,35,36)           120.6924         estimate D2E/DX2                !
 ! A131  A(19,35,37)           121.6324         estimate D2E/DX2                !
 ! A132  A(36,35,37)           107.552          estimate D2E/DX2                !
 ! A133  A(33,36,35)           120.3786         estimate D2E/DX2                !
 ! A134  A(33,36,52)           119.3287         estimate D2E/DX2                !
 ! A135  A(35,36,52)           108.8756         estimate D2E/DX2                !
 ! A136  A(35,37,39)           119.6492         estimate D2E/DX2                !
 ! A137  A(35,37,53)           107.6054         estimate D2E/DX2                !
 ! A138  A(39,37,53)           120.7776         estimate D2E/DX2                !
 ! A139  A(21,38,39)           121.784          estimate D2E/DX2                !
 ! A140  A(21,38,42)           121.6577         estimate D2E/DX2                !
 ! A141  A(39,38,42)           107.0793         estimate D2E/DX2                !
 ! A142  A(37,39,38)           119.619          estimate D2E/DX2                !
 ! A143  A(37,39,57)           119.9783         estimate D2E/DX2                !
 ! A144  A(38,39,57)           108.7595         estimate D2E/DX2                !
 ! A145  A(23,40,41)           107.6042         estimate D2E/DX2                !
 ! A146  A(23,40,42)           119.6025         estimate D2E/DX2                !
 ! A147  A(41,40,42)           120.6452         estimate D2E/DX2                !
 ! A148  A(24,41,40)           107.7401         estimate D2E/DX2                !
 ! A149  A(24,41,43)           119.9207         estimate D2E/DX2                !
 ! A150  A(40,41,43)           119.234          estimate D2E/DX2                !
 ! A151  A(38,42,40)           119.2532         estimate D2E/DX2                !
 ! A152  A(38,42,58)           108.7013         estimate D2E/DX2                !
 ! A153  A(40,42,58)           119.8439         estimate D2E/DX2                !
 ! A154  A(41,43,46)           119.0365         estimate D2E/DX2                !
 ! A155  A(41,43,59)           120.3519         estimate D2E/DX2                !
 ! A156  A(46,43,59)           108.6088         estimate D2E/DX2                !
 ! A157  A(26,44,45)           107.0661         estimate D2E/DX2                !
 ! A158  A(26,44,46)           119.5474         estimate D2E/DX2                !
 ! A159  A(45,44,46)           121.7427         estimate D2E/DX2                !
 ! A160  A(28,45,44)           110.421          estimate D2E/DX2                !
 ! A161  A(28,45,48)           122.0111         estimate D2E/DX2                !
 ! A162  A(44,45,48)           119.712          estimate D2E/DX2                !
 ! A163  A(43,46,44)           121.0753         estimate D2E/DX2                !
 ! A164  A(43,46,61)           107.9516         estimate D2E/DX2                !
 ! A165  A(44,46,61)           118.7681         estimate D2E/DX2                !
 ! A166  A(30,47,48)           110.3686         estimate D2E/DX2                !
 ! A167  A(30,47,50)           110.4758         estimate D2E/DX2                !
 ! A168  A(30,47,72)           106.7149         estimate D2E/DX2                !
 ! A169  A(48,47,50)           101.5673         estimate D2E/DX2                !
 ! A170  A(48,47,72)           113.6396         estimate D2E/DX2                !
 ! A171  A(50,47,72)           114.0928         estimate D2E/DX2                !
 ! A172  A(45,48,47)           122.6444         estimate D2E/DX2                !
 ! A173  A(45,48,62)           119.1501         estimate D2E/DX2                !
 ! A174  A(47,48,62)           110.8213         estimate D2E/DX2                !
 ! A175  A(31,49,50)           122.4196         estimate D2E/DX2                !
 ! A176  A(31,49,54)           110.756          estimate D2E/DX2                !
 ! A177  A(50,49,54)           119.3555         estimate D2E/DX2                !
 ! A178  A(47,50,49)           122.741          estimate D2E/DX2                !
 ! A179  A(47,50,63)           110.4432         estimate D2E/DX2                !
 ! A180  A(49,50,63)           119.3991         estimate D2E/DX2                !
 ! A181  A(34,51,52)           121.1173         estimate D2E/DX2                !
 ! A182  A(34,51,54)           107.9821         estimate D2E/DX2                !
 ! A183  A(52,51,54)           119.7696         estimate D2E/DX2                !
 ! A184  A(36,52,51)           118.6549         estimate D2E/DX2                !
 ! A185  A(36,52,53)           107.1571         estimate D2E/DX2                !
 ! A186  A(51,52,53)           120.7859         estimate D2E/DX2                !
 ! A187  A(37,53,52)           108.2623         estimate D2E/DX2                !
 ! A188  A(37,53,55)           118.9735         estimate D2E/DX2                !
 ! A189  A(52,53,55)           119.6174         estimate D2E/DX2                !
 ! A190  A(49,54,51)           108.6903         estimate D2E/DX2                !
 ! A191  A(49,54,56)           121.4443         estimate D2E/DX2                !
 ! A192  A(51,54,56)           119.322          estimate D2E/DX2                !
 ! A193  A(53,55,56)           119.1022         estimate D2E/DX2                !
 ! A194  A(53,55,60)           120.1565         estimate D2E/DX2                !
 ! A195  A(56,55,60)           108.7057         estimate D2E/DX2                !
 ! A196  A(54,56,55)           121.1986         estimate D2E/DX2                !
 ! A197  A(54,56,64)           119.2646         estimate D2E/DX2                !
 ! A198  A(55,56,64)           107.7757         estimate D2E/DX2                !
 ! A199  A(39,57,58)           107.4349         estimate D2E/DX2                !
 ! A200  A(39,57,60)           119.0964         estimate D2E/DX2                !
 ! A201  A(58,57,60)           119.9769         estimate D2E/DX2                !
 ! A202  A(42,58,57)           107.6398         estimate D2E/DX2                !
 ! A203  A(42,58,59)           119.4689         estimate D2E/DX2                !
 ! A204  A(57,58,59)           119.865          estimate D2E/DX2                !
 ! A205  A(43,59,58)           120.2606         estimate D2E/DX2                !
 ! A206  A(43,59,65)           106.5412         estimate D2E/DX2                !
 ! A207  A(58,59,65)           120.1237         estimate D2E/DX2                !
 ! A208  A(55,60,57)           120.6694         estimate D2E/DX2                !
 ! A209  A(55,60,66)           106.697          estimate D2E/DX2                !
 ! A210  A(57,60,66)           120.1021         estimate D2E/DX2                !
 ! A211  A(46,61,62)           119.034          estimate D2E/DX2                !
 ! A212  A(46,61,65)           107.818          estimate D2E/DX2                !
 ! A213  A(62,61,65)           121.0619         estimate D2E/DX2                !
 ! A214  A(48,62,61)           121.4841         estimate D2E/DX2                !
 ! A215  A(48,62,63)           108.2068         estimate D2E/DX2                !
 ! A216  A(61,62,63)           119.7811         estimate D2E/DX2                !
 ! A217  A(50,63,62)           108.5859         estimate D2E/DX2                !
 ! A218  A(50,63,64)           121.6484         estimate D2E/DX2                !
 ! A219  A(62,63,64)           119.1706         estimate D2E/DX2                !
 ! A220  A(56,64,63)           118.8397         estimate D2E/DX2                !
 ! A221  A(56,64,66)           108.2085         estimate D2E/DX2                !
 ! A222  A(63,64,66)           121.3697         estimate D2E/DX2                !
 ! A223  A(59,65,61)           109.039          estimate D2E/DX2                !
 ! A224  A(59,65,66)           119.8684         estimate D2E/DX2                !
 ! A225  A(61,65,66)           119.1705         estimate D2E/DX2                !
 ! A226  A(60,66,64)           108.5512         estimate D2E/DX2                !
 ! A227  A(60,66,65)           119.958          estimate D2E/DX2                !
 ! A228  A(64,66,65)           119.3504         estimate D2E/DX2                !
 ! D1    D(4,1,2,3)              0.4753         estimate D2E/DX2                !
 ! D2    D(4,1,2,10)          -113.9213         estimate D2E/DX2                !
 ! D3    D(4,1,2,68)           118.8728         estimate D2E/DX2                !
 ! D4    D(7,1,2,3)            114.4573         estimate D2E/DX2                !
 ! D5    D(7,1,2,10)             0.0607         estimate D2E/DX2                !
 ! D6    D(7,1,2,68)          -127.1452         estimate D2E/DX2                !
 ! D7    D(67,1,2,3)          -117.4636         estimate D2E/DX2                !
 ! D8    D(67,1,2,10)          128.1398         estimate D2E/DX2                !
 ! D9    D(67,1,2,68)            0.9339         estimate D2E/DX2                !
 ! D10   D(2,1,4,5)              5.1109         estimate D2E/DX2                !
 ! D11   D(2,1,4,6)            120.5084         estimate D2E/DX2                !
 ! D12   D(2,1,4,76)          -117.248          estimate D2E/DX2                !
 ! D13   D(7,1,4,5)           -118.4636         estimate D2E/DX2                !
 ! D14   D(7,1,4,6)             -3.0661         estimate D2E/DX2                !
 ! D15   D(7,1,4,76)           119.1775         estimate D2E/DX2                !
 ! D16   D(67,1,4,5)           123.6955         estimate D2E/DX2                !
 ! D17   D(67,1,4,6)          -120.907          estimate D2E/DX2                !
 ! D18   D(67,1,4,76)            1.3366         estimate D2E/DX2                !
 ! D19   D(2,1,7,8)           -115.0583         estimate D2E/DX2                !
 ! D20   D(2,1,7,9)              0.6211         estimate D2E/DX2                !
 ! D21   D(2,1,7,75)           124.8298         estimate D2E/DX2                !
 ! D22   D(4,1,7,8)             -0.2687         estimate D2E/DX2                !
 ! D23   D(4,1,7,9)            115.4107         estimate D2E/DX2                !
 ! D24   D(4,1,7,75)          -120.3806         estimate D2E/DX2                !
 ! D25   D(67,1,7,8)           116.8797         estimate D2E/DX2                !
 ! D26   D(67,1,7,9)          -127.441          estimate D2E/DX2                !
 ! D27   D(67,1,7,75)           -3.2322         estimate D2E/DX2                !
 ! D28   D(1,2,3,5)             -5.8621         estimate D2E/DX2                !
 ! D29   D(1,2,3,12)          -116.26           estimate D2E/DX2                !
 ! D30   D(1,2,3,69)           120.5136         estimate D2E/DX2                !
 ! D31   D(10,2,3,5)           117.7501         estimate D2E/DX2                !
 ! D32   D(10,2,3,12)            7.3522         estimate D2E/DX2                !
 ! D33   D(10,2,3,69)         -115.8743         estimate D2E/DX2                !
 ! D34   D(68,2,3,5)          -123.8389         estimate D2E/DX2                !
 ! D35   D(68,2,3,12)          125.7632         estimate D2E/DX2                !
 ! D36   D(68,2,3,69)            2.5368         estimate D2E/DX2                !
 ! D37   D(1,2,10,11)           -1.7479         estimate D2E/DX2                !
 ! D38   D(1,2,10,13)          111.199          estimate D2E/DX2                !
 ! D39   D(1,2,10,74)         -128.6628         estimate D2E/DX2                !
 ! D40   D(3,2,10,11)         -118.08           estimate D2E/DX2                !
 ! D41   D(3,2,10,13)           -5.1332         estimate D2E/DX2                !
 ! D42   D(3,2,10,74)          115.005          estimate D2E/DX2                !
 ! D43   D(68,2,10,11)         124.4714         estimate D2E/DX2                !
 ! D44   D(68,2,10,13)        -122.5817         estimate D2E/DX2                !
 ! D45   D(68,2,10,74)          -2.4435         estimate D2E/DX2                !
 ! D46   D(2,3,5,4)              9.6338         estimate D2E/DX2                !
 ! D47   D(2,3,5,15)          -148.2315         estimate D2E/DX2                !
 ! D48   D(12,3,5,4)           123.2986         estimate D2E/DX2                !
 ! D49   D(12,3,5,15)          -34.5667         estimate D2E/DX2                !
 ! D50   D(69,3,5,4)          -118.9473         estimate D2E/DX2                !
 ! D51   D(69,3,5,15)           83.1875         estimate D2E/DX2                !
 ! D52   D(2,3,12,13)           -7.2815         estimate D2E/DX2                !
 ! D53   D(2,3,12,14)          152.409          estimate D2E/DX2                !
 ! D54   D(5,3,12,13)         -120.549          estimate D2E/DX2                !
 ! D55   D(5,3,12,14)           39.1416         estimate D2E/DX2                !
 ! D56   D(69,3,12,13)         119.8103         estimate D2E/DX2                !
 ! D57   D(69,3,12,14)         -80.4992         estimate D2E/DX2                !
 ! D58   D(1,4,5,3)             -9.4058         estimate D2E/DX2                !
 ! D59   D(1,4,5,15)           148.4305         estimate D2E/DX2                !
 ! D60   D(6,4,5,3)           -124.9382         estimate D2E/DX2                !
 ! D61   D(6,4,5,15)            32.8981         estimate D2E/DX2                !
 ! D62   D(76,4,5,3)           116.0757         estimate D2E/DX2                !
 ! D63   D(76,4,5,15)          -86.088          estimate D2E/DX2                !
 ! D64   D(1,4,6,8)              5.8168         estimate D2E/DX2                !
 ! D65   D(1,4,6,17)          -154.6454         estimate D2E/DX2                !
 ! D66   D(5,4,6,8)            121.8816         estimate D2E/DX2                !
 ! D67   D(5,4,6,17)           -38.5806         estimate D2E/DX2                !
 ! D68   D(76,4,6,8)          -119.374          estimate D2E/DX2                !
 ! D69   D(76,4,6,17)           80.1638         estimate D2E/DX2                !
 ! D70   D(3,5,15,16)           -3.5924         estimate D2E/DX2                !
 ! D71   D(3,5,15,18)          146.8208         estimate D2E/DX2                !
 ! D72   D(4,5,15,16)         -159.3721         estimate D2E/DX2                !
 ! D73   D(4,5,15,18)           -8.9589         estimate D2E/DX2                !
 ! D74   D(4,6,8,7)             -6.2238         estimate D2E/DX2                !
 ! D75   D(4,6,8,20)          -170.7308         estimate D2E/DX2                !
 ! D76   D(17,6,8,7)           154.5546         estimate D2E/DX2                !
 ! D77   D(17,6,8,20)           -9.9524         estimate D2E/DX2                !
 ! D78   D(4,6,17,18)           18.2383         estimate D2E/DX2                !
 ! D79   D(4,6,17,19)          171.0811         estimate D2E/DX2                !
 ! D80   D(8,6,17,18)         -140.0716         estimate D2E/DX2                !
 ! D81   D(8,6,17,19)           12.7712         estimate D2E/DX2                !
 ! D82   D(1,7,8,6)              3.9899         estimate D2E/DX2                !
 ! D83   D(1,7,8,20)           167.5515         estimate D2E/DX2                !
 ! D84   D(9,7,8,6)           -121.5849         estimate D2E/DX2                !
 ! D85   D(9,7,8,20)            41.9767         estimate D2E/DX2                !
 ! D86   D(75,7,8,6)           125.9887         estimate D2E/DX2                !
 ! D87   D(75,7,8,20)          -70.4497         estimate D2E/DX2                !
 ! D88   D(1,7,9,11)             0.4403         estimate D2E/DX2                !
 ! D89   D(1,7,9,22)          -165.433          estimate D2E/DX2                !
 ! D90   D(8,7,9,11)           117.1361         estimate D2E/DX2                !
 ! D91   D(8,7,9,22)           -48.7372         estimate D2E/DX2                !
 ! D92   D(75,7,9,11)         -127.275          estimate D2E/DX2                !
 ! D93   D(75,7,9,22)           66.8516         estimate D2E/DX2                !
 ! D94   D(6,8,20,21)            0.2937         estimate D2E/DX2                !
 ! D95   D(6,8,20,23)          153.8159         estimate D2E/DX2                !
 ! D96   D(7,8,20,21)         -162.0831         estimate D2E/DX2                !
 ! D97   D(7,8,20,23)           -8.5609         estimate D2E/DX2                !
 ! D98   D(7,9,11,10)           -2.226          estimate D2E/DX2                !
 ! D99   D(7,9,11,25)         -164.1363         estimate D2E/DX2                !
 ! D100  D(22,9,11,10)         162.9564         estimate D2E/DX2                !
 ! D101  D(22,9,11,25)           1.0461         estimate D2E/DX2                !
 ! D102  D(7,9,22,23)           29.2547         estimate D2E/DX2                !
 ! D103  D(7,9,22,24)          173.8548         estimate D2E/DX2                !
 ! D104  D(11,9,22,23)        -137.4685         estimate D2E/DX2                !
 ! D105  D(11,9,22,24)           7.1316         estimate D2E/DX2                !
 ! D106  D(2,10,11,9)            2.8731         estimate D2E/DX2                !
 ! D107  D(2,10,11,25)         165.1923         estimate D2E/DX2                !
 ! D108  D(13,10,11,9)        -113.5541         estimate D2E/DX2                !
 ! D109  D(13,10,11,25)         48.7651         estimate D2E/DX2                !
 ! D110  D(74,10,11,9)         131.7981         estimate D2E/DX2                !
 ! D111  D(74,10,11,25)        -65.8827         estimate D2E/DX2                !
 ! D112  D(2,10,13,12)           1.0041         estimate D2E/DX2                !
 ! D113  D(2,10,13,27)        -166.4893         estimate D2E/DX2                !
 ! D114  D(11,10,13,12)        127.4911         estimate D2E/DX2                !
 ! D115  D(11,10,13,27)        -40.0023         estimate D2E/DX2                !
 ! D116  D(74,10,13,12)       -120.1191         estimate D2E/DX2                !
 ! D117  D(74,10,13,27)         72.3875         estimate D2E/DX2                !
 ! D118  D(9,11,25,26)          -7.259          estimate D2E/DX2                !
 ! D119  D(9,11,25,28)         144.369          estimate D2E/DX2                !
 ! D120  D(10,11,25,26)       -169.8846         estimate D2E/DX2                !
 ! D121  D(10,11,25,28)        -18.2566         estimate D2E/DX2                !
 ! D122  D(3,12,13,10)           3.9106         estimate D2E/DX2                !
 ! D123  D(3,12,13,27)         172.4152         estimate D2E/DX2                !
 ! D124  D(14,12,13,10)       -156.9616         estimate D2E/DX2                !
 ! D125  D(14,12,13,27)         11.5431         estimate D2E/DX2                !
 ! D126  D(3,12,14,16)          -3.8173         estimate D2E/DX2                !
 ! D127  D(3,12,14,29)        -170.6303         estimate D2E/DX2                !
 ! D128  D(13,12,14,16)        153.9076         estimate D2E/DX2                !
 ! D129  D(13,12,14,29)        -12.9054         estimate D2E/DX2                !
 ! D130  D(10,13,27,28)         -4.6582         estimate D2E/DX2                !
 ! D131  D(10,13,27,30)        163.4702         estimate D2E/DX2                !
 ! D132  D(12,13,27,28)       -171.2204         estimate D2E/DX2                !
 ! D133  D(12,13,27,30)         -3.0919         estimate D2E/DX2                !
 ! D134  D(12,14,16,15)        -34.0968         estimate D2E/DX2                !
 ! D135  D(12,14,16,32)       -142.8385         estimate D2E/DX2                !
 ! D136  D(12,14,16,70)         92.0869         estimate D2E/DX2                !
 ! D137  D(29,14,16,15)        132.2837         estimate D2E/DX2                !
 ! D138  D(29,14,16,32)         23.542          estimate D2E/DX2                !
 ! D139  D(29,14,16,70)       -101.5326         estimate D2E/DX2                !
 ! D140  D(12,14,29,30)          5.8478         estimate D2E/DX2                !
 ! D141  D(12,14,29,31)        176.5019         estimate D2E/DX2                !
 ! D142  D(16,14,29,30)       -160.2569         estimate D2E/DX2                !
 ! D143  D(16,14,29,31)         10.3972         estimate D2E/DX2                !
 ! D144  D(5,15,16,14)          39.8616         estimate D2E/DX2                !
 ! D145  D(5,15,16,32)         153.8897         estimate D2E/DX2                !
 ! D146  D(5,15,16,70)         -82.774          estimate D2E/DX2                !
 ! D147  D(18,15,16,14)       -113.3685         estimate D2E/DX2                !
 ! D148  D(18,15,16,32)          0.6596         estimate D2E/DX2                !
 ! D149  D(18,15,16,70)        123.9959         estimate D2E/DX2                !
 ! D150  D(5,15,18,17)         -15.7867         estimate D2E/DX2                !
 ! D151  D(5,15,18,33)        -159.8351         estimate D2E/DX2                !
 ! D152  D(16,15,18,17)        138.5519         estimate D2E/DX2                !
 ! D153  D(16,15,18,33)         -5.4965         estimate D2E/DX2                !
 ! D154  D(14,16,32,33)        114.1893         estimate D2E/DX2                !
 ! D155  D(14,16,32,34)        -31.8457         estimate D2E/DX2                !
 ! D156  D(15,16,32,33)          4.3395         estimate D2E/DX2                !
 ! D157  D(15,16,32,34)       -141.6955         estimate D2E/DX2                !
 ! D158  D(70,16,32,33)       -121.6254         estimate D2E/DX2                !
 ! D159  D(70,16,32,34)         92.3395         estimate D2E/DX2                !
 ! D160  D(6,17,18,15)          10.7595         estimate D2E/DX2                !
 ! D161  D(6,17,18,33)         150.348          estimate D2E/DX2                !
 ! D162  D(19,17,18,15)       -141.517          estimate D2E/DX2                !
 ! D163  D(19,17,18,33)         -1.9285         estimate D2E/DX2                !
 ! D164  D(6,17,19,21)          -5.8223         estimate D2E/DX2                !
 ! D165  D(6,17,19,35)        -160.1173         estimate D2E/DX2                !
 ! D166  D(18,17,19,21)        145.369          estimate D2E/DX2                !
 ! D167  D(18,17,19,35)         -8.926          estimate D2E/DX2                !
 ! D168  D(15,18,33,32)          8.2792         estimate D2E/DX2                !
 ! D169  D(15,18,33,36)        153.1359         estimate D2E/DX2                !
 ! D170  D(17,18,33,32)       -135.2724         estimate D2E/DX2                !
 ! D171  D(17,18,33,36)          9.5843         estimate D2E/DX2                !
 ! D172  D(17,19,21,20)         -3.215          estimate D2E/DX2                !
 ! D173  D(17,19,21,38)       -156.6524         estimate D2E/DX2                !
 ! D174  D(35,19,21,20)        150.5769         estimate D2E/DX2                !
 ! D175  D(35,19,21,38)         -2.8605         estimate D2E/DX2                !
 ! D176  D(17,19,35,36)         12.3317         estimate D2E/DX2                !
 ! D177  D(17,19,35,37)        153.3664         estimate D2E/DX2                !
 ! D178  D(21,19,35,36)       -141.9435         estimate D2E/DX2                !
 ! D179  D(21,19,35,37)         -0.9088         estimate D2E/DX2                !
 ! D180  D(8,20,21,19)           6.1596         estimate D2E/DX2                !
 ! D181  D(8,20,21,38)         159.8325         estimate D2E/DX2                !
 ! D182  D(23,20,21,19)       -145.795          estimate D2E/DX2                !
 ! D183  D(23,20,21,38)          7.8779         estimate D2E/DX2                !
 ! D184  D(8,20,23,22)         -19.0288         estimate D2E/DX2                !
 ! D185  D(8,20,23,40)        -156.2031         estimate D2E/DX2                !
 ! D186  D(21,20,23,22)        134.295          estimate D2E/DX2                !
 ! D187  D(21,20,23,40)         -2.8793         estimate D2E/DX2                !
 ! D188  D(19,21,38,39)          4.5378         estimate D2E/DX2                !
 ! D189  D(19,21,38,42)        146.534          estimate D2E/DX2                !
 ! D190  D(20,21,38,39)       -149.3853         estimate D2E/DX2                !
 ! D191  D(20,21,38,42)         -7.3891         estimate D2E/DX2                !
 ! D192  D(9,22,23,20)           8.8804         estimate D2E/DX2                !
 ! D193  D(9,22,23,40)         151.1332         estimate D2E/DX2                !
 ! D194  D(24,22,23,20)       -139.956          estimate D2E/DX2                !
 ! D195  D(24,22,23,40)          2.2969         estimate D2E/DX2                !
 ! D196  D(9,22,24,26)          -8.9974         estimate D2E/DX2                !
 ! D197  D(9,22,24,41)        -152.727          estimate D2E/DX2                !
 ! D198  D(23,22,24,26)        140.75           estimate D2E/DX2                !
 ! D199  D(23,22,24,41)         -2.9797         estimate D2E/DX2                !
 ! D200  D(20,23,40,41)        139.702          estimate D2E/DX2                !
 ! D201  D(20,23,40,42)         -2.9828         estimate D2E/DX2                !
 ! D202  D(22,23,40,41)         -0.7317         estimate D2E/DX2                !
 ! D203  D(22,23,40,42)       -143.4165         estimate D2E/DX2                !
 ! D204  D(22,24,26,25)          2.6991         estimate D2E/DX2                !
 ! D205  D(22,24,26,44)       -139.2455         estimate D2E/DX2                !
 ! D206  D(41,24,26,25)        142.0903         estimate D2E/DX2                !
 ! D207  D(41,24,26,44)          0.1457         estimate D2E/DX2                !
 ! D208  D(22,24,41,40)          2.5684         estimate D2E/DX2                !
 ! D209  D(22,24,41,43)        143.4391         estimate D2E/DX2                !
 ! D210  D(26,24,41,40)       -140.2121         estimate D2E/DX2                !
 ! D211  D(26,24,41,43)          0.6587         estimate D2E/DX2                !
 ! D212  D(11,25,26,24)          5.337          estimate D2E/DX2                !
 ! D213  D(11,25,26,44)        150.454          estimate D2E/DX2                !
 ! D214  D(28,25,26,24)       -150.5238         estimate D2E/DX2                !
 ! D215  D(28,25,26,44)         -5.4068         estimate D2E/DX2                !
 ! D216  D(11,25,28,27)        -28.6372         estimate D2E/DX2                !
 ! D217  D(11,25,28,45)       -144.0506         estimate D2E/DX2                !
 ! D218  D(11,25,28,73)         94.2104         estimate D2E/DX2                !
 ! D219  D(26,25,28,27)        125.7824         estimate D2E/DX2                !
 ! D220  D(26,25,28,45)         10.369          estimate D2E/DX2                !
 ! D221  D(26,25,28,73)       -111.3699         estimate D2E/DX2                !
 ! D222  D(24,26,44,45)        142.8358         estimate D2E/DX2                !
 ! D223  D(24,26,44,46)         -0.9328         estimate D2E/DX2                !
 ! D224  D(25,26,44,45)         -2.3639         estimate D2E/DX2                !
 ! D225  D(25,26,44,46)       -146.1324         estimate D2E/DX2                !
 ! D226  D(13,27,28,25)         38.3384         estimate D2E/DX2                !
 ! D227  D(13,27,28,45)        147.1716         estimate D2E/DX2                !
 ! D228  D(13,27,28,73)        -89.2139         estimate D2E/DX2                !
 ! D229  D(30,27,28,25)       -129.4885         estimate D2E/DX2                !
 ! D230  D(30,27,28,45)        -20.6553         estimate D2E/DX2                !
 ! D231  D(30,27,28,73)        102.9592         estimate D2E/DX2                !
 ! D232  D(13,27,30,29)         -3.7666         estimate D2E/DX2                !
 ! D233  D(13,27,30,47)       -176.1538         estimate D2E/DX2                !
 ! D234  D(28,27,30,29)        163.6681         estimate D2E/DX2                !
 ! D235  D(28,27,30,47)         -8.7191         estimate D2E/DX2                !
 ! D236  D(25,28,45,44)        -12.0275         estimate D2E/DX2                !
 ! D237  D(25,28,45,48)        136.8945         estimate D2E/DX2                !
 ! D238  D(27,28,45,44)       -122.1299         estimate D2E/DX2                !
 ! D239  D(27,28,45,48)         26.7922         estimate D2E/DX2                !
 ! D240  D(73,28,45,44)        114.4363         estimate D2E/DX2                !
 ! D241  D(73,28,45,48)        -96.6416         estimate D2E/DX2                !
 ! D242  D(14,29,30,27)          2.3112         estimate D2E/DX2                !
 ! D243  D(14,29,30,47)        174.627          estimate D2E/DX2                !
 ! D244  D(31,29,30,27)       -168.0638         estimate D2E/DX2                !
 ! D245  D(31,29,30,47)          4.252          estimate D2E/DX2                !
 ! D246  D(14,29,31,34)        -36.113          estimate D2E/DX2                !
 ! D247  D(14,29,31,49)       -146.7918         estimate D2E/DX2                !
 ! D248  D(14,29,31,71)         88.7253         estimate D2E/DX2                !
 ! D249  D(30,29,31,34)        134.3272         estimate D2E/DX2                !
 ! D250  D(30,29,31,49)         23.6483         estimate D2E/DX2                !
 ! D251  D(30,29,31,71)       -100.8346         estimate D2E/DX2                !
 ! D252  D(27,30,47,48)         31.805          estimate D2E/DX2                !
 ! D253  D(27,30,47,50)        143.3328         estimate D2E/DX2                !
 ! D254  D(27,30,47,72)        -92.1188         estimate D2E/DX2                !
 ! D255  D(29,30,47,48)       -140.5144         estimate D2E/DX2                !
 ! D256  D(29,30,47,50)        -28.9866         estimate D2E/DX2                !
 ! D257  D(29,30,47,72)         95.5618         estimate D2E/DX2                !
 ! D258  D(29,31,34,32)         29.0919         estimate D2E/DX2                !
 ! D259  D(29,31,34,51)       -121.6754         estimate D2E/DX2                !
 ! D260  D(49,31,34,32)        145.8357         estimate D2E/DX2                !
 ! D261  D(49,31,34,51)         -4.9316         estimate D2E/DX2                !
 ! D262  D(71,31,34,32)        -91.8424         estimate D2E/DX2                !
 ! D263  D(71,31,34,51)        117.3902         estimate D2E/DX2                !
 ! D264  D(29,31,49,50)        -27.1093         estimate D2E/DX2                !
 ! D265  D(29,31,49,54)        122.403          estimate D2E/DX2                !
 ! D266  D(34,31,49,50)       -142.943          estimate D2E/DX2                !
 ! D267  D(34,31,49,54)          6.5694         estimate D2E/DX2                !
 ! D268  D(71,31,49,50)         94.0963         estimate D2E/DX2                !
 ! D269  D(71,31,49,54)       -116.3913         estimate D2E/DX2                !
 ! D270  D(16,32,33,18)         -8.0199         estimate D2E/DX2                !
 ! D271  D(16,32,33,36)       -152.0704         estimate D2E/DX2                !
 ! D272  D(34,32,33,18)        138.9687         estimate D2E/DX2                !
 ! D273  D(34,32,33,36)         -5.0818         estimate D2E/DX2                !
 ! D274  D(16,32,34,31)          5.3653         estimate D2E/DX2                !
 ! D275  D(16,32,34,51)        153.6811         estimate D2E/DX2                !
 ! D276  D(33,32,34,31)       -137.7335         estimate D2E/DX2                !
 ! D277  D(33,32,34,51)         10.5823         estimate D2E/DX2                !
 ! D278  D(18,33,36,35)         -6.1405         estimate D2E/DX2                !
 ! D279  D(18,33,36,52)       -145.5585         estimate D2E/DX2                !
 ! D280  D(32,33,36,35)        134.4802         estimate D2E/DX2                !
 ! D281  D(32,33,36,52)         -4.9378         estimate D2E/DX2                !
 ! D282  D(31,34,51,52)        145.3359         estimate D2E/DX2                !
 ! D283  D(31,34,51,54)          1.6603         estimate D2E/DX2                !
 ! D284  D(32,34,51,52)         -6.3855         estimate D2E/DX2                !
 ! D285  D(32,34,51,54)       -150.0612         estimate D2E/DX2                !
 ! D286  D(19,35,36,33)         -5.0295         estimate D2E/DX2                !
 ! D287  D(19,35,36,52)        138.1446         estimate D2E/DX2                !
 ! D288  D(37,35,36,33)       -150.8653         estimate D2E/DX2                !
 ! D289  D(37,35,36,52)         -7.6913         estimate D2E/DX2                !
 ! D290  D(19,35,37,39)          3.1668         estimate D2E/DX2                !
 ! D291  D(19,35,37,53)       -139.8067         estimate D2E/DX2                !
 ! D292  D(36,35,37,39)        148.614          estimate D2E/DX2                !
 ! D293  D(36,35,37,53)          5.6405         estimate D2E/DX2                !
 ! D294  D(33,36,52,51)          9.1066         estimate D2E/DX2                !
 ! D295  D(33,36,52,53)        150.2887         estimate D2E/DX2                !
 ! D296  D(35,36,52,51)       -134.515          estimate D2E/DX2                !
 ! D297  D(35,36,52,53)          6.6671         estimate D2E/DX2                !
 ! D298  D(35,37,39,38)         -1.5316         estimate D2E/DX2                !
 ! D299  D(35,37,39,57)       -140.5588         estimate D2E/DX2                !
 ! D300  D(53,37,39,38)        136.55           estimate D2E/DX2                !
 ! D301  D(53,37,39,57)         -2.4771         estimate D2E/DX2                !
 ! D302  D(35,37,53,52)         -1.582          estimate D2E/DX2                !
 ! D303  D(35,37,53,55)        139.4583         estimate D2E/DX2                !
 ! D304  D(39,37,53,52)       -144.0553         estimate D2E/DX2                !
 ! D305  D(39,37,53,55)         -3.0151         estimate D2E/DX2                !
 ! D306  D(21,38,39,37)         -2.3554         estimate D2E/DX2                !
 ! D307  D(21,38,39,57)        140.7859         estimate D2E/DX2                !
 ! D308  D(42,38,39,37)       -149.1068         estimate D2E/DX2                !
 ! D309  D(42,38,39,57)         -5.9654         estimate D2E/DX2                !
 ! D310  D(21,38,42,40)          1.7862         estimate D2E/DX2                !
 ! D311  D(21,38,42,58)       -140.5651         estimate D2E/DX2                !
 ! D312  D(39,38,42,40)        148.5886         estimate D2E/DX2                !
 ! D313  D(39,38,42,58)          6.2374         estimate D2E/DX2                !
 ! D314  D(37,39,57,58)        146.4259         estimate D2E/DX2                !
 ! D315  D(37,39,57,60)          5.7006         estimate D2E/DX2                !
 ! D316  D(38,39,57,58)          3.4393         estimate D2E/DX2                !
 ! D317  D(38,39,57,60)       -137.2861         estimate D2E/DX2                !
 ! D318  D(23,40,41,24)         -1.0902         estimate D2E/DX2                !
 ! D319  D(23,40,41,43)       -142.2763         estimate D2E/DX2                !
 ! D320  D(42,40,41,24)        141.1295         estimate D2E/DX2                !
 ! D321  D(42,40,41,43)         -0.0565         estimate D2E/DX2                !
 ! D322  D(23,40,42,38)          3.5088         estimate D2E/DX2                !
 ! D323  D(23,40,42,58)        141.6707         estimate D2E/DX2                !
 ! D324  D(41,40,42,38)       -134.3            estimate D2E/DX2                !
 ! D325  D(41,40,42,58)          3.8619         estimate D2E/DX2                !
 ! D326  D(24,41,43,46)         -0.6615         estimate D2E/DX2                !
 ! D327  D(24,41,43,59)       -139.081          estimate D2E/DX2                !
 ! D328  D(40,41,43,46)        135.8038         estimate D2E/DX2                !
 ! D329  D(40,41,43,59)         -2.6157         estimate D2E/DX2                !
 ! D330  D(38,42,58,57)         -4.1579         estimate D2E/DX2                !
 ! D331  D(38,42,58,59)        137.0895         estimate D2E/DX2                !
 ! D332  D(40,42,58,57)       -146.2496         estimate D2E/DX2                !
 ! D333  D(40,42,58,59)         -5.0022         estimate D2E/DX2                !
 ! D334  D(41,43,46,44)         -0.1322         estimate D2E/DX2                !
 ! D335  D(41,43,46,61)       -141.9373         estimate D2E/DX2                !
 ! D336  D(59,43,46,44)        142.6892         estimate D2E/DX2                !
 ! D337  D(59,43,46,61)          0.8841         estimate D2E/DX2                !
 ! D338  D(41,43,59,58)          1.4493         estimate D2E/DX2                !
 ! D339  D(41,43,59,65)        142.655          estimate D2E/DX2                !
 ! D340  D(46,43,59,58)       -140.7972         estimate D2E/DX2                !
 ! D341  D(46,43,59,65)          0.4085         estimate D2E/DX2                !
 ! D342  D(26,44,45,28)          9.3836         estimate D2E/DX2                !
 ! D343  D(26,44,45,48)       -140.3533         estimate D2E/DX2                !
 ! D344  D(46,44,45,28)        152.1821         estimate D2E/DX2                !
 ! D345  D(46,44,45,48)          2.4451         estimate D2E/DX2                !
 ! D346  D(26,44,46,43)          0.9321         estimate D2E/DX2                !
 ! D347  D(26,44,46,61)        138.7829         estimate D2E/DX2                !
 ! D348  D(45,44,46,43)       -137.4313         estimate D2E/DX2                !
 ! D349  D(45,44,46,61)          0.4195         estimate D2E/DX2                !
 ! D350  D(28,45,48,47)         -2.8163         estimate D2E/DX2                !
 ! D351  D(28,45,48,62)       -150.0254         estimate D2E/DX2                !
 ! D352  D(44,45,48,47)        143.3357         estimate D2E/DX2                !
 ! D353  D(44,45,48,62)         -3.8734         estimate D2E/DX2                !
 ! D354  D(43,46,61,62)        141.1344         estimate D2E/DX2                !
 ! D355  D(43,46,61,65)         -1.8306         estimate D2E/DX2                !
 ! D356  D(44,46,61,62)         -1.6963         estimate D2E/DX2                !
 ! D357  D(44,46,61,65)       -144.6613         estimate D2E/DX2                !
 ! D358  D(30,47,48,45)        -26.6379         estimate D2E/DX2                !
 ! D359  D(30,47,48,62)        122.9624         estimate D2E/DX2                !
 ! D360  D(50,47,48,45)       -143.8233         estimate D2E/DX2                !
 ! D361  D(50,47,48,62)          5.7771         estimate D2E/DX2                !
 ! D362  D(72,47,48,45)         93.1906         estimate D2E/DX2                !
 ! D363  D(72,47,48,62)       -117.2091         estimate D2E/DX2                !
 ! D364  D(30,47,50,49)         26.5382         estimate D2E/DX2                !
 ! D365  D(30,47,50,63)       -123.0626         estimate D2E/DX2                !
 ! D366  D(48,47,50,49)        143.6457         estimate D2E/DX2                !
 ! D367  D(48,47,50,63)         -5.9551         estimate D2E/DX2                !
 ! D368  D(72,47,50,49)        -93.6789         estimate D2E/DX2                !
 ! D369  D(72,47,50,63)        116.7203         estimate D2E/DX2                !
 ! D370  D(45,48,62,61)          2.6169         estimate D2E/DX2                !
 ! D371  D(45,48,62,63)        147.1609         estimate D2E/DX2                !
 ! D372  D(47,48,62,61)       -148.1813         estimate D2E/DX2                !
 ! D373  D(47,48,62,63)         -3.6374         estimate D2E/DX2                !
 ! D374  D(31,49,50,47)          1.7677         estimate D2E/DX2                !
 ! D375  D(31,49,50,63)        148.7951         estimate D2E/DX2                !
 ! D376  D(54,49,50,47)       -145.2543         estimate D2E/DX2                !
 ! D377  D(54,49,50,63)          1.7731         estimate D2E/DX2                !
 ! D378  D(31,49,54,51)         -6.0355         estimate D2E/DX2                !
 ! D379  D(31,49,54,56)       -150.408          estimate D2E/DX2                !
 ! D380  D(50,49,54,51)        144.5336         estimate D2E/DX2                !
 ! D381  D(50,49,54,56)          0.1611         estimate D2E/DX2                !
 ! D382  D(47,50,63,62)          4.1729         estimate D2E/DX2                !
 ! D383  D(47,50,63,64)        148.3987         estimate D2E/DX2                !
 ! D384  D(49,50,63,62)       -146.5825         estimate D2E/DX2                !
 ! D385  D(49,50,63,64)         -2.3566         estimate D2E/DX2                !
 ! D386  D(34,51,52,36)         -3.6519         estimate D2E/DX2                !
 ! D387  D(34,51,52,53)       -139.4494         estimate D2E/DX2                !
 ! D388  D(54,51,52,36)        135.8758         estimate D2E/DX2                !
 ! D389  D(54,51,52,53)          0.0783         estimate D2E/DX2                !
 ! D390  D(34,51,54,49)          2.6519         estimate D2E/DX2                !
 ! D391  D(34,51,54,56)        147.9018         estimate D2E/DX2                !
 ! D392  D(52,51,54,49)       -141.6            estimate D2E/DX2                !
 ! D393  D(52,51,54,56)          3.6499         estimate D2E/DX2                !
 ! D394  D(36,52,53,37)         -3.1164         estimate D2E/DX2                !
 ! D395  D(36,52,53,55)       -143.863          estimate D2E/DX2                !
 ! D396  D(51,52,53,37)        137.0694         estimate D2E/DX2                !
 ! D397  D(51,52,53,55)         -3.6772         estimate D2E/DX2                !
 ! D398  D(37,53,55,56)       -133.1704         estimate D2E/DX2                !
 ! D399  D(37,53,55,60)          5.239          estimate D2E/DX2                !
 ! D400  D(52,53,55,56)          3.4488         estimate D2E/DX2                !
 ! D401  D(52,53,55,60)        141.8582         estimate D2E/DX2                !
 ! D402  D(49,54,56,55)        136.8631         estimate D2E/DX2                !
 ! D403  D(49,54,56,64)         -1.5952         estimate D2E/DX2                !
 ! D404  D(51,54,56,55)         -3.8741         estimate D2E/DX2                !
 ! D405  D(51,54,56,64)       -142.3324         estimate D2E/DX2                !
 ! D406  D(53,55,56,54)          0.2945         estimate D2E/DX2                !
 ! D407  D(53,55,56,64)        142.8834         estimate D2E/DX2                !
 ! D408  D(60,55,56,54)       -142.4068         estimate D2E/DX2                !
 ! D409  D(60,55,56,64)          0.1821         estimate D2E/DX2                !
 ! D410  D(53,55,60,57)         -2.0137         estimate D2E/DX2                !
 ! D411  D(53,55,60,66)       -143.8878         estimate D2E/DX2                !
 ! D412  D(56,55,60,57)        140.2271         estimate D2E/DX2                !
 ! D413  D(56,55,60,66)         -1.6471         estimate D2E/DX2                !
 ! D414  D(54,56,64,63)          1.0294         estimate D2E/DX2                !
 ! D415  D(54,56,64,66)        144.8066         estimate D2E/DX2                !
 ! D416  D(55,56,64,63)       -142.4085         estimate D2E/DX2                !
 ! D417  D(55,56,64,66)          1.3688         estimate D2E/DX2                !
 ! D418  D(39,57,58,42)          0.4389         estimate D2E/DX2                !
 ! D419  D(39,57,58,59)       -140.6268         estimate D2E/DX2                !
[...]
 Alpha virt. eigenvalues --    1.31591   1.31688   1.32219   1.32465   1.32804
 Alpha virt. eigenvalues --    1.33255   1.33274   1.34063   1.34178   1.34852
 Alpha virt. eigenvalues --    1.34883   1.35287   1.35655   1.35965   1.36239
 Alpha virt. eigenvalues --    1.36274   1.37024   1.37457   1.37511   1.37822
 Alpha virt. eigenvalues --    1.38368   1.38691   1.38853   1.39003   1.39582
 Alpha virt. eigenvalues --    1.39842   1.40044   1.40532   1.40549   1.40986
 Alpha virt. eigenvalues --    1.41018   1.41245   1.41534   1.41775   1.42052
 Alpha virt. eigenvalues --    1.42276   1.42479   1.42584   1.42925   1.43192
 Alpha virt. eigenvalues --    1.43367   1.43769   1.44022   1.44140   1.44504
 Alpha virt. eigenvalues --    1.44655   1.45134   1.45487   1.45621   1.45795
 Alpha virt. eigenvalues --    1.45920   1.46176   1.46584   1.46727   1.47086
 Alpha virt. eigenvalues --    1.47099   1.47597   1.47820   1.47959   1.48226
 Alpha virt. eigenvalues --    1.48604   1.48849   1.49023   1.49244   1.49557
 Alpha virt. eigenvalues --    1.49875   1.50119   1.50387   1.50867   1.51233
 Alpha virt. eigenvalues --    1.51424   1.51534   1.51743   1.51894   1.52304
 Alpha virt. eigenvalues --    1.52549   1.52967   1.53383   1.53600   1.53974
 Alpha virt. eigenvalues --    1.54357   1.54872   1.55345   1.55498   1.55866
 Alpha virt. eigenvalues --    1.56146   1.56266   1.56470   1.56899   1.57258
 Alpha virt. eigenvalues --    1.57848   1.58037   1.58453   1.59280   1.59461
 Alpha virt. eigenvalues --    1.59487   1.59908   1.60380   1.60591   1.61100
 Alpha virt. eigenvalues --    1.61173   1.61242   1.61805   1.61981   1.62379
 Alpha virt. eigenvalues --    1.62657   1.63270   1.63397   1.64454   1.64571
 Alpha virt. eigenvalues --    1.65110   1.65481   1.65897   1.66182   1.66459
 Alpha virt. eigenvalues --    1.67240   1.67530   1.67796   1.67921   1.68175
 Alpha virt. eigenvalues --    1.68452   1.68542   1.69433   1.69574   1.70207
 Alpha virt. eigenvalues --    1.70531   1.70926   1.71304   1.71479   1.71634
 Alpha virt. eigenvalues --    1.72028   1.72551   1.73057   1.73194   1.73442
 Alpha virt. eigenvalues --    1.73678   1.74223   1.74458   1.75176   1.75432
 Alpha virt. eigenvalues --    1.75847   1.75905   1.76367   1.76678   1.77122
 Alpha virt. eigenvalues --    1.77999   1.78113   1.78649   1.78884   1.79209
 Alpha virt. eigenvalues --    1.80340   1.80444   1.80762   1.80967   1.81700
 Alpha virt. eigenvalues --    1.81808   1.82864   1.83784   1.84221   1.84760
 Alpha virt. eigenvalues --    1.85365   1.85927   1.86265   1.86503   1.87172
 Alpha virt. eigenvalues --    1.87762   1.87787   1.88427   1.89010   1.89448
 Alpha virt. eigenvalues --    1.89989   1.90310   1.90521   1.91240   1.91690
 Alpha virt. eigenvalues --    1.92060   1.92189   1.92871   1.93241   1.93430
 Alpha virt. eigenvalues --    1.93646   1.94242   1.95015   1.95269   1.95978
 Alpha virt. eigenvalues --    1.96295   1.96855   1.97744   1.98480   1.99037
 Alpha virt. eigenvalues --    1.99345   1.99779   2.00218   2.00482   2.00802
 Alpha virt. eigenvalues --    2.01094   2.01239   2.01620   2.02058   2.02273
 Alpha virt. eigenvalues --    2.02377   2.02995   2.04192   2.04523   2.04605
 Alpha virt. eigenvalues --    2.05254   2.05687   2.05801   2.06140   2.06421
 Alpha virt. eigenvalues --    2.06643   2.06849   2.07525   2.07679   2.08272
 Alpha virt. eigenvalues --    2.08883   2.08968   2.09193   2.09637   2.09957
 Alpha virt. eigenvalues --    2.10614   2.11101   2.11523   2.12477   2.12827
 Alpha virt. eigenvalues --    2.13257   2.13925   2.14295   2.14609   2.14741
 Alpha virt. eigenvalues --    2.15800   2.16164   2.16418   2.16909   2.17087
 Alpha virt. eigenvalues --    2.17655   2.18162   2.18537   2.18987   2.19430
 Alpha virt. eigenvalues --    2.19764   2.19946   2.20808   2.21026   2.21220
 Alpha virt. eigenvalues --    2.21858   2.22458   2.22747   2.23288   2.23730
 Alpha virt. eigenvalues --    2.24194   2.24775   2.25186   2.25442   2.25760
 Alpha virt. eigenvalues --    2.26298   2.26770   2.27067   2.27303   2.27626
 Alpha virt. eigenvalues --    2.28038   2.28571   2.28826   2.29010   2.29571
 Alpha virt. eigenvalues --    2.30416   2.30662   2.31255   2.31953   2.32216
 Alpha virt. eigenvalues --    2.32631   2.32736   2.33149   2.33320   2.33700
 Alpha virt. eigenvalues --    2.34210   2.34568   2.34998   2.35651   2.36019
 Alpha virt. eigenvalues --    2.36817   2.37120   2.37612   2.37868   2.38312
 Alpha virt. eigenvalues --    2.38444   2.39247   2.39306   2.39748   2.40523
 Alpha virt. eigenvalues --    2.40795   2.41296   2.41326   2.41587   2.42030
 Alpha virt. eigenvalues --    2.42228   2.43234   2.43345   2.43477   2.44190
 Alpha virt. eigenvalues --    2.44430   2.45353   2.45604   2.46104   2.46276
 Alpha virt. eigenvalues --    2.46875   2.47700   2.47714   2.48191   2.48216
 Alpha virt. eigenvalues --    2.48594   2.48903   2.50263   2.50753   2.51421
 Alpha virt. eigenvalues --    2.51813   2.52522   2.53153   2.53244   2.53860
 Alpha virt. eigenvalues --    2.54496   2.54601   2.55059   2.55309   2.55731
 Alpha virt. eigenvalues --    2.56047   2.56534   2.56577   2.57632   2.57670
 Alpha virt. eigenvalues --    2.57970   2.58594   2.59110   2.59688   2.60481
 Alpha virt. eigenvalues --    2.60750   2.61046   2.61721   2.62603   2.62876
 Alpha virt. eigenvalues --    2.63380   2.63537   2.64558   2.64845   2.65489
 Alpha virt. eigenvalues --    2.66152   2.66465   2.68176   2.68462   2.69692
 Alpha virt. eigenvalues --    2.69872   2.70290   2.71567   2.71903   2.72906
 Alpha virt. eigenvalues --    2.74195   2.75367   2.75630   2.76332   2.76481
 Alpha virt. eigenvalues --    2.77599   2.79141   2.79379   2.79962   2.80268
 Alpha virt. eigenvalues --    2.81015   2.81256   2.81875   2.82330   2.82693
 Alpha virt. eigenvalues --    2.83361   2.84717   2.86115   2.86181   2.86921
 Alpha virt. eigenvalues --    2.87127   2.88445   2.90392   2.90942   2.92041
 Alpha virt. eigenvalues --    2.92370   2.93033   2.93537   2.93679   2.94279
 Alpha virt. eigenvalues --    2.94567   2.94656   2.95008   2.95491   2.95735
 Alpha virt. eigenvalues --    2.96020   2.96562   2.97079   2.97445   2.97841
 Alpha virt. eigenvalues --    2.98313   2.98941   2.99123   2.99417   2.99820
 Alpha virt. eigenvalues --    2.99961   3.00191   3.01097   3.01666   3.02410
 Alpha virt. eigenvalues --    3.02651   3.03120   3.03385   3.03616   3.04049
 Alpha virt. eigenvalues --    3.04648   3.05068   3.05437   3.05674   3.05780
 Alpha virt. eigenvalues --    3.06119   3.06284   3.07347   3.07675   3.08023
 Alpha virt. eigenvalues --    3.08692   3.09250   3.09676   3.10108   3.10543
 Alpha virt. eigenvalues --    3.10833   3.11154   3.11297   3.11441   3.11475
 Alpha virt. eigenvalues --    3.11655   3.11935   3.12698   3.13160   3.13352
 Alpha virt. eigenvalues --    3.13639   3.14249   3.14403   3.15149   3.15460
 Alpha virt. eigenvalues --    3.15751   3.16054   3.16594   3.17221   3.17489
 Alpha virt. eigenvalues --    3.18139   3.18965   3.19204   3.19788   3.20499
 Alpha virt. eigenvalues --    3.21179   3.21360   3.22433   3.23394   3.24352
 Alpha virt. eigenvalues --    3.25011   3.26180   3.27010   3.29611   3.31013
 Alpha virt. eigenvalues --    3.32333   3.34022   3.35688   3.36904   3.38256
 Alpha virt. eigenvalues --    3.41174   3.41477   3.43458   3.44125   3.44259
 Alpha virt. eigenvalues --    3.45477   3.46624   3.47253   3.48868   3.49622
 Alpha virt. eigenvalues --    3.51064   3.51489   3.52431   3.52811   3.53899
 Alpha virt. eigenvalues --    3.55733   3.56483   3.56807   3.57900   3.59465
 Alpha virt. eigenvalues --    3.59826   3.60681   3.60810   3.62273   3.63695
 Alpha virt. eigenvalues --    3.64625   3.65488   3.67398   3.67631   3.68571
 Alpha virt. eigenvalues --    3.69206   3.70130   3.71022   3.71222   3.72265
 Alpha virt. eigenvalues --    3.73594   3.74815   3.75501   3.76297   3.78240
 Alpha virt. eigenvalues --    3.81212   3.81790   3.82724   3.83088   3.83297
 Alpha virt. eigenvalues --    3.85666   3.85826   3.86474   3.86986   3.87630
 Alpha virt. eigenvalues --    3.87810   3.88163   3.88273   3.89627   3.90194
 Alpha virt. eigenvalues --    3.90697   3.92599   3.94233   4.01863   4.06629
 Alpha virt. eigenvalues --    4.18858   4.20691   4.21416   4.21679   4.24552
 Alpha virt. eigenvalues --    4.26813   4.31179   4.32639   4.34805   4.36091
 Alpha virt. eigenvalues --    4.36754   4.39187   4.39620   4.43141   4.46281
 Alpha virt. eigenvalues --    4.47998   4.48296   4.50423   4.57447   4.60573
 Alpha virt. eigenvalues --    4.61589   4.63389   4.66680   4.70450   4.77223
 Alpha virt. eigenvalues --    4.78723   4.81092   4.85020   4.86983   4.94581
 Alpha virt. eigenvalues --    4.96759   4.99534   5.01813   5.04231   9.45865
 Alpha virt. eigenvalues --    9.54255   9.59141   9.61322   9.64031   9.66047
 Alpha virt. eigenvalues --    9.67682   9.70896   9.75314   9.76684  22.99939
 Alpha virt. eigenvalues --   23.20593  23.21520  23.23108  23.39541  23.43227
 Alpha virt. eigenvalues --   23.46157  23.49161  23.52516  23.58656  23.62290
 Alpha virt. eigenvalues --   23.63606  23.66258  23.67576  23.68341  23.71239
 Alpha virt. eigenvalues --   23.72166  23.73010  23.73936  23.75502  23.76537
 Alpha virt. eigenvalues --   23.77676  23.79438  23.80394  23.81937  23.82192
 Alpha virt. eigenvalues --   23.83030  23.84426  23.86037  23.87373  23.89434
 Alpha virt. eigenvalues --   23.90129  23.91102  23.91648  23.91913  23.93028
 Alpha virt. eigenvalues --   23.94015  23.95540  23.96289  23.96578  23.97276
 Alpha virt. eigenvalues --   23.97759  23.98414  23.98946  23.99562  23.99808
 Alpha virt. eigenvalues --   24.00489  24.01472  24.02328  24.03024  24.06343
 Alpha virt. eigenvalues --   24.06431  24.07640  24.07857  24.08548  24.08905
 Alpha virt. eigenvalues --   24.09204  24.10203  24.10905  24.11883  24.13544
 Alpha virt. eigenvalues --   24.13788  24.14275  24.15546  24.17236  24.19036
 Alpha virt. eigenvalues --   25.48814  25.54029  25.59101  25.62657  25.65652
 Alpha virt. eigenvalues --   25.66493  25.73061  25.73790  25.76871  25.77714
 Alpha virt. eigenvalues --   25.81360  25.85370  25.86710  25.87167  25.89327
 Alpha virt. eigenvalues --   25.91873  25.95227  25.97658  25.99741  26.03051
 Alpha virt. eigenvalues --   26.10820  26.17213  26.25738  26.28217  26.35112
 Alpha virt. eigenvalues --   26.41981  26.45423  26.55415  26.57204  26.86306
 Alpha virt. eigenvalues --  215.39616 215.49360 215.54935 215.57440 215.60437
 Alpha virt. eigenvalues --  215.62901 215.64842 215.68540 215.73558 215.75062
          Condensed to atoms (all electrons):
 Mulliken charges:
               1
     1  C   -0.148041
     2  C   -0.149202
     3  C   -0.503830
     4  C   -0.462533
     5  C    0.350215
     6  C    0.132734
     7  C   -0.497234
     8  C    0.170662
     9  C    0.148380
    10  C   -0.536217
    11  C    0.169702
    12  C    0.205239
    13  C    0.247519
    14  C    0.258022
    15  C    0.211244
    16  C   -0.681535
    17  C    0.057306
    18  C    0.031858
    19  C    0.026204
    20  C    0.089182
    21  C    0.027573
    22  C    0.043036
    23  C    0.016421
    24  C    0.001516
    25  C    0.189218
    26  C    0.030042
    27  C    0.266972
    28  C   -0.664158
    29  C    0.174536
    30  C    0.148278
    31  C   -0.679412
    32  C    0.163137
    33  C    0.021597
    34  C    0.184276
    35  C    0.000650
    36  C   -0.007824
    37  C   -0.000406
    38  C   -0.000232
    39  C   -0.001069
    40  C   -0.005994
    41  C    0.004084
    42  C   -0.000862
    43  C    0.005219
    44  C    0.042642
    45  C    0.160865
    46  C   -0.000014
    47  C   -0.689391
    48  C    0.184970
    49  C    0.174900
    50  C    0.177251
    51  C    0.040352
    52  C    0.003942
    53  C    0.002129
    54  C    0.032130
    55  C    0.003163
    56  C    0.001622
    57  C    0.002208
    58  C    0.004312
    59  C    0.004594
    60  C    0.005238
    61  C    0.003540
    62  C    0.037475
    63  C    0.034628
    64  C    0.002025
    65  C    0.001627
    66  C    0.002148
    67  Cl   0.112133
    68  Cl   0.114993
    69  Cl   0.079134
    70  Cl   0.067422
    71  Cl   0.051210
    72  Cl   0.048805
    73  Cl   0.055662
    74  Cl   0.093938
    75  Cl   0.062346
    76  Cl   0.045725
 Sum of Mulliken charges =  -0.00000
 Mulliken charges with hydrogens summed into heavy atoms:
               1
     1  C   -0.148041
     2  C   -0.149202
     3  C   -0.503830
     4  C   -0.462533
     5  C    0.350215
     6  C    0.132734
     7  C   -0.497234
     8  C    0.170662
     9  C    0.148380
    10  C   -0.536217
    11  C    0.169702
    12  C    0.205239
    13  C    0.247519
    14  C    0.258022
    15  C    0.211244
    16  C   -0.681535
    17  C    0.057306
    18  C    0.031858
    19  C    0.026204
    20  C    0.089182
    21  C    0.027573
    22  C    0.043036
    23  C    0.016421
    24  C    0.001516
    25  C    0.189218
    26  C    0.030042
    27  C    0.266972
    28  C   -0.664158
    29  C    0.174536
    30  C    0.148278
    31  C   -0.679412
    32  C    0.163137
    33  C    0.021597
    34  C    0.184276
    35  C    0.000650
    36  C   -0.007824
    37  C   -0.000406
    38  C   -0.000232
    39  C   -0.001069
    40  C   -0.005994
    41  C    0.004084
    42  C   -0.000862
    43  C    0.005219
    44  C    0.042642
    45  C    0.160865
    46  C   -0.000014
    47  C   -0.689391
    48  C    0.184970
    49  C    0.174900
    50  C    0.177251
    51  C    0.040352
    52  C    0.003942
    53  C    0.002129
    54  C    0.032130
    55  C    0.003163
    56  C    0.001622
    57  C    0.002208
    58  C    0.004312
    59  C    0.004594
    60  C    0.005238
    61  C    0.003540
    62  C    0.037475
    63  C    0.034628
    64  C    0.002025
    65  C    0.001627
    66  C    0.002148
    67  Cl   0.112133
    68  Cl   0.114993
    69  Cl   0.079134
    70  Cl   0.067422
    71  Cl   0.051210
    72  Cl   0.048805
    73  Cl   0.055662
    74  Cl   0.093938
    75  Cl   0.062346
    76  Cl   0.045725
 Electronic spatial extent (au):  <R**2>=          39606.3960
 Charge=             -0.0000 electrons
 Dipole moment (field-independent basis, Debye):
    X=              5.0680    Y=             -3.8329    Z=             -1.6466  Tot=              6.5641
 Quadrupole moment (field-independent basis, Debye-Ang):
   XX=           -508.7796   YY=           -511.3958   ZZ=           -504.2543
   XY=             -7.2169   XZ=             -3.6138   YZ=             -2.5799
 Traceless Quadrupole moment (field-independent basis, Debye-Ang):
   XX=             -0.6363   YY=             -3.2526   ZZ=              3.8889
   XY=             -7.2169   XZ=             -3.6138   YZ=             -2.5799
 Octapole moment (field-independent basis, Debye-Ang**2):
  XXX=           -103.3974  YYY=             45.5883  ZZZ=             10.2128  XYY=            -55.4102
  XXY=             28.0590  XXZ=             22.6527  XZZ=            -41.1148  YZZ=              5.8223
  YYZ=             19.4543  XYZ=            -12.8415
 Hexadecapole moment (field-independent basis, Debye-Ang**3):
 XXXX=         -25176.0702 YYYY=         -16598.0995 ZZZZ=         -15178.6941 XXXY=             72.0014
 XXXZ=            -45.7585 YYYX=             -5.7416 YYYZ=             62.8797 ZZZX=            -12.8984
 ZZZY=             16.1386 XXYY=          -7024.0228 XXZZ=          -6751.1772 YYZZ=          -5299.5270
 XXYZ=             -4.2281 YYXZ=             -1.0861 ZZXY=             10.2684
 N-N= 1.700496371530D+04 E-N=-5.077383588460D+04  KE= 7.096687521497D+03
 No NMR shielding tensors so no spin-rotation constants.
 Leave Link  601 at Sat Jul 16 10:39:38 2022, MaxMem=  1342177280 cpu:              67.4 elap:               1.7
 (Enter /home/mkliu/g16/l9999.exe)
 1\1\GINC-NODE01\FOpt\RB3LYP\6-311G(d,p)\C66Cl10\MKLIU\16-Jul-2022\0\\#
 P opt b3lyp/6-311G(d, p) empiricaldispersion=GD3\\force\\0,1\C,-1.4145
 365511,1.9260672912,-4.0557520799\C,0.2039897952,2.2828010124,-4.11655
 19614\C,0.9422508342,0.8686373285,-4.2641339525\C,-1.4948933456,0.3360
 925386,-4.1752199606\C,-0.1048204491,-0.1749824016,-4.167203304\C,-2.1
 910643342,-0.135236261,-2.9392324152\C,-2.1720570739,2.2400914899,-2.6
 716216828\C,-2.6210790289,0.8830877602,-2.1638600308\C,-1.3800995222,2
 .8943594383,-1.5553255456\C,0.8804623536,2.92677872,-2.7883910435\C,-0
 .0130303784,3.2154599615,-1.5970996116\C,1.8144132528,0.7206959187,-3.
 04599235\C,1.8565543756,1.866460834,-2.28928177\C,2.1911117151,-0.5177
 581866,-2.509040857\C,0.1646873469,-1.3679378294,-3.6241254895\C,1.562
 0544554,-1.7614234672,-3.1443741487\C,-1.9882055096,-1.4551103832,-2.3
 976862967\C,-0.8291215483,-2.1088375102,-2.8586459745\C,-2.5056665732,
 -1.7576050535,-1.0792960858\C,-3.0802835574,0.6662994672,-0.8207908888
 \C,-3.1065914601,-0.6840354776,-0.2879073872\C,-2.0279426006,2.8411823
 641,-0.3096495654\C,-2.965716041,1.7609868354,0.0427368696\C,-1.389677
 5169,3.2439012349,0.8801051742\C,0.6677373055,3.4744223541,-0.39231487
 57\C,-0.0193315217,3.5234900328,0.8315673589\C,2.4134479523,1.84696383
 94,-1.0021113248\C,2.120997137,3.0445488309,-0.1183349527\C,2.80224816
 74,-0.5565928397,-1.2477677137\C,2.9449325281,0.6448066421,-0.49849141
 65\C,3.1088888141,-1.9230194579,-0.615417645\C,1.2605569498,-2.7925021
 507,-2.0898145016\C,-0.153338622,-3.0444201969,-2.0338366265\C,2.01432
 11884,-2.9227007523,-0.9686385415\C,-1.9581414529,-2.8716569488,-0.392
 5162849\C,-0.7455743713,-3.4860330358,-0.854265251\C,-1.950312177,-2.9
 477203392,1.0505878196\C,-3.1720085593,-0.8299836049,1.1217774915\C,-2
 .5588180314,-1.9565711284,1.7947955991\C,-2.9181968182,1.5830773245,1.
 4554884114\C,-1.9415172586,2.503402564,2.0006673461\C,-3.0480763319,0.
 3046763997,1.9935564346\C,-1.1309052116,2.1132406442,3.0512406208\C,0.
 8340346725,3.0796726723,1.9175134119\C,2.0658290513,2.6567171959,1.340
 2229331\C,0.2945680784,2.4150515889,3.0155942551\C,3.480722366,0.60261
 60564,0.9372171452\C,2.7196950065,1.5679992994,1.8334571697\C,3.003523
 5137,-1.8770333007,0.8966160221\C,3.1881174587,-0.7292245948,1.6053552
 783\C,1.4362743156,-3.4669515347,0.2275025511\C,0.0795908394,-3.796330
 0189,0.2848413304\C,-0.6790781367,-3.503331005,1.4779004752\C,2.077640
 4672,-2.8670723597,1.3695959191\C,-0.0494334318,-2.9932180533,2.608772
 2892\C,1.3665660691,-2.6760936267,2.5565711196\C,-1.9544462183,-1.4879
 162096,3.0255227517\C,-2.2544248706,-0.0810636804,3.1472373363\C,-1.29
 33365654,0.7987664169,3.648347454\C,-0.7023016266,-1.9760951853,3.4076
 510596\C,0.9982913145,1.2968036358,3.5731669824\C,2.1908870964,0.88038
 69656,2.9715347518\C,2.4838309877,-0.5254659693,2.8383821775\C,1.58546
 80174,-1.4793255111,3.3198244803\C,0.0232654905,0.3030372392,3.9945136
 661\C,0.3124538561,-1.0529064808,3.8756683233\Cl,-2.2913098038,2.69508
 01274,-5.4088993062\Cl,0.5444126778,3.3114111722,-5.5339392746\Cl,1.96
 2447657,0.6575288709,-5.7655248731\Cl,2.6132458748,-2.496406073,-4.455
 8719997\Cl,4.7812722772,-2.4750332963,-1.1610557175\Cl,5.2901111991,0.
 9683541054,0.9038286282\Cl,3.4143633826,4.3526642875,-0.2792141053\Cl,
 1.766254745,4.495198202,-3.144425626\Cl,-3.6929890088,3.2969414219,-2.
 863333795\Cl,-2.3911239089,-0.3492137236,-5.6381778637\\Version=ES64L-
 G16RevA.03\State=1-A\HF=-7117.6773037\RMSD=6.922e-09\RMSF=1.294e-05\Di
 pole=-1.1840438,-0.8837919,2.1180846\Quadrupole=-5.3509668,3.6145277,1
 .7364392,2.2438091,-4.4137772,0.1745399\PG=C01 [X(C66Cl10)]\\@


 Change starts when someone sees the next step.
                            -- William Drayton
 Job cpu time:       4 days  5 hours 54 minutes 21.3 seconds.
 Elapsed time:       0 days  2 hours  7 minutes 40.5 seconds.
 File lengths (MBytes):  RWF=   1283 Int=      0 D2E=      0 Chk=    156 Scr=      1
 Normal termination of Gaussian 16 at Sat Jul 16 10:39:39 2022.
