 Entering Gaussian System, Link 0=g16
 Input=elklgqv4nvnk0_addon_10.gjf
 Output=elklgqv4nvnk0_addon_10.log
 Initial command:
 /home/mkliu/g16/l1.exe "/data/scratch/Gau-6739.inp" -scrdir="/data/scratch/"
 Entering Link 1 = /home/mkliu/g16/l1.exe PID=      6740.
  
 Copyright (c) 1988,1990,1992,1993,1995,1998,2003,2009,2016,
            Gaussian, Inc.  All Rights Reserved.
  
 This is part of the Gaussian(R) 16 program.  It is based on
 the Gaussian(R) 09 system (copyright 2009, Gaussian, Inc.),
 the Gaussian(R) 03 system (copyright 2003, Gaussian, Inc.),
 the Gaussian(R) 98 system (copyright 1998, Gaussian, Inc.),
 the Gaussian(R) 94 system (copyright 1995, Gaussian, Inc.),
 the Gaussian 92(TM) system (copyright 1992, Gaussian, Inc.),
 the Gaussian 90(TM) system (copyright 1990, Gaussian, Inc.),
 the Gaussian 88(TM) system (copyright 1988, Gaussian, Inc.),
 the Gaussian 86(TM) system (copyright 1986, Carnegie Mellon
 University), and the Gaussian 82(TM) system (copyright 1983,
 Carnegie Mellon University). Gaussian is a federally registered
 trademark of Gaussian, Inc.
  
 This software contains proprietary and confidential information,
 including trade secrets, belonging to Gaussian, Inc.
  
 This software is provided under written license and may be
 used, copied, transmitted, or stored only in accord with that
 written license.
  
 The following legend is applicable only to US Government
 contracts under FAR:
  
                    RESTRICTED RIGHTS LEGEND
  
 Use, reproduction and disclosure by the US Government is
 subject to restrictions as set forth in subparagraphs (a)
 and (c) of the Commercial Computer Software - Restricted
 Rights clause in FAR 52.227-19.
  
 Gaussian, Inc.
 340 Quinnipiac St., Bldg. 40, Wallingford CT 06492
  
  
 ---------------------------------------------------------------
 Warning -- This program may not be used in any manner that
 competes with the business of Gaussian, Inc. or will provide
 assistance to any competitor of Gaussian, Inc.  The licensee
 of this program is prohibited from giving any competitor of
 Gaussian, Inc. access to this program.  By using this program,
 the user acknowledges that Gaussian, Inc. is engaged in the
 business of creating and licensing software in the field of
 computational chemistry and represents and warrants to the
 licensee that it is not a competitor of Gaussian, Inc. and that
 it will not use this program in any manner prohibited above.
 ---------------------------------------------------------------
  

 Cite this work as:
 Gaussian 16, Revision A.03,
 M. J. Frisch, G. W. Trucks, H. B. Schlegel, G. E. Scuseria, 
 M. A. Robb, J. R. Cheeseman, G. Scalmani, V. Barone, 
 G. A. Petersson, H. Nakatsuji, X. Li, M. Caricato, A. V. Marenich, 
 J. Bloino, B. G. Janesko, R. Gomperts, B. Mennucci, H. P. Hratchian, 
 J. V. Ortiz, A. F. Izmaylov, J. L. Sonnenberg, D. Williams-Young, 
 F. Ding, F. Lipparini, F. Egidi, J. Goings, B. Peng, A. Petrone, 
 T. Henderson, D. Ranasinghe, V. G. Zakrzewski, J. Gao, N. Rega, 
 G. Zheng, W. Liang, M. Hada, M. Ehara, K. Toyota, R. Fukuda, 
 J. Hasegawa, M. Ishida, T. Nakajima, Y. Honda, O. Kitao, H. Nakai, 
 T. Vreven, K. Throssell, J. A. Montgomery, Jr., J. E. Peralta, 
 F. Ogliaro, M. J. Bearpark, J. J. Heyd, E. N. Brothers, K. N. Kudin, 
 V. N. Staroverov, T. A. Keith, R. Kobayashi, J. Normand, 
 K. Raghavachari, A. P. Rendell, J. C. Burant, S. S. Iyengar, 
 J. Tomasi, M. Cossi, J. M. Millam, M. Klene, C. Adamo, R. Cammi, 
 J. W. Ochterski, R. L. Martin, K. Morokuma, O. Farkas, 
 J. B. Foresman, and D. J. Fox, Gaussian, Inc., Wallingford CT, 2016.
 
 ******************************************
 Gaussian 16:  ES64L-G16RevA.03 25-Dec-2016
                15-Jul-2022 
 ******************************************
 %mem=10GB
 %chk=elklgqv4nvnk0_addon_10.chk
 %nprocshared=48
 Will use up to   48 processors via shared memory.
 -------------------------------------------------
 #P opt b3lyp/6-311G(d, p) empiricaldispersion=GD3
 -------------------------------------------------
 1/18=20,19=15,26=3,38=1/1,3;
 2/9=110,12=2,17=6,18=5,40=1/2;
 3/5=4,6=6,7=101,11=2,25=1,30=1,71=1,74=-5,124=31/1,2,3;
 4//1;
 5/5=2,38=5/2;
 6/7=2,8=2,9=2,10=2,28=1/1;
 7//1,2,3,16;
 1/18=20,19=15,26=3/3(2);
 2/9=110/2;
 99//99;
 2/9=110/2;
 3/5=4,6=6,7=101,11=2,25=1,30=1,71=1,74=-5,124=31/1,2,3;
 4/5=5,16=3,69=1/1;
 5/5=2,38=5/2;
 7//1,2,3,16;
 1/18=20,19=15,26=3/3(-5);
 2/9=110/2;
 6/7=2,8=2,9=2,10=2,19=2,28=1/1;
 99/9=1/99;
 Leave Link    1 at Fri Jul 15 19:45:29 2022, MaxMem=  1342177280 cpu:               2.2 elap:               0.1
 (Enter /home/mkliu/g16/l101.exe)
 -----
 force
 -----
 Symbolic Z-matrix:
 Charge =  0 Multiplicity = 1
 C                    -1.32745   1.88612  -3.91665 
 C                     0.20544   2.21714  -3.96308 
 C                     0.95207   0.884    -4.22821 
 C                    -1.47097   0.36025  -4.15394 
 C                    -0.08416  -0.17203  -4.07423 
 C                    -2.18437  -0.17747  -2.94292 
 C                    -1.91601   2.07258  -2.55167 
 C                    -2.5805    0.89674  -2.12276 
 C                    -1.43024   2.92675  -1.58152 
 C                     0.74283   2.64602  -2.63221 
 C                     0.0054    3.23636  -1.62499 
 C                     1.89371   0.70321  -3.06819 
 C                     1.85751   1.85502  -2.25837 
 C                     2.22212  -0.50658  -2.52468 
 C                     0.19113  -1.37825  -3.59843 
 C                     1.57471  -1.74071  -3.12754 
 C                    -1.9521   -1.4081   -2.39659 
 C                    -0.88972  -2.27274  -3.0517 
 C                    -2.46591  -1.69184  -1.07222 
 C                    -3.02649   0.67151  -0.82392 
 C                    -3.03008  -0.67903  -0.31881 
 C                    -2.05249   2.83379  -0.31057 
 C                    -2.91969   1.78494   0.03421 
 C                    -1.37294   3.23895   0.89121 
 C                     0.68339   3.42392  -0.39397 
 C                    -0.03175   3.52805   0.84999 
 C                     2.43199   1.85003  -0.99054 
 C                     1.92419   2.82978  -0.11351 
 C                     2.88407  -0.53592  -1.23604 
 C                     3.02376   0.62846  -0.50384 
 C                     3.16463  -1.88448  -0.60672 
 C                     1.25096  -2.70969  -2.04576 
 C                    -0.13253  -3.00842  -2.00315 
 C                     2.02291  -2.81616  -0.93749 
 C                    -2.12855  -3.02762  -0.44434 
 C                    -0.72584  -3.4096   -0.85322 
 C                    -1.96297  -2.91032   1.04732 
 C                    -3.3997   -0.8659    1.14637 
 C                    -2.55749  -1.93669   1.7756 
 C                    -2.87447   1.58166   1.46947 
 C                    -1.91971   2.50256   2.00536 
 C                    -3.03032   0.32546   1.98725 
 C                    -1.1       2.12154   3.04858 
 C                     0.83381   3.09701   1.92123 
 C                     2.05039   2.64484   1.31919 
 C                     0.30661   2.42546   3.00589 
 C                     3.52048   0.62976   0.93523 
 C                     2.74079   1.572     1.811 
 C                     3.05298  -1.82677   0.89347 
 C                     3.23409  -0.68549   1.59838 
 C                     1.44656  -3.36432   0.23379 
 C                     0.09284  -3.65631   0.27532 
 C                    -0.67327  -3.39504   1.44385 
 C                     2.10407  -2.79574   1.35886 
 C                    -0.0273   -2.89616   2.55809 
 C                     1.3758   -2.59354   2.51518 
 C                    -1.91408  -1.44051   2.95368 
 C                    -2.21624  -0.05113   3.0962 
 C                    -1.2658    0.82147   3.61325 
 C                    -0.67941  -1.90729   3.34898 
 C                     1.02713   1.31684   3.54343 
 C                     2.22071   0.90715   2.96046 
 C                     2.51233  -0.48453   2.81772 
 C                     1.60601  -1.41386   3.27922 
 C                     0.04943   0.3393    3.94655 
 C                     0.33696  -1.00556   3.81677 
 Cl                   -2.26507   2.88195  -5.06621 
 Cl                    0.58121   3.49866  -5.14987 
 Cl                    1.76715   0.74517  -5.80469 
 Cl                    2.64495  -2.44609  -4.39358 
 Cl                   -2.24689  -0.12318  -5.68156 
 Cl                   -1.64725  -3.37221  -4.2613 
 Cl                    4.7871   -2.45942  -1.16113 
 Cl                   -3.40208  -4.22535  -0.90664 
 Cl                   -5.17315  -1.25641   1.16479 
 Cl                    5.29532   1.01108   0.85234 
 
 ITRead=  0  0  0  0  0  0  0  0  0  0  0  0  0  0  0  0  0  0  0  0
 ITRead=  0  0  0  0  0  0  0  0  0  0  0  0  0  0  0  0  0  0  0  0
 ITRead=  0  0  0  0  0  0  0  0  0  0  0  0  0  0  0  0  0  0  0  0
 ITRead=  0  0  0  0  0  0  0  0  0  0  0  0  0  0  0  0
 MicOpt= -1 -1 -1 -1 -1 -1 -1 -1 -1 -1 -1 -1 -1 -1 -1 -1 -1 -1 -1 -1
 MicOpt= -1 -1 -1 -1 -1 -1 -1 -1 -1 -1 -1 -1 -1 -1 -1 -1 -1 -1 -1 -1
 MicOpt= -1 -1 -1 -1 -1 -1 -1 -1 -1 -1 -1 -1 -1 -1 -1 -1 -1 -1 -1 -1
 MicOpt= -1 -1 -1 -1 -1 -1 -1 -1 -1 -1 -1 -1 -1 -1 -1 -1
 NAtoms=     76 NQM=       76 NQMF=       0 NMMI=      0 NMMIF=      0
                NMic=       0 NMicF=      0.
                    Isotopes and Nuclear Properties:
 (Nuclear quadrupole moments (NQMom) in fm**2, nuclear magnetic moments (NMagM)
  in nuclear magnetons)

  Atom         1           2           3           4           5           6           7           8           9          10
 IAtWgt=          12          12          12          12          12          12          12          12          12          12
 AtmWgt=  12.0000000  12.0000000  12.0000000  12.0000000  12.0000000  12.0000000  12.0000000  12.0000000  12.0000000  12.0000000
 NucSpn=           0           0           0           0           0           0           0           0           0           0
 AtZEff=  -0.0000000  -0.0000000  -0.0000000  -0.0000000  -0.0000000  -0.0000000  -0.0000000  -0.0000000  -0.0000000  -0.0000000
 NQMom=    0.0000000   0.0000000   0.0000000   0.0000000   0.0000000   0.0000000   0.0000000   0.0000000   0.0000000   0.0000000
 NMagM=    0.0000000   0.0000000   0.0000000   0.0000000   0.0000000   0.0000000   0.0000000   0.0000000   0.0000000   0.0000000
 AtZNuc=   6.0000000   6.0000000   6.0000000   6.0000000   6.0000000   6.0000000   6.0000000   6.0000000   6.0000000   6.0000000

  Atom        11          12          13          14          15          16          17          18          19          20
 IAtWgt=          12          12          12          12          12          12          12          12          12          12
 AtmWgt=  12.0000000  12.0000000  12.0000000  12.0000000  12.0000000  12.0000000  12.0000000  12.0000000  12.0000000  12.0000000
 NucSpn=           0           0           0           0           0           0           0           0           0           0
 AtZEff=  -0.0000000  -0.0000000  -0.0000000  -0.0000000  -0.0000000  -0.0000000  -0.0000000  -0.0000000  -0.0000000  -0.0000000
 NQMom=    0.0000000   0.0000000   0.0000000   0.0000000   0.0000000   0.0000000   0.0000000   0.0000000   0.0000000   0.0000000
 NMagM=    0.0000000   0.0000000   0.0000000   0.0000000   0.0000000   0.0000000   0.0000000   0.0000000   0.0000000   0.0000000
 AtZNuc=   6.0000000   6.0000000   6.0000000   6.0000000   6.0000000   6.0000000   6.0000000   6.0000000   6.0000000   6.0000000

  Atom        21          22          23          24          25          26          27          28          29          30
 IAtWgt=          12          12          12          12          12          12          12          12          12          12
 AtmWgt=  12.0000000  12.0000000  12.0000000  12.0000000  12.0000000  12.0000000  12.0000000  12.0000000  12.0000000  12.0000000
 NucSpn=           0           0           0           0           0           0           0           0           0           0
 AtZEff=  -0.0000000  -0.0000000  -0.0000000  -0.0000000  -0.0000000  -0.0000000  -0.0000000  -0.0000000  -0.0000000  -0.0000000
 NQMom=    0.0000000   0.0000000   0.0000000   0.0000000   0.0000000   0.0000000   0.0000000   0.0000000   0.0000000   0.0000000
 NMagM=    0.0000000   0.0000000   0.0000000   0.0000000   0.0000000   0.0000000   0.0000000   0.0000000   0.0000000   0.0000000
 AtZNuc=   6.0000000   6.0000000   6.0000000   6.0000000   6.0000000   6.0000000   6.0000000   6.0000000   6.0000000   6.0000000

  Atom        31          32          33          34          35          36          37          38          39          40
 IAtWgt=          12          12          12          12          12          12          12          12          12          12
 AtmWgt=  12.0000000  12.0000000  12.0000000  12.0000000  12.0000000  12.0000000  12.0000000  12.0000000  12.0000000  12.0000000
 NucSpn=           0           0           0           0           0           0           0           0           0           0
 AtZEff=  -0.0000000  -0.0000000  -0.0000000  -0.0000000  -0.0000000  -0.0000000  -0.0000000  -0.0000000  -0.0000000  -0.0000000
 NQMom=    0.0000000   0.0000000   0.0000000   0.0000000   0.0000000   0.0000000   0.0000000   0.0000000   0.0000000   0.0000000
 NMagM=    0.0000000   0.0000000   0.0000000   0.0000000   0.0000000   0.0000000   0.0000000   0.0000000   0.0000000   0.0000000
 AtZNuc=   6.0000000   6.0000000   6.0000000   6.0000000   6.0000000   6.0000000   6.0000000   6.0000000   6.0000000   6.0000000

  Atom        41          42          43          44          45          46          47          48          49          50
 IAtWgt=          12          12          12          12          12          12          12          12          12          12
 AtmWgt=  12.0000000  12.0000000  12.0000000  12.0000000  12.0000000  12.0000000  12.0000000  12.0000000  12.0000000  12.0000000
 NucSpn=           0           0           0           0           0           0           0           0           0           0
 AtZEff=  -0.0000000  -0.0000000  -0.0000000  -0.0000000  -0.0000000  -0.0000000  -0.0000000  -0.0000000  -0.0000000  -0.0000000
 NQMom=    0.0000000   0.0000000   0.0000000   0.0000000   0.0000000   0.0000000   0.0000000   0.0000000   0.0000000   0.0000000
 NMagM=    0.0000000   0.0000000   0.0000000   0.0000000   0.0000000   0.0000000   0.0000000   0.0000000   0.0000000   0.0000000
 AtZNuc=   6.0000000   6.0000000   6.0000000   6.0000000   6.0000000   6.0000000   6.0000000   6.0000000   6.0000000   6.0000000

  Atom        51          52          53          54          55          56          57          58          59          60
 IAtWgt=          12          12          12          12          12          12          12          12          12          12
 AtmWgt=  12.0000000  12.0000000  12.0000000  12.0000000  12.0000000  12.0000000  12.0000000  12.0000000  12.0000000  12.0000000
 NucSpn=           0           0           0           0           0           0           0           0           0           0
 AtZEff=  -0.0000000  -0.0000000  -0.0000000  -0.0000000  -0.0000000  -0.0000000  -0.0000000  -0.0000000  -0.0000000  -0.0000000
 NQMom=    0.0000000   0.0000000   0.0000000   0.0000000   0.0000000   0.0000000   0.0000000   0.0000000   0.0000000   0.0000000
 NMagM=    0.0000000   0.0000000   0.0000000   0.0000000   0.0000000   0.0000000   0.0000000   0.0000000   0.0000000   0.0000000
 AtZNuc=   6.0000000   6.0000000   6.0000000   6.0000000   6.0000000   6.0000000   6.0000000   6.0000000   6.0000000   6.0000000

  Atom        61          62          63          64          65          66          67          68          69          70
 IAtWgt=          12          12          12          12          12          12          35          35          35          35
 AtmWgt=  12.0000000  12.0000000  12.0000000  12.0000000  12.0000000  12.0000000  34.9688527  34.9688527  34.9688527  34.9688527
 NucSpn=           0           0           0           0           0           0           3           3           3           3
 AtZEff=  -0.0000000  -0.0000000  -0.0000000  -0.0000000  -0.0000000  -0.0000000  -0.0000000  -0.0000000  -0.0000000  -0.0000000
 NQMom=    0.0000000   0.0000000   0.0000000   0.0000000   0.0000000   0.0000000  -8.1650000  -8.1650000  -8.1650000  -8.1650000
 NMagM=    0.0000000   0.0000000   0.0000000   0.0000000   0.0000000   0.0000000   0.8218740   0.8218740   0.8218740   0.8218740
 AtZNuc=   6.0000000   6.0000000   6.0000000   6.0000000   6.0000000   6.0000000  17.0000000  17.0000000  17.0000000  17.0000000

  Atom        71          72          73          74          75          76
 IAtWgt=          35          35          35          35          35          35
 AtmWgt=  34.9688527  34.9688527  34.9688527  34.9688527  34.9688527  34.9688527
 NucSpn=           3           3           3           3           3           3
 AtZEff=  -0.0000000  -0.0000000  -0.0000000  -0.0000000  -0.0000000  -0.0000000
 NQMom=   -8.1650000  -8.1650000  -8.1650000  -8.1650000  -8.1650000  -8.1650000
 NMagM=    0.8218740   0.8218740   0.8218740   0.8218740   0.8218740   0.8218740
 AtZNuc=  17.0000000  17.0000000  17.0000000  17.0000000  17.0000000  17.0000000
 Leave Link  101 at Fri Jul 15 19:45:30 2022, MaxMem=  1342177280 cpu:              12.9 elap:               0.3
 (Enter /home/mkliu/g16/l103.exe)

 GradGradGradGradGradGradGradGradGradGradGradGradGradGradGradGradGradGrad
 Berny optimization.
 Initialization pass.
                           ----------------------------
                           !    Initial Parameters    !
                           ! (Angstroms and Degrees)  !
 --------------------------                            --------------------------
 ! Name  Definition              Value          Derivative Info.                !
 --------------------------------------------------------------------------------
 ! R1    R(1,2)                  1.5689         estimate D2E/DX2                !
 ! R2    R(1,4)                  1.5509         estimate D2E/DX2                !
 ! R3    R(1,7)                  1.4981         estimate D2E/DX2                !
 ! R4    R(1,67)                 1.7867         estimate D2E/DX2                !
 ! R5    R(2,3)                  1.5508         estimate D2E/DX2                !
 ! R6    R(2,10)                 1.498          estimate D2E/DX2                !
 ! R7    R(2,68)                 1.7866         estimate D2E/DX2                !
 ! R8    R(3,5)                  1.4875         estimate D2E/DX2                !
 ! R9    R(3,12)                 1.505          estimate D2E/DX2                !
 ! R10   R(3,69)                 1.7801         estimate D2E/DX2                !
 ! R11   R(4,5)                  1.4876         estimate D2E/DX2                !
 ! R12   R(4,6)                  1.5049         estimate D2E/DX2                !
 ! R13   R(4,71)                 1.7803         estimate D2E/DX2                !
 ! R14   R(5,15)                 1.3256         estimate D2E/DX2                !
 ! R15   R(6,8)                  1.4084         estimate D2E/DX2                !
 ! R16   R(6,17)                 1.3663         estimate D2E/DX2                !
 ! R17   R(7,8)                  1.4171         estimate D2E/DX2                !
 ! R18   R(7,9)                  1.3809         estimate D2E/DX2                !
 ! R19   R(8,20)                 1.3916         estimate D2E/DX2                !
 ! R20   R(9,11)                 1.4693         estimate D2E/DX2                !
 ! R21   R(9,22)                 1.4181         estimate D2E/DX2                !
 ! R22   R(10,11)                1.3809         estimate D2E/DX2                !
 ! R23   R(10,13)                1.417          estimate D2E/DX2                !
 ! R24   R(11,25)                1.4178         estimate D2E/DX2                !
 ! R25   R(12,13)                1.4085         estimate D2E/DX2                !
 ! R26   R(12,14)                1.3663         estimate D2E/DX2                !
 ! R27   R(13,27)                1.3919         estimate D2E/DX2                !
 ! R28   R(14,16)                1.5184         estimate D2E/DX2                !
 ! R29   R(14,29)                1.449          estimate D2E/DX2                !
 ! R30   R(15,16)                1.5058         estimate D2E/DX2                !
 ! R31   R(15,18)                1.5057         estimate D2E/DX2                !
 ! R32   R(16,32)                1.488          estimate D2E/DX2                !
 ! R33   R(16,70)                1.8016         estimate D2E/DX2                !
 ! R34   R(17,18)                1.5184         estimate D2E/DX2                !
 ! R35   R(17,19)                1.4486         estimate D2E/DX2                !
 ! R36   R(18,33)                1.488          estimate D2E/DX2                !
 ! R37   R(18,72)                1.8016         estimate D2E/DX2                !
 ! R38   R(19,21)                1.3826         estimate D2E/DX2                !
 ! R39   R(19,35)                1.5141         estimate D2E/DX2                !
 ! R40   R(20,21)                1.4419         estimate D2E/DX2                !
 ! R41   R(20,23)                1.4098         estimate D2E/DX2                !
 ! R42   R(21,38)                1.5226         estimate D2E/DX2                !
 ! R43   R(22,23)                1.4039         estimate D2E/DX2                !
 ! R44   R(22,24)                1.4388         estimate D2E/DX2                !
 ! R45   R(23,40)                1.4503         estimate D2E/DX2                !
 ! R46   R(24,26)                1.3726         estimate D2E/DX2                !
 ! R47   R(24,41)                1.4431         estimate D2E/DX2                !
 ! R48   R(25,26)                1.4386         estimate D2E/DX2                !
 ! R49   R(25,28)                1.404          estimate D2E/DX2                !
 ! R50   R(26,44)                1.4431         estimate D2E/DX2                !
 ! R51   R(27,28)                1.4096         estimate D2E/DX2                !
 ! R52   R(27,30)                1.442          estimate D2E/DX2                !
 ! R53   R(28,45)                1.4501         estimate D2E/DX2                !
 ! R54   R(29,30)                1.3825         estimate D2E/DX2                !
 ! R55   R(29,31)                1.5144         estimate D2E/DX2                !
 ! R56   R(30,47)                1.5224         estimate D2E/DX2                !
 ! R57   R(31,34)                1.5103         estimate D2E/DX2                !
 ! R58   R(31,49)                1.5054         estimate D2E/DX2                !
 ! R59   R(31,73)                1.8084         estimate D2E/DX2                !
 ! R60   R(32,33)                1.416          estimate D2E/DX2                !
 ! R61   R(32,34)                1.3548         estimate D2E/DX2                !
 ! R62   R(33,36)                1.3547         estimate D2E/DX2                !
 ! R63   R(34,51)                1.4158         estimate D2E/DX2                !
 ! R64   R(35,36)                1.5102         estimate D2E/DX2                !
 ! R65   R(35,37)                1.5054         estimate D2E/DX2                !
 ! R66   R(35,74)                1.8084         estimate D2E/DX2                !
 ! R67   R(36,52)                1.4159         estimate D2E/DX2                !
 ! R68   R(37,39)                1.3534         estimate D2E/DX2                !
 ! R69   R(37,53)                1.4337         estimate D2E/DX2                !
 ! R70   R(38,39)                1.5006         estimate D2E/DX2                !
 ! R71   R(38,42)                1.5043         estimate D2E/DX2                !
 ! R72   R(38,75)                1.816          estimate D2E/DX2                !
 ! R73   R(39,57)                1.4311         estimate D2E/DX2                !
 ! R74   R(40,41)                1.4307         estimate D2E/DX2                !
 ! R75   R(40,42)                1.3676         estimate D2E/DX2                !
 ! R76   R(41,43)                1.3804         estimate D2E/DX2                !
 ! R77   R(42,58)                1.4263         estimate D2E/DX2                !
 ! R78   R(43,46)                1.4397         estimate D2E/DX2                !
 ! R79   R(43,59)                1.4271         estimate D2E/DX2                !
 ! R80   R(44,45)                1.4307         estimate D2E/DX2                !
 ! R81   R(44,46)                1.3804         estimate D2E/DX2                !
 ! R82   R(45,48)                1.3673         estimate D2E/DX2                !
 ! R83   R(46,61)                1.4273         estimate D2E/DX2                !
 ! R84   R(47,48)                1.5042         estimate D2E/DX2                !
 ! R85   R(47,50)                1.5006         estimate D2E/DX2                !
 ! R86   R(47,76)                1.8172         estimate D2E/DX2                !
 ! R87   R(48,62)                1.4261         estimate D2E/DX2                !
 ! R88   R(49,50)                1.3536         estimate D2E/DX2                !
 ! R89   R(49,54)                1.4338         estimate D2E/DX2                !
 ! R90   R(50,63)                1.4311         estimate D2E/DX2                !
 ! R91   R(51,52)                1.3855         estimate D2E/DX2                !
 ! R92   R(51,54)                1.4218         estimate D2E/DX2                !
 ! R93   R(52,53)                1.4215         estimate D2E/DX2                !
 ! R94   R(53,55)                1.3812         estimate D2E/DX2                !
 ! R95   R(54,56)                1.3814         estimate D2E/DX2                !
 ! R96   R(55,56)                1.436          estimate D2E/DX2                !
 ! R97   R(55,60)                1.4243         estimate D2E/DX2                !
 ! R98   R(56,64)                1.4242         estimate D2E/DX2                !
 ! R99   R(57,58)                1.429          estimate D2E/DX2                !
 ! R100  R(57,60)                1.3779         estimate D2E/DX2                !
 ! R101  R(58,59)                1.39           estimate D2E/DX2                !
 ! R102  R(59,65)                1.4399         estimate D2E/DX2                !
 ! R103  R(60,66)                1.437          estimate D2E/DX2                !
 ! R104  R(61,62)                1.3901         estimate D2E/DX2                !
 ! R105  R(61,65)                1.4401         estimate D2E/DX2                !
 ! R106  R(62,63)                1.4291         estimate D2E/DX2                !
 ! R107  R(63,64)                1.3777         estimate D2E/DX2                !
 ! R108  R(64,66)                1.4374         estimate D2E/DX2                !
 ! R109  R(65,66)                1.3814         estimate D2E/DX2                !
 ! A1    A(2,1,4)              107.0661         estimate D2E/DX2                !
 ! A2    A(2,1,7)              112.6157         estimate D2E/DX2                !
 ! A3    A(2,1,67)             112.092          estimate D2E/DX2                !
 ! A4    A(4,1,7)              103.0326         estimate D2E/DX2                !
 ! A5    A(4,1,67)             113.6639         estimate D2E/DX2                !
 ! A6    A(7,1,67)             108.1005         estimate D2E/DX2                !
 ! A7    A(1,2,3)              107.1025         estimate D2E/DX2                !
 ! A8    A(1,2,10)             112.6203         estimate D2E/DX2                !
 ! A9    A(1,2,68)             112.1168         estimate D2E/DX2                !
 ! A10   A(3,2,10)             103.02           estimate D2E/DX2                !
 ! A11   A(3,2,68)             113.6901         estimate D2E/DX2                !
 ! A12   A(10,2,68)            108.0198         estimate D2E/DX2                !
 ! A13   A(2,3,5)              104.9039         estimate D2E/DX2                !
 ! A14   A(2,3,12)             105.8263         estimate D2E/DX2                !
 ! A15   A(2,3,69)             116.0326         estimate D2E/DX2                !
 ! A16   A(5,3,12)             105.7114         estimate D2E/DX2                !
 ! A17   A(5,3,69)             110.8098         estimate D2E/DX2                !
 ! A18   A(12,3,69)            112.7527         estimate D2E/DX2                !
 ! A19   A(1,4,5)              104.9264         estimate D2E/DX2                !
 ! A20   A(1,4,6)              105.8015         estimate D2E/DX2                !
 ! A21   A(1,4,71)             116.0269         estimate D2E/DX2                !
 ! A22   A(5,4,6)              105.7218         estimate D2E/DX2                !
 ! A23   A(5,4,71)             110.8014         estimate D2E/DX2                !
 ! A24   A(6,4,71)             112.7606         estimate D2E/DX2                !
 ! A25   A(3,5,4)              112.9459         estimate D2E/DX2                !
 ! A26   A(3,5,15)             122.5809         estimate D2E/DX2                !
 ! A27   A(4,5,15)             122.5776         estimate D2E/DX2                !
 ! A28   A(4,6,8)              109.2341         estimate D2E/DX2                !
 ! A29   A(4,6,17)             124.2649         estimate D2E/DX2                !
 ! A30   A(8,6,17)             120.1283         estimate D2E/DX2                !
 ! A31   A(1,7,8)              110.8989         estimate D2E/DX2                !
 ! A32   A(1,7,9)              125.3745         estimate D2E/DX2                !
 ! A33   A(8,7,9)              117.7485         estimate D2E/DX2                !
 ! A34   A(6,8,7)              108.9497         estimate D2E/DX2                !
 ! A35   A(6,8,20)             120.6784         estimate D2E/DX2                !
 ! A36   A(7,8,20)             124.5452         estimate D2E/DX2                !
 ! A37   A(7,9,11)             116.9552         estimate D2E/DX2                !
 ! A38   A(7,9,22)             115.7686         estimate D2E/DX2                !
 ! A39   A(11,9,22)            117.9731         estimate D2E/DX2                !
 ! A40   A(2,10,11)            125.3704         estimate D2E/DX2                !
 ! A41   A(2,10,13)            110.9022         estimate D2E/DX2                !
 ! A42   A(11,10,13)           117.7944         estimate D2E/DX2                !
 ! A43   A(9,11,10)            116.9553         estimate D2E/DX2                !
 ! A44   A(9,11,25)            117.997          estimate D2E/DX2                !
 ! A45   A(10,11,25)           115.7527         estimate D2E/DX2                !
 ! A46   A(3,12,13)            109.1994         estimate D2E/DX2                !
 ! A47   A(3,12,14)            124.2885         estimate D2E/DX2                !
 ! A48   A(13,12,14)           120.1026         estimate D2E/DX2                !
 ! A49   A(10,13,12)           108.9666         estimate D2E/DX2                !
 ! A50   A(10,13,27)           124.539          estimate D2E/DX2                !
 ! A51   A(12,13,27)           120.6748         estimate D2E/DX2                !
 ! A52   A(12,14,16)           117.3375         estimate D2E/DX2                !
 ! A53   A(12,14,29)           118.7832         estimate D2E/DX2                !
 ! A54   A(16,14,29)           122.1002         estimate D2E/DX2                !
 ! A55   A(5,15,16)            121.4736         estimate D2E/DX2                !
 ! A56   A(5,15,18)            121.454          estimate D2E/DX2                !
 ! A57   A(16,15,18)           113.7673         estimate D2E/DX2                !
 ! A58   A(14,16,15)           108.68           estimate D2E/DX2                !
 ! A59   A(14,16,32)           109.4757         estimate D2E/DX2                !
 ! A60   A(14,16,70)           110.1169         estimate D2E/DX2                !
 ! A61   A(15,16,32)           100.6134         estimate D2E/DX2                !
 ! A62   A(15,16,70)           114.8548         estimate D2E/DX2                !
 ! A63   A(32,16,70)           112.6553         estimate D2E/DX2                !
 ! A64   A(6,17,18)            117.343          estimate D2E/DX2                !
 ! A65   A(6,17,19)            118.7954         estimate D2E/DX2                !
 ! A66   A(18,17,19)           122.0793         estimate D2E/DX2                !
 ! A67   A(15,18,17)           108.7009         estimate D2E/DX2                !
 ! A68   A(15,18,33)           100.6201         estimate D2E/DX2                !
 ! A69   A(15,18,72)           114.8709         estimate D2E/DX2                !
 ! A70   A(17,18,33)           109.485          estimate D2E/DX2                !
 ! A71   A(17,18,72)           110.0599         estimate D2E/DX2                !
 ! A72   A(33,18,72)           112.6664         estimate D2E/DX2                !
 ! A73   A(17,19,21)           119.9618         estimate D2E/DX2                !
 ! A74   A(17,19,35)           118.2236         estimate D2E/DX2                !
 ! A75   A(21,19,35)           120.7443         estimate D2E/DX2                !
 ! A76   A(8,20,21)            118.6419         estimate D2E/DX2                !
 ! A77   A(8,20,23)            114.5832         estimate D2E/DX2                !
 ! A78   A(21,20,23)           121.7822         estimate D2E/DX2                !
 ! A79   A(19,21,20)           119.6167         estimate D2E/DX2                !
 ! A80   A(19,21,38)           122.243          estimate D2E/DX2                !
 ! A81   A(20,21,38)           116.9144         estimate D2E/DX2                !
 ! A82   A(9,22,23)            122.6904         estimate D2E/DX2                !
 ! A83   A(9,22,24)            121.5244         estimate D2E/DX2                !
 ! A84   A(23,22,24)           107.2763         estimate D2E/DX2                !
 ! A85   A(20,23,22)           119.1658         estimate D2E/DX2                !
 ! A86   A(20,23,40)           119.6073         estimate D2E/DX2                !
 ! A87   A(22,23,40)           109.1775         estimate D2E/DX2                !
 ! A88   A(22,24,26)           119.7166         estimate D2E/DX2                !
 ! A89   A(22,24,41)           108.7977         estimate D2E/DX2                !
 ! A90   A(26,24,41)           120.0574         estimate D2E/DX2                !
 ! A91   A(11,25,26)           121.5077         estimate D2E/DX2                !
 ! A92   A(11,25,28)           122.6875         estimate D2E/DX2                !
 ! A93   A(26,25,28)           107.2905         estimate D2E/DX2                !
 ! A94   A(24,26,25)           119.7642         estimate D2E/DX2                !
 ! A95   A(24,26,44)           120.0567         estimate D2E/DX2                !
 ! A96   A(25,26,44)           108.7893         estimate D2E/DX2                !
 ! A97   A(13,27,28)           114.5534         estimate D2E/DX2                !
 ! A98   A(13,27,30)           118.6756         estimate D2E/DX2                !
 ! A99   A(28,27,30)           121.78           estimate D2E/DX2                !
 ! A100  A(25,28,27)           119.2233         estimate D2E/DX2                !
 ! A101  A(25,28,45)           109.1621         estimate D2E/DX2                !
 ! A102  A(27,28,45)           119.6514         estimate D2E/DX2                !
 ! A103  A(14,29,30)           120.0063         estimate D2E/DX2                !
 ! A104  A(14,29,31)           118.1796         estimate D2E/DX2                !
 ! A105  A(30,29,31)           120.7422         estimate D2E/DX2                !
 ! A106  A(27,30,29)           119.5545         estimate D2E/DX2                !
 ! A107  A(27,30,47)           116.8869         estimate D2E/DX2                !
 ! A108  A(29,30,47)           122.297          estimate D2E/DX2                !
 ! A109  A(29,31,34)           108.5586         estimate D2E/DX2                !
 ! A110  A(29,31,49)           111.4838         estimate D2E/DX2                !
 ! A111  A(29,31,73)           108.7799         estimate D2E/DX2                !
 ! A112  A(34,31,49)           100.7092         estimate D2E/DX2                !
 ! A113  A(34,31,73)           114.5173         estimate D2E/DX2                !
 ! A114  A(49,31,73)           112.5956         estimate D2E/DX2                !
 ! A115  A(16,32,33)           111.8297         estimate D2E/DX2                !
 ! A116  A(16,32,34)           121.4619         estimate D2E/DX2                !
 ! A117  A(33,32,34)           121.031          estimate D2E/DX2                !
 ! A118  A(18,33,32)           111.8193         estimate D2E/DX2                !
 ! A119  A(18,33,36)           121.4467         estimate D2E/DX2                !
 ! A120  A(32,33,36)           121.0583         estimate D2E/DX2                !
 ! A121  A(31,34,32)           124.1533         estimate D2E/DX2                !
 ! A122  A(31,34,51)           111.4321         estimate D2E/DX2                !
 ! A123  A(32,34,51)           118.3735         estimate D2E/DX2                !
 ! A124  A(19,35,36)           108.5321         estimate D2E/DX2                !
 ! A125  A(19,35,37)           111.5114         estimate D2E/DX2                !
 ! A126  A(19,35,74)           108.748          estimate D2E/DX2                !
 ! A127  A(36,35,37)           100.7088         estimate D2E/DX2                !
 ! A128  A(36,35,74)           114.6694         estimate D2E/DX2                !
 ! A129  A(37,35,74)           112.4812         estimate D2E/DX2                !
 ! A130  A(33,36,35)           124.1732         estimate D2E/DX2                !
 ! A131  A(33,36,52)           118.3549         estimate D2E/DX2                !
 ! A132  A(35,36,52)           111.4283         estimate D2E/DX2                !
 ! A133  A(35,37,39)           122.7462         estimate D2E/DX2                !
 ! A134  A(35,37,53)           110.2828         estimate D2E/DX2                !
 ! A135  A(39,37,53)           119.3099         estimate D2E/DX2                !
 ! A136  A(21,38,39)           110.7833         estimate D2E/DX2                !
 ! A137  A(21,38,42)           112.4018         estimate D2E/DX2                !
 ! A138  A(21,38,75)           105.8558         estimate D2E/DX2                !
 ! A139  A(39,38,42)           101.1235         estimate D2E/DX2                !
 ! A140  A(39,38,75)           112.9789         estimate D2E/DX2                !
 ! A141  A(42,38,75)           113.8554         estimate D2E/DX2                !
 ! A142  A(37,39,38)           122.2917         estimate D2E/DX2                !
 ! A143  A(37,39,57)           119.6624         estimate D2E/DX2                !
 ! A144  A(38,39,57)           110.4937         estimate D2E/DX2                !
 ! A145  A(23,40,41)           107.5346         estimate D2E/DX2                !
 ! A146  A(23,40,42)           119.9907         estimate D2E/DX2                !
 ! A147  A(41,40,42)           121.7001         estimate D2E/DX2                !
 ! A148  A(24,41,40)           106.9845         estimate D2E/DX2                !
 ! A149  A(24,41,43)           119.9566         estimate D2E/DX2                !
 ! A150  A(40,41,43)           120.1131         estimate D2E/DX2                !
 ! A151  A(38,42,40)           122.9429         estimate D2E/DX2                !
 ! A152  A(38,42,58)           111.4481         estimate D2E/DX2                !
 ! A153  A(40,42,58)           118.1538         estimate D2E/DX2                !
 ! A154  A(41,43,46)           119.9673         estimate D2E/DX2                !
 ! A155  A(41,43,59)           118.7841         estimate D2E/DX2                !
 ! A156  A(46,43,59)           108.5154         estimate D2E/DX2                !
 ! A157  A(26,44,45)           106.9808         estimate D2E/DX2                !
 ! A158  A(26,44,46)           119.9692         estimate D2E/DX2                !
 ! A159  A(45,44,46)           120.1097         estimate D2E/DX2                !
 ! A160  A(28,45,44)           107.5441         estimate D2E/DX2                !
 ! A161  A(28,45,48)           119.9602         estimate D2E/DX2                !
 ! A162  A(44,45,48)           121.7343         estimate D2E/DX2                !
 ! A163  A(43,46,44)           119.9437         estimate D2E/DX2                !
 ! A164  A(43,46,61)           108.547          estimate D2E/DX2                !
 ! A165  A(44,46,61)           118.7519         estimate D2E/DX2                !
 ! A166  A(30,47,48)           112.4425         estimate D2E/DX2                !
 ! A167  A(30,47,50)           110.777          estimate D2E/DX2                !
 ! A168  A(30,47,76)           106.0055         estimate D2E/DX2                !
 ! A169  A(48,47,50)           101.117          estimate D2E/DX2                !
 ! A170  A(48,47,76)           113.6631         estimate D2E/DX2                !
 ! A171  A(50,47,76)           112.9846         estimate D2E/DX2                !
 ! A172  A(45,48,47)           122.9427         estimate D2E/DX2                !
 ! A173  A(45,48,62)           118.1367         estimate D2E/DX2                !
 ! A174  A(47,48,62)           111.4857         estimate D2E/DX2                !
 ! A175  A(31,49,50)           122.7751         estimate D2E/DX2                !
 ! A176  A(31,49,54)           110.2804         estimate D2E/DX2                !
 ! A177  A(50,49,54)           119.295          estimate D2E/DX2                !
 ! A178  A(47,50,49)           122.3044         estimate D2E/DX2                !
 ! A179  A(47,50,63)           110.4701         estimate D2E/DX2                !
 ! A180  A(49,50,63)           119.6442         estimate D2E/DX2                !
 ! A181  A(34,51,52)           120.2743         estimate D2E/DX2                !
 ! A182  A(34,51,54)           108.1525         estimate D2E/DX2                !
 ! A183  A(52,51,54)           120.8258         estimate D2E/DX2                !
 ! A184  A(36,52,51)           120.2882         estimate D2E/DX2                !
 ! A185  A(36,52,53)           108.1534         estimate D2E/DX2                !
 ! A186  A(51,52,53)           120.8303         estimate D2E/DX2                !
 ! A187  A(37,53,52)           108.6386         estimate D2E/DX2                !
 ! A188  A(37,53,55)           121.4477         estimate D2E/DX2                !
 ! A189  A(52,53,55)           118.5217         estimate D2E/DX2                !
 ! A190  A(49,54,51)           108.6312         estimate D2E/DX2                !
 ! A191  A(49,54,56)           121.4434         estimate D2E/DX2                !
 ! A192  A(51,54,56)           118.4967         estimate D2E/DX2                !
 ! A193  A(53,55,56)           120.5961         estimate D2E/DX2                !
 ! A194  A(53,55,60)           118.9867         estimate D2E/DX2                !
 ! A195  A(56,55,60)           108.5197         estimate D2E/DX2                !
 ! A196  A(54,56,55)           120.6154         estimate D2E/DX2                !
 ! A197  A(54,56,64)           119.0172         estimate D2E/DX2                !
 ! A198  A(55,56,64)           108.4489         estimate D2E/DX2                !
 ! A199  A(39,57,58)           108.9136         estimate D2E/DX2                !
 ! A200  A(39,57,60)           121.4377         estimate D2E/DX2                !
 ! A201  A(58,57,60)           119.3562         estimate D2E/DX2                !
 ! A202  A(42,58,57)           107.4494         estimate D2E/DX2                !
 ! A203  A(42,58,59)           120.9127         estimate D2E/DX2                !
 ! A204  A(57,58,59)           120.1912         estimate D2E/DX2                !
 ! A205  A(43,59,58)           120.2758         estimate D2E/DX2                !
 ! A206  A(43,59,65)           106.8891         estimate D2E/DX2                !
 ! A207  A(58,59,65)           120.0294         estimate D2E/DX2                !
 ! A208  A(55,60,57)           119.088          estimate D2E/DX2                !
 ! A209  A(55,60,66)           107.0147         estimate D2E/DX2                !
 ! A210  A(57,60,66)           120.9699         estimate D2E/DX2                !
 ! A211  A(46,61,62)           120.2939         estimate D2E/DX2                !
 ! A212  A(46,61,65)           106.8544         estimate D2E/DX2                !
 ! A213  A(62,61,65)           120.017          estimate D2E/DX2                !
 ! A214  A(48,62,61)           120.9142         estimate D2E/DX2                !
 ! A215  A(48,62,63)           107.4024         estimate D2E/DX2                !
 ! A216  A(61,62,63)           120.2732         estimate D2E/DX2                !
 ! A217  A(50,63,62)           108.9513         estimate D2E/DX2                !
 ! A218  A(50,63,64)           121.4979         estimate D2E/DX2                !
 ! A219  A(62,63,64)           119.2889         estimate D2E/DX2                !
 ! A220  A(56,64,63)           119.036          estimate D2E/DX2                !
 ! A221  A(56,64,66)           107.0496         estimate D2E/DX2                !
 ! A222  A(63,64,66)           120.961          estimate D2E/DX2                !
 ! A223  A(59,65,61)           109.148          estimate D2E/DX2                !
 ! A224  A(59,65,66)           119.6289         estimate D2E/DX2                !
 ! A225  A(61,65,66)           119.5538         estimate D2E/DX2                !
 ! A226  A(60,66,64)           108.9323         estimate D2E/DX2                !
 ! A227  A(60,66,65)           119.6233         estimate D2E/DX2                !
 ! A228  A(64,66,65)           119.6997         estimate D2E/DX2                !
 ! D1    D(4,1,2,3)              0.0365         estimate D2E/DX2                !
 ! D2    D(4,1,2,10)          -112.518          estimate D2E/DX2                !
 ! D3    D(4,1,2,68)           125.4035         estimate D2E/DX2                !
 ! D4    D(7,1,2,3)            112.5828         estimate D2E/DX2                !
 ! D5    D(7,1,2,10)             0.0283         estimate D2E/DX2                !
 ! D6    D(7,1,2,68)          -122.0502         estimate D2E/DX2                !
 ! D7    D(67,1,2,3)          -125.2547         estimate D2E/DX2                !
 ! D8    D(67,1,2,10)          122.1908         estimate D2E/DX2                !
 ! D9    D(67,1,2,68)            0.1123         estimate D2E/DX2                !
 ! D10   D(2,1,4,5)             10.1114         estimate D2E/DX2                !
 ! D11   D(2,1,4,6)            121.6349         estimate D2E/DX2                !
 ! D12   D(2,1,4,71)          -112.5165         estimate D2E/DX2                !
 ! D13   D(7,1,4,5)           -108.8327         estimate D2E/DX2                !
 ! D14   D(7,1,4,6)              2.6908         estimate D2E/DX2                !
 ! D15   D(7,1,4,71)           128.5394         estimate D2E/DX2                !
 ! D16   D(67,1,4,5)           134.4487         estimate D2E/DX2                !
 ! D17   D(67,1,4,6)          -114.0278         estimate D2E/DX2                !
 ! D18   D(67,1,4,71)           11.8209         estimate D2E/DX2                !
 ! D19   D(2,1,7,8)           -125.8449         estimate D2E/DX2                !
 ! D20   D(2,1,7,9)             26.079          estimate D2E/DX2                !
 ! D21   D(4,1,7,8)            -10.8365         estimate D2E/DX2                !
 ! D22   D(4,1,7,9)            141.0874         estimate D2E/DX2                !
 ! D23   D(67,1,7,8)           109.7667         estimate D2E/DX2                !
 ! D24   D(67,1,7,9)           -98.3094         estimate D2E/DX2                !
 ! D25   D(1,2,3,5)            -10.1694         estimate D2E/DX2                !
 ! D26   D(1,2,3,12)          -121.6819         estimate D2E/DX2                !
 ! D27   D(1,2,3,69)           112.4559         estimate D2E/DX2                !
 ! D28   D(10,2,3,5)           108.7897         estimate D2E/DX2                !
 ! D29   D(10,2,3,12)           -2.7229         estimate D2E/DX2                !
 ! D30   D(10,2,3,69)         -128.585          estimate D2E/DX2                !
 ! D31   D(68,2,3,5)          -134.5831         estimate D2E/DX2                !
 ! D32   D(68,2,3,12)          113.9043         estimate D2E/DX2                !
 ! D33   D(68,2,3,69)          -11.9578         estimate D2E/DX2                !
 ! D34   D(1,2,10,11)          -26.1253         estimate D2E/DX2                !
 ! D35   D(1,2,10,13)          125.9105         estimate D2E/DX2                !
 ! D36   D(3,2,10,11)         -141.1713         estimate D2E/DX2                !
 ! D37   D(3,2,10,13)           10.8645         estimate D2E/DX2                !
 ! D38   D(68,2,10,11)          98.2392         estimate D2E/DX2                !
 ! D39   D(68,2,10,13)        -109.725          estimate D2E/DX2                !
 ! D40   D(2,3,5,4)             17.7492         estimate D2E/DX2                !
 ! D41   D(2,3,5,15)          -146.9288         estimate D2E/DX2                !
 ! D42   D(12,3,5,4)           129.3439         estimate D2E/DX2                !
 ! D43   D(12,3,5,15)          -35.3341         estimate D2E/DX2                !
 ! D44   D(69,3,5,4)          -108.1959         estimate D2E/DX2                !
 ! D45   D(69,3,5,15)           87.1262         estimate D2E/DX2                !
 ! D46   D(2,3,12,13)           -6.1538         estimate D2E/DX2                !
 ! D47   D(2,3,12,14)          145.5178         estimate D2E/DX2                !
 ! D48   D(5,3,12,13)         -117.0973         estimate D2E/DX2                !
 ! D49   D(5,3,12,14)           34.5742         estimate D2E/DX2                !
 ! D50   D(69,3,12,13)         121.6929         estimate D2E/DX2                !
 ! D51   D(69,3,12,14)         -86.6355         estimate D2E/DX2                !
 ! D52   D(1,4,5,3)            -17.7303         estimate D2E/DX2                !
 ! D53   D(1,4,5,15)           146.9482         estimate D2E/DX2                !
 ! D54   D(6,4,5,3)           -129.3108         estimate D2E/DX2                !
 ! D55   D(6,4,5,15)            35.3677         estimate D2E/DX2                !
 ! D56   D(71,4,5,3)           108.2177         estimate D2E/DX2                !
 ! D57   D(71,4,5,15)          -87.1038         estimate D2E/DX2                !
 ! D58   D(1,4,6,8)              6.1827         estimate D2E/DX2                !
 ! D59   D(1,4,6,17)          -145.574          estimate D2E/DX2                !
 ! D60   D(5,4,6,8)            117.1455         estimate D2E/DX2                !
 ! D61   D(5,4,6,17)           -34.6112         estimate D2E/DX2                !
 ! D62   D(71,4,6,8)          -121.6436         estimate D2E/DX2                !
 ! D63   D(71,4,6,17)           86.5996         estimate D2E/DX2                !
 ! D64   D(3,5,15,16)            2.5031         estimate D2E/DX2                !
 ! D65   D(3,5,15,18)          160.6901         estimate D2E/DX2                !
 ! D66   D(4,5,15,16)         -160.7126         estimate D2E/DX2                !
 ! D67   D(4,5,15,18)           -2.5256         estimate D2E/DX2                !
 ! D68   D(4,6,8,7)            -13.224          estimate D2E/DX2                !
 ! D69   D(4,6,8,20)          -167.488          estimate D2E/DX2                !
 ! D70   D(17,6,8,7)           139.8927         estimate D2E/DX2                !
 ! D71   D(17,6,8,20)          -14.3712         estimate D2E/DX2                !
 ! D72   D(4,6,17,18)            0.8502         estimate D2E/DX2                !
 ! D73   D(4,6,17,19)          165.9723         estimate D2E/DX2                !
 ! D74   D(8,6,17,18)         -148.0459         estimate D2E/DX2                !
 ! D75   D(8,6,17,19)           17.0762         estimate D2E/DX2                !
 ! D76   D(1,7,8,6)             15.3975         estimate D2E/DX2                !
 ! D77   D(1,7,8,20)           168.4356         estimate D2E/DX2                !
 ! D78   D(9,7,8,6)           -138.9048         estimate D2E/DX2                !
 ! D79   D(9,7,8,20)            14.1333         estimate D2E/DX2                !
 ! D80   D(1,7,9,11)           -27.0986         estimate D2E/DX2                !
 ! D81   D(1,7,9,22)          -173.1796         estimate D2E/DX2                !
 ! D82   D(8,7,9,11)           123.1118         estimate D2E/DX2                !
 ! D83   D(8,7,9,22)           -22.9691         estimate D2E/DX2                !
 ! D84   D(6,8,20,21)            2.1629         estimate D2E/DX2                !
 ! D85   D(6,8,20,23)          157.6418         estimate D2E/DX2                !
 ! D86   D(7,8,20,21)         -147.9291         estimate D2E/DX2                !
 ! D87   D(7,8,20,23)            7.5498         estimate D2E/DX2                !
 ! D88   D(7,9,11,10)            0.0024         estimate D2E/DX2                !
 ! D89   D(7,9,11,25)         -145.3246         estimate D2E/DX2                !
 ! D90   D(22,9,11,10)         145.3212         estimate D2E/DX2                !
 ! D91   D(22,9,11,25)          -0.0057         estimate D2E/DX2                !
 ! D92   D(7,9,22,23)           11.8744         estimate D2E/DX2                !
 ! D93   D(7,9,22,24)          155.7376         estimate D2E/DX2                !
 ! D94   D(11,9,22,23)        -133.8483         estimate D2E/DX2                !
 ! D95   D(11,9,22,24)          10.0148         estimate D2E/DX2                !
 ! D96   D(2,10,11,9)           27.1128         estimate D2E/DX2                !
 ! D97   D(2,10,11,25)         173.2152         estimate D2E/DX2                !
 ! D98   D(13,10,11,9)        -123.2048         estimate D2E/DX2                !
 ! D99   D(13,10,11,25)         22.8977         estimate D2E/DX2                !
 ! D100  D(2,10,13,12)         -15.4139         estimate D2E/DX2                !
 ! D101  D(2,10,13,27)        -168.4673         estimate D2E/DX2                !
 ! D102  D(11,10,13,12)        138.9764         estimate D2E/DX2                !
 ! D103  D(11,10,13,27)        -14.077          estimate D2E/DX2                !
 ! D104  D(9,11,25,26)          -9.9972         estimate D2E/DX2                !
 ! D105  D(9,11,25,28)         133.8602         estimate D2E/DX2                !
 ! D106  D(10,11,25,26)       -155.7332         estimate D2E/DX2                !
 ! D107  D(10,11,25,28)        -11.8757         estimate D2E/DX2                !
 ! D108  D(3,12,13,10)          13.2126         estimate D2E/DX2                !
 ! D109  D(3,12,13,27)         167.49           estimate D2E/DX2                !
 ! D110  D(14,12,13,10)       -139.8395         estimate D2E/DX2                !
 ! D111  D(14,12,13,27)         14.4379         estimate D2E/DX2                !
 ! D112  D(3,12,14,16)          -0.8137         estimate D2E/DX2                !
 ! D113  D(3,12,14,29)        -165.9523         estimate D2E/DX2                !
 ! D114  D(13,12,14,16)        147.9884         estimate D2E/DX2                !
 ! D115  D(13,12,14,29)        -17.1502         estimate D2E/DX2                !
 ! D116  D(10,13,27,28)         -7.51           estimate D2E/DX2                !
 ! D117  D(10,13,27,30)        147.9713         estimate D2E/DX2                !
 ! D118  D(12,13,27,28)       -157.6239         estimate D2E/DX2                !
 ! D119  D(12,13,27,30)         -2.1426         estimate D2E/DX2                !
 ! D120  D(12,14,16,15)        -33.0366         estimate D2E/DX2                !
 ! D121  D(12,14,16,32)       -142.0499         estimate D2E/DX2                !
 ! D122  D(12,14,16,70)         93.5728         estimate D2E/DX2                !
 ! D123  D(29,14,16,15)        131.5749         estimate D2E/DX2                !
 ! D124  D(29,14,16,32)         22.5617         estimate D2E/DX2                !
 ! D125  D(29,14,16,70)       -101.8156         estimate D2E/DX2                !
 ! D126  D(12,14,29,30)          8.021          estimate D2E/DX2                !
 ! D127  D(12,14,29,31)        176.2736         estimate D2E/DX2                !
 ! D128  D(16,14,29,30)       -156.3769         estimate D2E/DX2                !
 ! D129  D(16,14,29,31)         11.8757         estimate D2E/DX2                !
 ! D130  D(5,15,16,14)          33.241          estimate D2E/DX2                !
 ! D131  D(5,15,16,32)         148.1657         estimate D2E/DX2                !
 ! D132  D(5,15,16,70)         -90.5894         estimate D2E/DX2                !
 ! D133  D(18,15,16,14)       -126.4946         estimate D2E/DX2                !
 ! D134  D(18,15,16,32)        -11.5699         estimate D2E/DX2                !
 ! D135  D(18,15,16,70)        109.675          estimate D2E/DX2                !
 ! D136  D(5,15,18,17)         -33.2245         estimate D2E/DX2                !
 ! D137  D(5,15,18,33)        -148.1703         estimate D2E/DX2                !
 ! D138  D(5,15,18,72)          90.5589         estimate D2E/DX2                !
 ! D139  D(16,15,18,17)        126.5155         estimate D2E/DX2                !
 ! D140  D(16,15,18,33)         11.5698         estimate D2E/DX2                !
 ! D141  D(16,15,18,72)       -109.701          estimate D2E/DX2                !
 ! D142  D(14,16,32,33)        121.1041         estimate D2E/DX2                !
 ! D143  D(14,16,32,34)        -32.5508         estimate D2E/DX2                !
 ! D144  D(15,16,32,33)          6.7798         estimate D2E/DX2                !
 ! D145  D(15,16,32,34)       -146.8751         estimate D2E/DX2                !
 ! D146  D(70,16,32,33)       -116.0133         estimate D2E/DX2                !
 ! D147  D(70,16,32,34)         90.3318         estimate D2E/DX2                !
 ! D148  D(6,17,18,15)          33.0203         estimate D2E/DX2                !
 ! D149  D(6,17,18,33)         142.056          estimate D2E/DX2                !
 ! D150  D(6,17,18,72)         -93.5849         estimate D2E/DX2                !
 ! D151  D(19,17,18,15)       -131.5797         estimate D2E/DX2                !
 ! D152  D(19,17,18,33)        -22.5439         estimate D2E/DX2                !
 ! D153  D(19,17,18,72)        101.8151         estimate D2E/DX2                !
 ! D154  D(6,17,19,21)          -8.0202         estimate D2E/DX2                !
 ! D155  D(6,17,19,35)        -176.2815         estimate D2E/DX2                !
 ! D156  D(18,17,19,21)        156.3648         estimate D2E/DX2                !
 ! D157  D(18,17,19,35)        -11.8965         estimate D2E/DX2                !
 ! D158  D(15,18,33,32)         -6.7777         estimate D2E/DX2                !
 ! D159  D(15,18,33,36)        146.8887         estimate D2E/DX2                !
 ! D160  D(17,18,33,32)       -121.132          estimate D2E/DX2                !
 ! D161  D(17,18,33,36)         32.5343         estimate D2E/DX2                !
 ! D162  D(72,18,33,32)        116.0441         estimate D2E/DX2                !
 ! D163  D(72,18,33,36)        -90.2895         estimate D2E/DX2                !
 ! D164  D(17,19,21,20)         -3.9047         estimate D2E/DX2                !
 ! D165  D(17,19,21,38)       -170.8605         estimate D2E/DX2                !
 ! D166  D(35,19,21,20)        164.0565         estimate D2E/DX2                !
 ! D167  D(35,19,21,38)         -2.8993         estimate D2E/DX2                !
 ! D168  D(17,19,35,36)         35.7807         estimate D2E/DX2                !
 ! D169  D(17,19,35,37)        145.8268         estimate D2E/DX2                !
 ! D170  D(17,19,35,74)        -89.5751         estimate D2E/DX2                !
 ! D171  D(21,19,35,36)       -132.385          estimate D2E/DX2                !
 ! D172  D(21,19,35,37)        -22.3389         estimate D2E/DX2                !
 ! D173  D(21,19,35,74)        102.2592         estimate D2E/DX2                !
 ! D174  D(8,20,21,19)           6.7504         estimate D2E/DX2                !
 ! D175  D(8,20,21,38)         174.3885         estimate D2E/DX2                !
 ! D176  D(23,20,21,19)       -146.8914         estimate D2E/DX2                !
 ! D177  D(23,20,21,38)         20.7467         estimate D2E/DX2                !
 ! D178  D(8,20,23,22)         -18.9953         estimate D2E/DX2                !
 ! D179  D(8,20,23,40)        -157.5705         estimate D2E/DX2                !
 ! D180  D(21,20,23,22)        135.6328         estimate D2E/DX2                !
 ! D181  D(21,20,23,40)         -2.9424         estimate D2E/DX2                !
 ! D182  D(19,21,38,39)         25.7006         estimate D2E/DX2                !
 ! D183  D(19,21,38,42)        138.0121         estimate D2E/DX2                !
 ! D184  D(19,21,38,75)        -97.1107         estimate D2E/DX2                !
 ! D185  D(20,21,38,39)       -141.5875         estimate D2E/DX2                !
 ! D186  D(20,21,38,42)        -29.276          estimate D2E/DX2                !
 ! D187  D(20,21,38,75)         95.6012         estimate D2E/DX2                !
 ! D188  D(9,22,23,20)          10.0079         estimate D2E/DX2                !
 ! D189  D(9,22,23,40)         152.4873         estimate D2E/DX2                !
 ! D190  D(24,22,23,20)       -138.2273         estimate D2E/DX2                !
 ! D191  D(24,22,23,40)          4.2522         estimate D2E/DX2                !
 ! D192  D(9,22,24,26)         -10.1889         estimate D2E/DX2                !
 ! D193  D(9,22,24,41)        -153.6532         estimate D2E/DX2                !
 ! D194  D(23,22,24,26)        138.4954         estimate D2E/DX2                !
 ! D195  D(23,22,24,41)         -4.969          estimate D2E/DX2                !
 ! D196  D(20,23,40,41)        140.3237         estimate D2E/DX2                !
 ! D197  D(20,23,40,42)         -4.6236         estimate D2E/DX2                !
 ! D198  D(22,23,40,41)         -1.9642         estimate D2E/DX2                !
 ! D199  D(22,23,40,42)       -146.9115         estimate D2E/DX2                !
 ! D200  D(22,24,26,25)          0.0105         estimate D2E/DX2                !
 ! D201  D(22,24,26,44)       -139.4193         estimate D2E/DX2                !
 ! D202  D(41,24,26,25)        139.3836         estimate D2E/DX2                !
 ! D203  D(41,24,26,44)         -0.0462         estimate D2E/DX2                !
 ! D204  D(22,24,41,40)          3.7495         estimate D2E/DX2                !
 ! D205  D(22,24,41,43)        145.1489         estimate D2E/DX2                !
 ! D206  D(26,24,41,40)       -139.5694         estimate D2E/DX2                !
 ! D207  D(26,24,41,43)          1.83           estimate D2E/DX2                !
 ! D208  D(11,25,26,24)         10.1676         estimate D2E/DX2                !
 ! D209  D(11,25,26,44)        153.6828         estimate D2E/DX2                !
 ! D210  D(28,25,26,24)       -138.508          estimate D2E/DX2                !
 ! D211  D(28,25,26,44)          5.0072         estimate D2E/DX2                !
 ! D212  D(11,25,28,27)         -9.9106         estimate D2E/DX2                !
 ! D213  D(11,25,28,45)       -152.5201         estimate D2E/DX2                !
 ! D214  D(26,25,28,27)        138.3106         estimate D2E/DX2                !
 ! D215  D(26,25,28,45)         -4.2989         estimate D2E/DX2                !
 ! D216  D(24,26,44,45)        139.6268         estimate D2E/DX2                !
 ! D217  D(24,26,44,46)         -1.7774         estimate D2E/DX2                !
 ! D218  D(25,26,44,45)         -3.7637         estimate D2E/DX2                !
 ! D219  D(25,26,44,46)       -145.1679         estimate D2E/DX2                !
 ! D220  D(13,27,28,25)         18.8834         estimate D2E/DX2                !
 ! D221  D(13,27,28,45)        157.5814         estimate D2E/DX2                !
 ! D222  D(30,27,28,25)       -135.7566         estimate D2E/DX2                !
 ! D223  D(30,27,28,45)          2.9414         estimate D2E/DX2                !
 ! D224  D(13,27,30,29)         -6.8439         estimate D2E/DX2                !
 ! D225  D(13,27,30,47)       -174.3131         estimate D2E/DX2                !
 ! D226  D(28,27,30,29)        146.7944         estimate D2E/DX2                !
 ! D227  D(28,27,30,47)        -20.6748         estimate D2E/DX2                !
 ! D228  D(25,28,45,44)          2.0017         estimate D2E/DX2                !
 ! D229  D(25,28,45,48)        146.9823         estimate D2E/DX2                !
 ! D230  D(27,28,45,44)       -140.4226         estimate D2E/DX2                !
 ! D231  D(27,28,45,48)          4.558          estimate D2E/DX2                !
 ! D232  D(14,29,30,27)          3.9883         estimate D2E/DX2                !
 ! D233  D(14,29,30,47)        170.7543         estimate D2E/DX2                !
 ! D234  D(31,29,30,27)       -163.9592         estimate D2E/DX2                !
 ! D235  D(31,29,30,47)          2.8068         estimate D2E/DX2                !
 ! D236  D(14,29,31,34)        -35.7803         estimate D2E/DX2                !
 ! D237  D(14,29,31,49)       -145.8273         estimate D2E/DX2                !
 ! D238  D(14,29,31,73)         89.4249         estimate D2E/DX2                !
 ! D239  D(30,29,31,34)        132.3823         estimate D2E/DX2                !
 ! D240  D(30,29,31,49)         22.3352         estimate D2E/DX2                !
 ! D241  D(30,29,31,73)       -102.4125         estimate D2E/DX2                !
 ! D242  D(27,30,47,48)         29.2136         estimate D2E/DX2                !
 ! D243  D(27,30,47,50)        141.5369         estimate D2E/DX2                !
 ! D244  D(27,30,47,76)        -95.5533         estimate D2E/DX2                !
 ! D245  D(29,30,47,48)       -137.8847         estimate D2E/DX2                !
 ! D246  D(29,30,47,50)        -25.5615         estimate D2E/DX2                !
 ! D247  D(29,30,47,76)         97.3484         estimate D2E/DX2                !
 ! D248  D(29,31,34,32)         27.7672         estimate D2E/DX2                !
 ! D249  D(29,31,34,51)       -124.2657         estimate D2E/DX2                !
 ! D250  D(49,31,34,32)        144.9395         estimate D2E/DX2                !
 ! D251  D(49,31,34,51)         -7.0934         estimate D2E/DX2                !
 ! D252  D(73,31,34,32)        -93.9934         estimate D2E/DX2                !
 ! D253  D(73,31,34,51)        113.9738         estimate D2E/DX2                !
 ! D254  D(29,31,49,50)        -25.2064         estimate D2E/DX2                !
 ! D255  D(29,31,49,54)        123.9228         estimate D2E/DX2                !
 ! D256  D(34,31,49,50)       -140.2012         estimate D2E/DX2                !
 ! D257  D(34,31,49,54)          8.9281         estimate D2E/DX2                !
 ! D258  D(73,31,49,50)         97.3774         estimate D2E/DX2                !
 ! D259  D(73,31,49,54)       -113.4933         estimate D2E/DX2                !
 ! D260  D(16,32,33,18)         -0.0017         estimate D2E/DX2                !
 ! D261  D(16,32,33,36)       -153.7844         estimate D2E/DX2                !
 ! D262  D(34,32,33,18)        153.7823         estimate D2E/DX2                !
 ! D263  D(34,32,33,36)         -0.0004         estimate D2E/DX2                !
 ! D264  D(16,32,34,31)          7.3936         estimate D2E/DX2                !
 ! D265  D(16,32,34,51)        157.6487         estimate D2E/DX2                !
 ! D266  D(33,32,34,31)       -143.8715         estimate D2E/DX2                !
 ! D267  D(33,32,34,51)          6.3836         estimate D2E/DX2                !
 ! D268  D(18,33,36,35)         -7.3883         estimate D2E/DX2                !
 ! D269  D(18,33,36,52)       -157.6359         estimate D2E/DX2                !
 ! D270  D(32,33,36,35)        143.8783         estimate D2E/DX2                !
 ! D271  D(32,33,36,52)         -6.3693         estimate D2E/DX2                !
 ! D272  D(31,34,51,52)        147.4821         estimate D2E/DX2                !
 ! D273  D(31,34,51,54)          2.8139         estimate D2E/DX2                !
 ! D274  D(32,34,51,52)         -6.3455         estimate D2E/DX2                !
 ! D275  D(32,34,51,54)       -151.0137         estimate D2E/DX2                !
 ! D276  D(19,35,36,33)        -27.7507         estimate D2E/DX2                !
 ! D277  D(19,35,36,52)        124.2706         estimate D2E/DX2                !
 ! D278  D(37,35,36,33)       -144.9436         estimate D2E/DX2                !
 ! D279  D(37,35,36,52)          7.0777         estimate D2E/DX2                !
 ! D280  D(74,35,36,33)         94.0521         estimate D2E/DX2                !
 ! D281  D(74,35,36,52)       -113.9266         estimate D2E/DX2                !
 ! D282  D(19,35,37,39)         25.2467         estimate D2E/DX2                !
 ! D283  D(19,35,37,53)       -123.867          estimate D2E/DX2                !
 ! D284  D(36,35,37,39)        140.2218         estimate D2E/DX2                !
 ! D285  D(36,35,37,53)         -8.8919         estimate D2E/DX2                !
 ! D286  D(74,35,37,39)        -97.2323         estimate D2E/DX2                !
 ! D287  D(74,35,37,53)        113.654          estimate D2E/DX2                !
 ! D288  D(33,36,52,51)          6.3066         estimate D2E/DX2                !
 ! D289  D(33,36,52,53)        151.0038         estimate D2E/DX2                !
 ! D290  D(35,36,52,51)       -147.5219         estimate D2E/DX2                !
 ! D291  D(35,36,52,53)         -2.8246         estimate D2E/DX2                !
 ! D292  D(35,37,39,38)         -1.9198         estimate D2E/DX2                !
 ! D293  D(35,37,39,57)       -148.6958         estimate D2E/DX2                !
 ! D294  D(53,37,39,38)        144.5625         estimate D2E/DX2                !
 ! D295  D(53,37,39,57)         -2.2135         estimate D2E/DX2                !
 ! D296  D(35,37,53,52)          7.8966         estimate D2E/DX2                !
 ! D297  D(35,37,53,55)        150.7362         estimate D2E/DX2                !
 ! D298  D(39,37,53,52)       -142.4245         estimate D2E/DX2                !
 ! D299  D(39,37,53,55)          0.4151         estimate D2E/DX2                !
 ! D300  D(21,38,39,37)        -23.3309         estimate D2E/DX2                !
 ! D301  D(21,38,39,57)        126.1197         estimate D2E/DX2                !
 ! D302  D(42,38,39,37)       -142.6748         estimate D2E/DX2                !
 ! D303  D(42,38,39,57)          6.7758         estimate D2E/DX2                !
 ! D304  D(75,38,39,37)         95.2473         estimate D2E/DX2                !
 ! D305  D(75,38,39,57)       -115.3021         estimate D2E/DX2                !
 ! D306  D(21,38,42,40)         23.4208         estimate D2E/DX2                !
 ! D307  D(21,38,42,58)       -125.7443         estimate D2E/DX2                !
 ! D308  D(39,38,42,40)        141.5976         estimate D2E/DX2                !
 ! D309  D(39,38,42,58)         -7.5675         estimate D2E/DX2                !
 ! D310  D(75,38,42,40)        -96.9375         estimate D2E/DX2                !
 ! D311  D(75,38,42,58)        113.8974         estimate D2E/DX2                !
 ! D312  D(37,39,57,58)        146.511          estimate D2E/DX2                !
 ! D313  D(37,39,57,60)          1.7418         estimate D2E/DX2                !
 ! D314  D(38,39,57,58)         -3.8544         estimate D2E/DX2                !
 ! D315  D(38,39,57,60)       -148.6236         estimate D2E/DX2                !
 ! D316  D(23,40,41,24)         -1.1252         estimate D2E/DX2                !
 ! D317  D(23,40,41,43)       -142.4523         estimate D2E/DX2                !
 ! D318  D(42,40,41,24)        143.0962         estimate D2E/DX2                !
 ! D319  D(42,40,41,43)          1.769          estimate D2E/DX2                !
 ! D320  D(23,40,42,38)         -6.8411         estimate D2E/DX2                !
 ! D321  D(23,40,42,58)        140.401          estimate D2E/DX2                !
 ! D322  D(41,40,42,38)       -146.7748         estimate D2E/DX2                !
 ! D323  D(41,40,42,58)          0.4673         estimate D2E/DX2                !
 ! D324  D(24,41,43,46)         -1.7886         estimate D2E/DX2                !
 ! D325  D(24,41,43,59)       -139.0973         estimate D2E/DX2                !
 ! D326  D(40,41,43,46)        134.5996         estimate D2E/DX2                !
 ! D327  D(40,41,43,59)         -2.7091         estimate D2E/DX2                !
 ! D328  D(38,42,58,57)          5.7126         estimate D2E/DX2                !
 ! D329  D(38,42,58,59)        149.0954         estimate D2E/DX2                !
 ! D330  D(40,42,58,57)       -145.0864         estimate D2E/DX2                !
 ! D331  D(40,42,58,59)         -1.7036         estimate D2E/DX2                !
 ! D332  D(41,43,46,44)         -0.0328         estimate D2E/DX2                !
 ! D333  D(41,43,46,61)       -141.183          estimate D2E/DX2                !
 ! D334  D(59,43,46,44)        141.1595         estimate D2E/DX2                !
 ! D335  D(59,43,46,61)          0.0093         estimate D2E/DX2                !
 ! D336  D(41,43,59,58)          1.4914         estimate D2E/DX2                !
 ! D337  D(41,43,59,65)        143.0134         estimate D2E/DX2                !
 ! D338  D(46,43,59,58)       -140.2315         estimate D2E/DX2                !
 ! D339  D(46,43,59,65)          1.2904         estimate D2E/DX2                !
 ! D340  D(26,44,45,28)          1.1113         estimate D2E/DX2                !
 ! D341  D(26,44,45,48)       -143.1164         estimate D2E/DX2                !
 ! D342  D(46,44,45,28)        142.4505         estimate D2E/DX2                !
 ! D343  D(46,44,45,48)         -1.7771         estimate D2E/DX2                !
 ! D344  D(26,44,46,43)          1.8152         estimate D2E/DX2                !
 ! D345  D(26,44,46,61)        139.1016         estimate D2E/DX2                !
 ! D346  D(45,44,46,43)       -134.5794         estimate D2E/DX2                !
 ! D347  D(45,44,46,61)          2.707          estimate D2E/DX2                !
 ! D348  D(28,45,48,47)          6.9058         estimate D2E/DX2                !
 ! D349  D(28,45,48,62)       -140.3887         estimate D2E/DX2                !
 ! D350  D(44,45,48,47)        146.8642         estimate D2E/DX2                !
 ! D351  D(44,45,48,62)         -0.4303         estimate D2E/DX2                !
 ! D352  D(43,46,61,62)        140.1727         estimate D2E/DX2                !
 ! D353  D(43,46,61,65)         -1.3049         estimate D2E/DX2                !
 ! D354  D(44,46,61,62)         -1.5121         estimate D2E/DX2                !
 ! D355  D(44,46,61,65)       -142.9897         estimate D2E/DX2                !
 ! D356  D(30,47,48,45)        -23.4315         estimate D2E/DX2                !
 ! D357  D(30,47,48,62)        125.7678         estimate D2E/DX2                !
 ! D358  D(50,47,48,45)       -141.6153         estimate D2E/DX2                !
 ! D359  D(50,47,48,62)          7.5841         estimate D2E/DX2                !
 ! D360  D(76,47,48,45)         97.013          estimate D2E/DX2                !
 ! D361  D(76,47,48,62)       -113.7877         estimate D2E/DX2                !
 ! D362  D(30,47,50,49)         23.2251         estimate D2E/DX2                !
 ! D363  D(30,47,50,63)       -126.1649         estimate D2E/DX2                !
 ! D364  D(48,47,50,49)        142.6098         estimate D2E/DX2                !
 ! D365  D(48,47,50,63)         -6.7802         estimate D2E/DX2                !
 ! D366  D(76,47,50,49)        -95.5431         estimate D2E/DX2                !
 ! D367  D(76,47,50,63)        115.0668         estimate D2E/DX2                !
 ! D368  D(45,48,62,61)          1.6443         estimate D2E/DX2                !
 ! D369  D(45,48,62,63)        145.1074         estimate D2E/DX2                !
 ! D370  D(47,48,62,61)       -149.1918         estimate D2E/DX2                !
 ! D371  D(47,48,62,63)         -5.7287         estimate D2E/DX2                !
 ! D372  D(31,49,50,47)          1.9409         estimate D2E/DX2                !
 ! D373  D(31,49,50,63)        148.6507         estimate D2E/DX2                !
 ! D374  D(54,49,50,47)       -144.5636         estimate D2E/DX2                !
 ! D375  D(54,49,50,63)          2.1463         estimate D2E/DX2                !
 ! D376  D(31,49,54,51)         -7.9416         estimate D2E/DX2                !
 ! D377  D(31,49,54,56)       -150.7196         estimate D2E/DX2                !
 ! D378  D(50,49,54,51)        142.4097         estimate D2E/DX2                !
 ! D379  D(50,49,54,56)         -0.3684         estimate D2E/DX2                !
 ! D380  D(47,50,63,62)          3.852          estimate D2E/DX2                !
 ! D381  D(47,50,63,64)        148.6413         estimate D2E/DX2                !
 ! D382  D(49,50,63,62)       -146.4655         estimate D2E/DX2                !
 ! D383  D(49,50,63,64)         -1.6762         estimate D2E/DX2                !
 ! D384  D(34,51,52,36)          0.0248         estimate D2E/DX2                !
 ! D385  D(34,51,52,53)       -140.2206         estimate D2E/DX2                !
 ! D386  D(54,51,52,36)        140.2381         estimate D2E/DX2                !
 ! D387  D(54,51,52,53)         -0.0073         estimate D2E/DX2                !
 ! D388  D(34,51,54,49)          3.1353         estimate D2E/DX2                !
 ! D389  D(34,51,54,56)        147.1751         estimate D2E/DX2                !
 ! D390  D(52,51,54,49)       -141.3012         estimate D2E/DX2                !
 ! D391  D(52,51,54,56)          2.7387         estimate D2E/DX2                !
 ! D392  D(36,52,53,37)         -3.1014         estimate D2E/DX2                !
 ! D393  D(36,52,53,55)       -147.192          estimate D2E/DX2                !
 ! D394  D(51,52,53,37)        141.3683         estimate D2E/DX2                !
 ! D395  D(51,52,53,55)         -2.7224         estimate D2E/DX2                !
 ! D396  D(37,53,55,56)       -136.6375         estimate D2E/DX2                !
 ! D397  D(37,53,55,60)          1.9041         estimate D2E/DX2                !
 ! D398  D(52,53,55,56)          2.7132         estimate D2E/DX2                !
 ! D399  D(52,53,55,60)        141.2548         estimate D2E/DX2                !
 ! D400  D(49,54,56,55)        136.5551         estimate D2E/DX2                !
 ! D401  D(49,54,56,64)         -1.9271         estimate D2E/DX2                !
 ! D402  D(51,54,56,55)         -2.7353         estimate D2E/DX2                !
 ! D403  D(51,54,56,64)       -141.2176         estimate D2E/DX2                !
 ! D404  D(53,55,56,54)          0.0133         estimate D2E/DX2                !
 ! D405  D(53,55,56,64)        142.3478         estimate D2E/DX2                !
 ! D406  D(60,55,56,54)       -142.3416         estimate D2E/DX2                !
 ! D407  D(60,55,56,64)         -0.0071         estimate D2E/DX2                !
 ! D408  D(53,55,60,57)         -2.3641         estimate D2E/DX2                !
 ! D409  D(53,55,60,66)       -144.1821         estimate D2E/DX2                !
 ! D410  D(56,55,60,57)        140.6926         estimate D2E/DX2                !
 ! D411  D(56,55,60,66)         -1.1254         estimate D2E/DX2                !
 ! D412  D(54,56,64,63)          2.3835         estimate D2E/DX2                !
 ! D413  D(54,56,64,66)        144.1692         estimate D2E/DX2                !
 ! D414  D(55,56,64,63)       -140.6491         estimate D2E/DX2                !
 ! D415  D(55,56,64,66)          1.1366         estimate D2E/DX2                !
 ! D416  D(39,57,58,42)         -1.1158         estimate D2E/DX2                !
 ! D417  D(39,57,58,59)       -144.8133         estimate D2E/DX2                !
 ! D418  D(60,57,58,42)        144.5024         estimate D2E/DX2                !
 ! D419  D(60,57,58,59)          0.8049         estimate D2E/DX2                !
[...]
 Alpha virt. eigenvalues --    1.37941   1.38575   1.38707   1.38802   1.39633
 Alpha virt. eigenvalues --    1.39851   1.40189   1.40289   1.40600   1.41007
 Alpha virt. eigenvalues --    1.41268   1.41328   1.41821   1.41826   1.42153
 Alpha virt. eigenvalues --    1.42647   1.42766   1.42975   1.43106   1.43179
 Alpha virt. eigenvalues --    1.43272   1.43492   1.43699   1.44042   1.44227
 Alpha virt. eigenvalues --    1.44476   1.44648   1.44815   1.45219   1.45411
 Alpha virt. eigenvalues --    1.45877   1.45948   1.46637   1.46689   1.46795
 Alpha virt. eigenvalues --    1.47147   1.47318   1.47523   1.47546   1.48005
 Alpha virt. eigenvalues --    1.48372   1.48440   1.48737   1.49233   1.49268
 Alpha virt. eigenvalues --    1.50037   1.50167   1.50762   1.51164   1.51177
 Alpha virt. eigenvalues --    1.51519   1.51795   1.51942   1.52018   1.52541
 Alpha virt. eigenvalues --    1.52841   1.53101   1.53108   1.53576   1.53894
 Alpha virt. eigenvalues --    1.54114   1.54623   1.54941   1.55426   1.55600
 Alpha virt. eigenvalues --    1.56014   1.56421   1.56532   1.57010   1.57128
 Alpha virt. eigenvalues --    1.57162   1.57645   1.58950   1.59073   1.59228
 Alpha virt. eigenvalues --    1.59310   1.59847   1.59951   1.60043   1.60398
 Alpha virt. eigenvalues --    1.60747   1.61049   1.61408   1.61728   1.62224
 Alpha virt. eigenvalues --    1.62881   1.63271   1.63362   1.63468   1.64527
 Alpha virt. eigenvalues --    1.64887   1.65320   1.65451   1.65534   1.66049
 Alpha virt. eigenvalues --    1.66548   1.67305   1.67457   1.68030   1.68288
 Alpha virt. eigenvalues --    1.68533   1.68572   1.69011   1.69341   1.70342
 Alpha virt. eigenvalues --    1.70451   1.70568   1.70586   1.71285   1.71531
 Alpha virt. eigenvalues --    1.71668   1.72261   1.72617   1.72705   1.73097
 Alpha virt. eigenvalues --    1.73200   1.74265   1.74460   1.75016   1.75306
 Alpha virt. eigenvalues --    1.75705   1.75708   1.76540   1.76633   1.76835
 Alpha virt. eigenvalues --    1.77157   1.77374   1.77796   1.78670   1.79541
 Alpha virt. eigenvalues --    1.79684   1.79868   1.80414   1.81386   1.81819
 Alpha virt. eigenvalues --    1.82004   1.83322   1.84210   1.84947   1.85453
 Alpha virt. eigenvalues --    1.85540   1.85932   1.86027   1.86648   1.87012
 Alpha virt. eigenvalues --    1.87410   1.87587   1.87668   1.88441   1.89563
 Alpha virt. eigenvalues --    1.89616   1.89862   1.90369   1.91616   1.91853
 Alpha virt. eigenvalues --    1.92302   1.92363   1.93751   1.94046   1.94464
 Alpha virt. eigenvalues --    1.94651   1.94729   1.95524   1.95839   1.96019
 Alpha virt. eigenvalues --    1.97156   1.97649   1.98018   1.98503   1.99193
 Alpha virt. eigenvalues --    1.99220   2.00001   2.00106   2.00461   2.00480
 Alpha virt. eigenvalues --    2.00996   2.01055   2.01176   2.01635   2.01658
 Alpha virt. eigenvalues --    2.03166   2.03770   2.04239   2.04430   2.04660
 Alpha virt. eigenvalues --    2.05207   2.05411   2.06137   2.06335   2.06628
 Alpha virt. eigenvalues --    2.07364   2.07881   2.07995   2.09206   2.09528
 Alpha virt. eigenvalues --    2.09642   2.09906   2.09947   2.10386   2.11007
 Alpha virt. eigenvalues --    2.11039   2.11778   2.12028   2.12812   2.13183
 Alpha virt. eigenvalues --    2.13696   2.14017   2.14118   2.15350   2.15569
 Alpha virt. eigenvalues --    2.15849   2.16223   2.16239   2.16512   2.16845
 Alpha virt. eigenvalues --    2.17414   2.17449   2.18766   2.18874   2.19713
 Alpha virt. eigenvalues --    2.19826   2.20276   2.20448   2.21079   2.21414
 Alpha virt. eigenvalues --    2.22133   2.22388   2.22722   2.23196   2.23288
 Alpha virt. eigenvalues --    2.24037   2.24418   2.24908   2.24989   2.25341
 Alpha virt. eigenvalues --    2.25888   2.25925   2.26369   2.26430   2.27598
 Alpha virt. eigenvalues --    2.27663   2.28160   2.28587   2.29299   2.29625
 Alpha virt. eigenvalues --    2.29711   2.30378   2.30767   2.31076   2.31375
 Alpha virt. eigenvalues --    2.31515   2.32272   2.32299   2.32687   2.32761
 Alpha virt. eigenvalues --    2.33575   2.34998   2.35269   2.35741   2.35938
 Alpha virt. eigenvalues --    2.36363   2.37202   2.37266   2.37428   2.37673
 Alpha virt. eigenvalues --    2.37862   2.38935   2.39075   2.39614   2.39836
 Alpha virt. eigenvalues --    2.40109   2.40737   2.41057   2.41391   2.41937
 Alpha virt. eigenvalues --    2.43026   2.43049   2.43129   2.43790   2.44069
 Alpha virt. eigenvalues --    2.44110   2.44231   2.45008   2.45166   2.45743
 Alpha virt. eigenvalues --    2.46041   2.46689   2.47286   2.47858   2.48563
 Alpha virt. eigenvalues --    2.48635   2.49024   2.49484   2.49791   2.49939
 Alpha virt. eigenvalues --    2.50581   2.50730   2.52011   2.52342   2.52844
 Alpha virt. eigenvalues --    2.53545   2.53851   2.54256   2.55065   2.55141
 Alpha virt. eigenvalues --    2.55667   2.56193   2.56530   2.56885   2.57592
 Alpha virt. eigenvalues --    2.58212   2.58235   2.58649   2.59353   2.59863
 Alpha virt. eigenvalues --    2.60311   2.61368   2.61421   2.62095   2.62830
 Alpha virt. eigenvalues --    2.62896   2.63297   2.63524   2.64452   2.65779
 Alpha virt. eigenvalues --    2.66037   2.68090   2.68113   2.68747   2.69423
 Alpha virt. eigenvalues --    2.69602   2.70278   2.71721   2.72393   2.73625
 Alpha virt. eigenvalues --    2.73930   2.75290   2.76225   2.76575   2.76766
 Alpha virt. eigenvalues --    2.77274   2.78031   2.78713   2.79810   2.80026
 Alpha virt. eigenvalues --    2.80409   2.81650   2.81792   2.82106   2.83691
 Alpha virt. eigenvalues --    2.84191   2.84439   2.86360   2.86617   2.87184
 Alpha virt. eigenvalues --    2.87219   2.87985   2.88766   2.90118   2.91622
 Alpha virt. eigenvalues --    2.91974   2.92486   2.92676   2.93393   2.93474
 Alpha virt. eigenvalues --    2.94252   2.94751   2.95290   2.95773   2.96167
 Alpha virt. eigenvalues --    2.96367   2.96727   2.97222   2.97939   2.98107
 Alpha virt. eigenvalues --    2.98171   2.98751   2.99464   2.99891   3.00202
 Alpha virt. eigenvalues --    3.00515   3.00755   3.01699   3.01757   3.02876
 Alpha virt. eigenvalues --    3.03198   3.03453   3.04002   3.04356   3.04755
 Alpha virt. eigenvalues --    3.05310   3.05496   3.06015   3.06079   3.06330
 Alpha virt. eigenvalues --    3.07074   3.07388   3.07783   3.08404   3.08430
 Alpha virt. eigenvalues --    3.08992   3.09165   3.09629   3.09632   3.09945
 Alpha virt. eigenvalues --    3.10176   3.11107   3.11136   3.11459   3.11843
 Alpha virt. eigenvalues --    3.12150   3.12466   3.12501   3.13331   3.13608
 Alpha virt. eigenvalues --    3.14204   3.14568   3.14912   3.15508   3.15701
 Alpha virt. eigenvalues --    3.16098   3.16224   3.16835   3.17045   3.17349
 Alpha virt. eigenvalues --    3.18121   3.18124   3.18732   3.18733   3.20042
 Alpha virt. eigenvalues --    3.21026   3.22150   3.22728   3.23839   3.24742
 Alpha virt. eigenvalues --    3.24928   3.26680   3.28584   3.30140   3.30621
 Alpha virt. eigenvalues --    3.32273   3.33105   3.34665   3.39504   3.39729
 Alpha virt. eigenvalues --    3.40911   3.41579   3.43496   3.43863   3.44534
 Alpha virt. eigenvalues --    3.45899   3.46180   3.46199   3.49152   3.50156
 Alpha virt. eigenvalues --    3.50833   3.51806   3.52625   3.52869   3.54617
 Alpha virt. eigenvalues --    3.54686   3.54898   3.55664   3.57843   3.59410
 Alpha virt. eigenvalues --    3.59968   3.60290   3.61355   3.61797   3.63863
 Alpha virt. eigenvalues --    3.65528   3.65618   3.66139   3.67511   3.68060
 Alpha virt. eigenvalues --    3.68101   3.70101   3.71105   3.71450   3.71759
 Alpha virt. eigenvalues --    3.74929   3.75461   3.75708   3.78701   3.79480
 Alpha virt. eigenvalues --    3.80449   3.81212   3.82629   3.82949   3.83899
 Alpha virt. eigenvalues --    3.83929   3.85811   3.86079   3.86968   3.87893
 Alpha virt. eigenvalues --    3.88055   3.88247   3.89336   3.89589   3.89875
 Alpha virt. eigenvalues --    3.91679   3.91918   3.95089   4.01329   4.05262
 Alpha virt. eigenvalues --    4.19026   4.21170   4.21792   4.23720   4.24513
 Alpha virt. eigenvalues --    4.27596   4.32537   4.32972   4.34019   4.35476
 Alpha virt. eigenvalues --    4.36389   4.40169   4.40975   4.44682   4.49002
 Alpha virt. eigenvalues --    4.49717   4.51118   4.53475   4.53688   4.56291
 Alpha virt. eigenvalues --    4.60770   4.62759   4.65107   4.68173   4.77976
 Alpha virt. eigenvalues --    4.78126   4.81080   4.83942   4.84070   4.90334
 Alpha virt. eigenvalues --    4.94516   4.99140   5.01145   5.04090   9.47950
 Alpha virt. eigenvalues --    9.55417   9.55440   9.60726   9.60764   9.64769
 Alpha virt. eigenvalues --    9.66257   9.67038   9.68900   9.74532  23.00286
 Alpha virt. eigenvalues --   23.20040  23.22657  23.22915  23.41494  23.43226
 Alpha virt. eigenvalues --   23.43745  23.50704  23.50873  23.59605  23.64307
 Alpha virt. eigenvalues --   23.64354  23.67639  23.68490  23.69330  23.70542
 Alpha virt. eigenvalues --   23.71143  23.72123  23.74313  23.75744  23.76516
 Alpha virt. eigenvalues --   23.76851  23.79255  23.81467  23.81559  23.82364
 Alpha virt. eigenvalues --   23.84564  23.84645  23.86451  23.87492  23.89204
 Alpha virt. eigenvalues --   23.90708  23.91426  23.92381  23.94583  23.95227
 Alpha virt. eigenvalues --   23.95492  23.96039  23.96464  23.96635  23.97022
 Alpha virt. eigenvalues --   23.97837  23.98274  23.99417  23.99653  24.00482
 Alpha virt. eigenvalues --   24.01462  24.01716  24.03642  24.04475  24.04865
 Alpha virt. eigenvalues --   24.05062  24.06846  24.07719  24.07993  24.08361
 Alpha virt. eigenvalues --   24.08942  24.09888  24.10084  24.10701  24.11626
 Alpha virt. eigenvalues --   24.13276  24.13621  24.14869  24.15664  24.21328
 Alpha virt. eigenvalues --   25.47305  25.56753  25.57886  25.58898  25.62420
 Alpha virt. eigenvalues --   25.64677  25.70757  25.71190  25.74126  25.74484
 Alpha virt. eigenvalues --   25.76763  25.81415  25.85349  25.86295  25.86862
 Alpha virt. eigenvalues --   25.88318  25.91981  25.99328  25.99869  26.08026
 Alpha virt. eigenvalues --   26.09542  26.20858  26.21929  26.28884  26.30858
 Alpha virt. eigenvalues --   26.39514  26.40353  26.50046  26.53544  26.74807
 Alpha virt. eigenvalues --  215.42236 215.50789 215.50797 215.56804 215.56848
 Alpha virt. eigenvalues --  215.61413 215.63174 215.63959 215.66364 215.72551
          Condensed to atoms (all electrons):
 Mulliken charges:
               1
     1  C   -0.277435
     2  C   -0.277435
     3  C   -0.461445
     4  C   -0.461444
     5  C    0.378563
     6  C    0.182681
     7  C    0.081475
     8  C    0.075261
     9  C    0.063606
    10  C    0.081476
    11  C    0.063611
    12  C    0.182679
    13  C    0.075264
    14  C    0.233200
    15  C    0.370760
    16  C   -0.676290
    17  C    0.233198
    18  C   -0.676293
    19  C    0.165376
    20  C    0.086518
    21  C    0.121455
    22  C   -0.011568
    23  C   -0.004220
    24  C    0.003434
    25  C   -0.011573
    26  C    0.003436
    27  C    0.086513
    28  C   -0.004218
    29  C    0.165370
    30  C    0.121466
    31  C   -0.685372
    32  C    0.192868
    33  C    0.192872
    34  C    0.189319
    35  C   -0.685374
    36  C    0.189316
    37  C    0.181362
    38  C   -0.653380
    39  C    0.186528
    40  C    0.025623
    41  C    0.001608
    42  C    0.141155
    43  C    0.005965
    44  C    0.001608
    45  C    0.025620
    46  C    0.005964
    47  C   -0.653383
    48  C    0.141163
    49  C    0.181361
    50  C    0.186531
    51  C    0.042743
    52  C    0.042744
    53  C    0.028950
    54  C    0.028949
    55  C    0.000815
    56  C    0.000815
    57  C    0.030448
    58  C    0.039563
    59  C   -0.001142
    60  C    0.002774
    61  C   -0.001140
    62  C    0.039559
    63  C    0.030448
    64  C    0.002774
    65  C    0.007966
    66  C    0.000406
    67  Cl   0.082762
    68  Cl   0.082761
    69  Cl   0.081894
    70  Cl   0.061571
    71  Cl   0.081894
    72  Cl   0.061571
    73  Cl   0.051749
    74  Cl   0.051748
    75  Cl   0.031306
    76  Cl   0.031294
 Sum of Mulliken charges =  -0.00000
 Mulliken charges with hydrogens summed into heavy atoms:
               1
     1  C   -0.277435
     2  C   -0.277435
     3  C   -0.461445
     4  C   -0.461444
     5  C    0.378563
     6  C    0.182681
     7  C    0.081475
     8  C    0.075261
     9  C    0.063606
    10  C    0.081476
    11  C    0.063611
    12  C    0.182679
    13  C    0.075264
    14  C    0.233200
    15  C    0.370760
    16  C   -0.676290
    17  C    0.233198
    18  C   -0.676293
    19  C    0.165376
    20  C    0.086518
    21  C    0.121455
    22  C   -0.011568
    23  C   -0.004220
    24  C    0.003434
    25  C   -0.011573
    26  C    0.003436
    27  C    0.086513
    28  C   -0.004218
    29  C    0.165370
    30  C    0.121466
    31  C   -0.685372
    32  C    0.192868
    33  C    0.192872
    34  C    0.189319
    35  C   -0.685374
    36  C    0.189316
    37  C    0.181362
    38  C   -0.653380
    39  C    0.186528
    40  C    0.025623
    41  C    0.001608
    42  C    0.141155
    43  C    0.005965
    44  C    0.001608
    45  C    0.025620
    46  C    0.005964
    47  C   -0.653383
    48  C    0.141163
    49  C    0.181361
    50  C    0.186531
    51  C    0.042743
    52  C    0.042744
    53  C    0.028950
    54  C    0.028949
    55  C    0.000815
    56  C    0.000815
    57  C    0.030448
    58  C    0.039563
    59  C   -0.001142
    60  C    0.002774
    61  C   -0.001140
    62  C    0.039559
    63  C    0.030448
    64  C    0.002774
    65  C    0.007966
    66  C    0.000406
    67  Cl   0.082762
    68  Cl   0.082761
    69  Cl   0.081894
    70  Cl   0.061571
    71  Cl   0.081894
    72  Cl   0.061571
    73  Cl   0.051749
    74  Cl   0.051748
    75  Cl   0.031306
    76  Cl   0.031294
 Electronic spatial extent (au):  <R**2>=          40189.0540
 Charge=             -0.0000 electrons
 Dipole moment (field-independent basis, Debye):
    X=              4.3298    Y=              0.0002    Z=             -2.6032  Tot=              5.0521
 Quadrupole moment (field-independent basis, Debye-Ang):
   XX=           -506.2300   YY=           -525.3480   ZZ=           -501.4301
   XY=              0.0003   XZ=              2.9700   YZ=             -0.0002
 Traceless Quadrupole moment (field-independent basis, Debye-Ang):
   XX=              4.7727   YY=            -14.3453   ZZ=              9.5726
   XY=              0.0003   XZ=              2.9700   YZ=             -0.0002
 Octapole moment (field-independent basis, Debye-Ang**2):
  XXX=            -84.1984  YYY=              0.0075  ZZZ=             21.5899  XYY=            -87.2836
  XXY=              0.0007  XXZ=             21.9511  XZZ=            -25.7923  YZZ=             -0.0003
  YYZ=            -11.3095  XYZ=             -0.0003
 Hexadecapole moment (field-independent basis, Debye-Ang**3):
 XXXX=         -24072.1552 YYYY=         -18510.6251 ZZZZ=         -15392.7319 XXXY=              0.0006
 XXXZ=             18.6730 YYYX=              0.0162 YYYZ=             -0.0053 ZZZX=             81.4581
 ZZZY=             -0.0003 XXYY=          -7066.0829 XXZZ=          -6580.6781 YYZZ=          -5635.5422
 XXYZ=             -0.0011 YYXZ=              8.2886 ZZXY=             -0.0008
 N-N= 1.690447535936D+04 E-N=-5.057176030960D+04  KE= 7.096712326883D+03
 No NMR shielding tensors so no spin-rotation constants.
 Leave Link  601 at Fri Jul 15 21:04:45 2022, MaxMem=  1342177280 cpu:              66.0 elap:               1.7
 (Enter /home/mkliu/g16/l9999.exe)
 1\1\GINC-NODE03\FOpt\RB3LYP\6-311G(d,p)\C66Cl10\MKLIU\15-Jul-2022\0\\#
 P opt b3lyp/6-311G(d, p) empiricaldispersion=GD3\\force\\0,1\C,-1.3453
 535893,1.9009265713,-3.9463842978\C,0.2142579984,2.2380163044,-3.99397
 0836\C,0.9686005934,0.8672758862,-4.2806572116\C,-1.4821919071,0.33756
 78682,-4.2058788021\C,-0.0844738776,-0.18323256,-4.1609100421\C,-2.213
 0314363,-0.1842595627,-2.982770508\C,-1.9234357739,2.0633957933,-2.565
 1814925\C,-2.6178937317,0.897907278,-2.1661590393\C,-1.4387939476,2.93
 87125653,-1.5914334853\C,0.7531760708,2.6419157839,-2.6468548919\C,0.0
 081676668,3.2514565877,-1.6355839037\C,1.9195203053,0.7089412681,-3.10
 88633823\C,1.8886076079,1.8719321371,-2.3036637096\C,2.2577620436,-0.5
 010404679,-2.5521061709\C,0.1889408386,-1.3768662637,-3.6553635305\C,1
 .5798966465,-1.7426228575,-3.1504410062\C,-1.98881868,-1.4188876106,-2
 .4225327875\C,-0.8951661339,-2.2775764872,-3.074920086\C,-2.4562456257
 ,-1.6788193545,-1.0823871582\C,-3.0444800911,0.6832777625,-0.832230085
 3\C,-3.032851232,-0.6620269012,-0.3179108188\C,-2.0621395488,2.8618686
 198,-0.3172035059\C,-2.9303748545,1.7977681834,0.0304113114\C,-1.38579
 61404,3.2867473908,0.9055652067\C,0.6807414331,3.4547050041,-0.4008959
 937\C,-0.0381688024,3.5780207959,0.8644458697\C,2.4426484944,1.8692493
 134,-0.9996546396\C,1.9293149831,2.848126734,-0.1178677612\C,2.8679869
 55,-0.5280529717,-1.2448418387\C,3.0171319752,0.6456026413,-0.50251049
 64\C,3.1490451411,-1.8913173845,-0.6063535942\C,1.2543633427,-2.729881
 308,-2.0743138382\C,-0.1292013453,-3.0289206664,-2.0320978101\C,2.0306
 526075,-2.8639078875,-0.9530167619\C,-2.1120415639,-3.0284336421,-0.44
 58229363\C,-0.714261608,-3.4571809817,-0.8692604018\C,-1.9509072607,-2
 .9263954944,1.0637439003\C,-3.387975103,-0.861908358,1.1560583132\C,-2
 .5491082428,-1.9469881792,1.8014502294\C,-2.881115289,1.6063604492,1.4
 735400401\C,-1.9255788967,2.5347584582,2.0185914323\C,-3.0238394941,0.
 3517185637,2.0085131372\C,-1.1102545483,2.1518996065,3.0839141626\C,0.
 8276292671,3.1298280543,1.934583481\C,2.0475712731,2.6716302413,1.3231
 541587\C,0.3064936035,2.4581103739,3.0406848341\C,3.5082728961,0.62863
 09092,0.9456413479\C,2.7261651015,1.5945087813,1.8330687331\C,3.048396
 4396,-1.8458608471,0.9112041016\C,3.2310338235,-0.6976823131,1.6250850
 099\C,1.4630189779,-3.4001476916,0.2220669935\C,0.0914483826,-3.696592
 9094,0.2639173552\C,-0.6689553036,-3.4245298053,1.4625605371\C,2.11181
 81333,-2.8235031532,1.3777122129\C,-0.027450348,-2.9440521527,2.601136
 3038\C,1.3967315315,-2.6362341774,2.5576822257\C,-1.9173230988,-1.4504
 876171,2.9869871444\C,-2.2131048835,-0.0412090506,3.1152778737\C,-1.26
 47707359,0.8383576635,3.6564674614\C,-0.6728001975,-1.9407989982,3.396
 972809\C,1.0222926387,1.3326756671,3.5866815675\C,2.2157691712,0.91603
 57524,2.9801436683\C,2.5209092234,-0.4912206667,2.8515682101\C,1.61577
 703,-1.4461520428,3.3271422026\C,0.0521768546,0.3366494066,4.000283397
 5\C,0.3409567091,-1.0172352295,3.8742858627\Cl,-2.360537647,2.92005465
 37,-5.0388330895\Cl,0.6529551989,3.5713853396,-5.1307869491\Cl,1.82917
 43188,0.7545152765,-5.871838192\Cl,2.6132926265,-2.5185262399,-4.46505
 24197\Cl,-2.3106415936,-0.1402502704,-5.74552836\Cl,-1.590982053,-3.42
 72248186,-4.3367771637\Cl,4.8015424342,-2.49175118,-1.1619479481\Cl,-3
 .3988300876,-4.2641727743,-0.9117378313\Cl,-5.2026463997,-1.2316795593
 ,1.2822583998\Cl,5.3178355702,1.0421789566,0.9612456688\\Version=ES64L
 -G16RevA.03\State=1-A\HF=-7117.7010363\RMSD=4.447e-09\RMSF=3.625e-05\D
 ipole=-0.1054904,0.7473294,1.8387945\Quadrupole=-9.8148741,6.8606232,2
 .954251,-3.8322061,0.7279567,-1.4465722\PG=C01 [X(C66Cl10)]\\@


 PENOTUS DIED A HUNDRED YEARS OLD WANTING BUT TWO...
 AND HE USED TO SAY BEFORE HE DIED, HAVING SPENT HIS
 WHOLE LIFE IN VAINLY SEARCHING AFTER THE PHILOSOPHER'S
 STONE, THAT IF HE HAD A MORTAL ENEMY HE DID NOT DARE
 TO ENCOUNTER OPENLY, HE WOULD ADVISE HIM ABOVE ALL
 THINGS TO GIVE HIMSELF UP TO THE STUDY AND PRACTICE
 OF ALCHEMY.  --  NICOLAS LEMERY, M.D.
 "A COURSE OF CHYMISTRY", WALTER KETTILBY, LONDON, 1686
 Job cpu time:       2 days 14 hours 57 minutes 18.7 seconds.
 Elapsed time:       0 days  1 hours 18 minutes 53.6 seconds.
 File lengths (MBytes):  RWF=   1283 Int=      0 D2E=      0 Chk=    157 Scr=      1
 Normal termination of Gaussian 16 at Fri Jul 15 21:04:48 2022.
