 Entering Gaussian System, Link 0=g16
 Input=1y2p0ij32e8e8_addon_1.gjf
 Output=1y2p0ij32e8e8_addon_1.log
 Initial command:
 /home/mkliu/g16/l1.exe "/data/scratch/Gau-30040.inp" -scrdir="/data/scratch/"
 Entering Link 1 = /home/mkliu/g16/l1.exe PID=     30041.
  
 Copyright (c) 1988,1990,1992,1993,1995,1998,2003,2009,2016,
            Gaussian, Inc.  All Rights Reserved.
  
 This is part of the Gaussian(R) 16 program.  It is based on
 the Gaussian(R) 09 system (copyright 2009, Gaussian, Inc.),
 the Gaussian(R) 03 system (copyright 2003, Gaussian, Inc.),
 the Gaussian(R) 98 system (copyright 1998, Gaussian, Inc.),
 the Gaussian(R) 94 system (copyright 1995, Gaussian, Inc.),
 the Gaussian 92(TM) system (copyright 1992, Gaussian, Inc.),
 the Gaussian 90(TM) system (copyright 1990, Gaussian, Inc.),
 the Gaussian 88(TM) system (copyright 1988, Gaussian, Inc.),
 the Gaussian 86(TM) system (copyright 1986, Carnegie Mellon
 University), and the Gaussian 82(TM) system (copyright 1983,
 Carnegie Mellon University). Gaussian is a federally registered
 trademark of Gaussian, Inc.
  
 This software contains proprietary and confidential information,
 including trade secrets, belonging to Gaussian, Inc.
  
 This software is provided under written license and may be
 used, copied, transmitted, or stored only in accord with that
 written license.
  
 The following legend is applicable only to US Government
 contracts under FAR:
  
                    RESTRICTED RIGHTS LEGEND
  
 Use, reproduction and disclosure by the US Government is
 subject to restrictions as set forth in subparagraphs (a)
 and (c) of the Commercial Computer Software - Restricted
 Rights clause in FAR 52.227-19.
  
 Gaussian, Inc.
 340 Quinnipiac St., Bldg. 40, Wallingford CT 06492
  
  
 ---------------------------------------------------------------
 Warning -- This program may not be used in any manner that
 competes with the business of Gaussian, Inc. or will provide
 assistance to any competitor of Gaussian, Inc.  The licensee
 of this program is prohibited from giving any competitor of
 Gaussian, Inc. access to this program.  By using this program,
 the user acknowledges that Gaussian, Inc. is engaged in the
 business of creating and licensing software in the field of
 computational chemistry and represents and warrants to the
 licensee that it is not a competitor of Gaussian, Inc. and that
 it will not use this program in any manner prohibited above.
 ---------------------------------------------------------------
  

 Cite this work as:
 Gaussian 16, Revision A.03,
 M. J. Frisch, G. W. Trucks, H. B. Schlegel, G. E. Scuseria, 
 M. A. Robb, J. R. Cheeseman, G. Scalmani, V. Barone, 
 G. A. Petersson, H. Nakatsuji, X. Li, M. Caricato, A. V. Marenich, 
 J. Bloino, B. G. Janesko, R. Gomperts, B. Mennucci, H. P. Hratchian, 
 J. V. Ortiz, A. F. Izmaylov, J. L. Sonnenberg, D. Williams-Young, 
 F. Ding, F. Lipparini, F. Egidi, J. Goings, B. Peng, A. Petrone, 
 T. Henderson, D. Ranasinghe, V. G. Zakrzewski, J. Gao, N. Rega, 
 G. Zheng, W. Liang, M. Hada, M. Ehara, K. Toyota, R. Fukuda, 
 J. Hasegawa, M. Ishida, T. Nakajima, Y. Honda, O. Kitao, H. Nakai, 
 T. Vreven, K. Throssell, J. A. Montgomery, Jr., J. E. Peralta, 
 F. Ogliaro, M. J. Bearpark, J. J. Heyd, E. N. Brothers, K. N. Kudin, 
 V. N. Staroverov, T. A. Keith, R. Kobayashi, J. Normand, 
 K. Raghavachari, A. P. Rendell, J. C. Burant, S. S. Iyengar, 
 J. Tomasi, M. Cossi, J. M. Millam, M. Klene, C. Adamo, R. Cammi, 
 J. W. Ochterski, R. L. Martin, K. Morokuma, O. Farkas, 
 J. B. Foresman, and D. J. Fox, Gaussian, Inc., Wallingford CT, 2016.
 
 ******************************************
 Gaussian 16:  ES64L-G16RevA.03 25-Dec-2016
                15-Jul-2022 
 ******************************************
 %mem=10GB
 %chk=1y2p0ij32e8e8_addon_1.chk
 %nprocshared=48
 Will use up to   48 processors via shared memory.
 -------------------------------------------------
 #P opt b3lyp/6-311G(d, p) empiricaldispersion=GD3
 -------------------------------------------------
 1/18=20,19=15,26=3,38=1/1,3;
 2/9=110,12=2,17=6,18=5,40=1/2;
 3/5=4,6=6,7=101,11=2,25=1,30=1,71=1,74=-5,124=31/1,2,3;
 4//1;
 5/5=2,38=5/2;
 6/7=2,8=2,9=2,10=2,28=1/1;
 7//1,2,3,16;
 1/18=20,19=15,26=3/3(2);
 2/9=110/2;
 99//99;
 2/9=110/2;
 3/5=4,6=6,7=101,11=2,25=1,30=1,71=1,74=-5,124=31/1,2,3;
 4/5=5,16=3,69=1/1;
 5/5=2,38=5/2;
 7//1,2,3,16;
 1/18=20,19=15,26=3/3(-5);
 2/9=110/2;
 6/7=2,8=2,9=2,10=2,19=2,28=1/1;
 99/9=1/99;
 Leave Link    1 at Fri Jul 15 03:27:50 2022, MaxMem=  1342177280 cpu:               2.1 elap:               0.1
 (Enter /home/mkliu/g16/l101.exe)
 -----
 force
 -----
 Symbolic Z-matrix:
 Charge =  0 Multiplicity = 2
 C                    -1.21498   1.78085  -3.69459 
 C                     0.13368   2.08847  -3.77836 
 C                     0.94371   0.89962  -4.26225 
 C                    -1.36039   0.36537  -3.95932 
 C                    -0.09787  -0.18015  -4.20227 
 C                    -2.23187  -0.16833  -2.99204 
 C                    -1.99148   2.10893  -2.56217 
 C                    -2.68552   0.91297  -2.16906 
 C                    -1.45266   2.95323  -1.56294 
 C                     0.74251   2.68972  -2.66932 
 C                    -0.03741   3.25058  -1.62202 
 C                     1.9128    0.73227  -3.11919 
 C                     1.89094   1.87626  -2.32108 
 C                     2.24892  -0.53155  -2.5911 
 C                     0.19127  -1.3967   -3.6485 
 C                     1.46364  -1.64335  -3.00878 
 C                    -1.98637  -1.44912  -2.43447 
 C                    -0.82173  -2.10004  -2.90341 
 C                    -2.48759  -1.73742  -1.10617 
 C                    -3.08653   0.68495  -0.84566 
 C                    -3.07905  -0.67098  -0.3158 
 C                    -2.06594   2.86486  -0.30375 
 C                    -2.93414   1.77982   0.02905 
 C                    -1.40769   3.28806   0.8977 
 C                     0.63655   3.44629  -0.40689 
 C                    -0.0528    3.57579   0.84225 
 C                     2.45256   1.87897  -1.01752 
 C                     1.9024    2.82481  -0.14214 
 C                     2.88946  -0.55814  -1.28905 
 C                     3.03869   0.66113  -0.51805 
 C                     2.88296  -1.77773  -0.59218 
 C                     1.27342  -2.7477   -2.13733 
 C                    -0.14253  -3.04471  -2.07903 
 C                     2.02805  -2.86313  -0.98745 
 C                    -1.92408  -2.83283  -0.43088 
 C                    -0.7115   -3.45815  -0.89678 
 C                    -1.90323  -2.90793   0.99757 
 C                    -3.1206   -0.80612   1.07506 
 C                    -2.51015  -1.91964   1.74311 
 C                    -2.88354   1.59621   1.44463 
 C                    -1.93754   2.53175   1.99762 
 C                    -3.00115   0.32547   1.96209 
 C                    -1.10915   2.13115   3.03154 
 C                     0.81627   3.12676   1.89766 
 C                     2.02531   2.66314   1.2734 
 C                     0.29978   2.43794   2.98016 
 C                     3.23285   0.57423   0.87429 
 C                     2.70293   1.56785   1.76855 
 C                     2.99102  -1.83876   0.83391 
 C                     3.18156  -0.6798    1.55802 
 C                     1.47353  -3.47312   0.19194 
 C                     0.11694  -3.76786   0.24063 
 C                    -0.64263  -3.46196   1.41655 
 C                     2.10868  -2.86463   1.32815 
 C                    -0.0141   -2.9464    2.54059 
 C                     1.39238  -2.64064   2.49219 
 C                    -1.90849  -1.45493   2.96133 
 C                    -2.2106   -0.05803   3.09711 
 C                    -1.25697   0.81887   3.59963 
 C                    -0.6616   -1.93609   3.33165 
 C                     1.01995   1.31526   3.52146 
 C                     2.2163    0.9078    2.94904 
 C                     2.515    -0.49145   2.81809 
 C                     1.60969  -1.44166   3.26009 
 C                     0.05474   0.3285    3.93357 
 C                     0.34499  -1.02175   3.80438 
 Cl                    1.79415   0.99542  -5.82885 
 
 ITRead=  0  0  0  0  0  0  0  0  0  0  0  0  0  0  0  0  0  0  0  0
 ITRead=  0  0  0  0  0  0  0  0  0  0  0  0  0  0  0  0  0  0  0  0
 ITRead=  0  0  0  0  0  0  0  0  0  0  0  0  0  0  0  0  0  0  0  0
 ITRead=  0  0  0  0  0  0  0
 MicOpt= -1 -1 -1 -1 -1 -1 -1 -1 -1 -1 -1 -1 -1 -1 -1 -1 -1 -1 -1 -1
 MicOpt= -1 -1 -1 -1 -1 -1 -1 -1 -1 -1 -1 -1 -1 -1 -1 -1 -1 -1 -1 -1
 MicOpt= -1 -1 -1 -1 -1 -1 -1 -1 -1 -1 -1 -1 -1 -1 -1 -1 -1 -1 -1 -1
 MicOpt= -1 -1 -1 -1 -1 -1 -1
 NAtoms=     67 NQM=       67 NQMF=       0 NMMI=      0 NMMIF=      0
                NMic=       0 NMicF=      0.
                    Isotopes and Nuclear Properties:
 (Nuclear quadrupole moments (NQMom) in fm**2, nuclear magnetic moments (NMagM)
  in nuclear magnetons)

  Atom         1           2           3           4           5           6           7           8           9          10
 IAtWgt=          12          12          12          12          12          12          12          12          12          12
 AtmWgt=  12.0000000  12.0000000  12.0000000  12.0000000  12.0000000  12.0000000  12.0000000  12.0000000  12.0000000  12.0000000
 NucSpn=           0           0           0           0           0           0           0           0           0           0
 AtZEff=  -0.0000000  -0.0000000  -0.0000000  -0.0000000  -0.0000000  -0.0000000  -0.0000000  -0.0000000  -0.0000000  -0.0000000
 NQMom=    0.0000000   0.0000000   0.0000000   0.0000000   0.0000000   0.0000000   0.0000000   0.0000000   0.0000000   0.0000000
 NMagM=    0.0000000   0.0000000   0.0000000   0.0000000   0.0000000   0.0000000   0.0000000   0.0000000   0.0000000   0.0000000
 AtZNuc=   6.0000000   6.0000000   6.0000000   6.0000000   6.0000000   6.0000000   6.0000000   6.0000000   6.0000000   6.0000000

  Atom        11          12          13          14          15          16          17          18          19          20
 IAtWgt=          12          12          12          12          12          12          12          12          12          12
 AtmWgt=  12.0000000  12.0000000  12.0000000  12.0000000  12.0000000  12.0000000  12.0000000  12.0000000  12.0000000  12.0000000
 NucSpn=           0           0           0           0           0           0           0           0           0           0
 AtZEff=  -0.0000000  -0.0000000  -0.0000000  -0.0000000  -0.0000000  -0.0000000  -0.0000000  -0.0000000  -0.0000000  -0.0000000
 NQMom=    0.0000000   0.0000000   0.0000000   0.0000000   0.0000000   0.0000000   0.0000000   0.0000000   0.0000000   0.0000000
 NMagM=    0.0000000   0.0000000   0.0000000   0.0000000   0.0000000   0.0000000   0.0000000   0.0000000   0.0000000   0.0000000
 AtZNuc=   6.0000000   6.0000000   6.0000000   6.0000000   6.0000000   6.0000000   6.0000000   6.0000000   6.0000000   6.0000000

  Atom        21          22          23          24          25          26          27          28          29          30
 IAtWgt=          12          12          12          12          12          12          12          12          12          12
 AtmWgt=  12.0000000  12.0000000  12.0000000  12.0000000  12.0000000  12.0000000  12.0000000  12.0000000  12.0000000  12.0000000
 NucSpn=           0           0           0           0           0           0           0           0           0           0
 AtZEff=  -0.0000000  -0.0000000  -0.0000000  -0.0000000  -0.0000000  -0.0000000  -0.0000000  -0.0000000  -0.0000000  -0.0000000
 NQMom=    0.0000000   0.0000000   0.0000000   0.0000000   0.0000000   0.0000000   0.0000000   0.0000000   0.0000000   0.0000000
 NMagM=    0.0000000   0.0000000   0.0000000   0.0000000   0.0000000   0.0000000   0.0000000   0.0000000   0.0000000   0.0000000
 AtZNuc=   6.0000000   6.0000000   6.0000000   6.0000000   6.0000000   6.0000000   6.0000000   6.0000000   6.0000000   6.0000000

  Atom        31          32          33          34          35          36          37          38          39          40
 IAtWgt=          12          12          12          12          12          12          12          12          12          12
 AtmWgt=  12.0000000  12.0000000  12.0000000  12.0000000  12.0000000  12.0000000  12.0000000  12.0000000  12.0000000  12.0000000
 NucSpn=           0           0           0           0           0           0           0           0           0           0
 AtZEff=  -0.0000000  -0.0000000  -0.0000000  -0.0000000  -0.0000000  -0.0000000  -0.0000000  -0.0000000  -0.0000000  -0.0000000
 NQMom=    0.0000000   0.0000000   0.0000000   0.0000000   0.0000000   0.0000000   0.0000000   0.0000000   0.0000000   0.0000000
 NMagM=    0.0000000   0.0000000   0.0000000   0.0000000   0.0000000   0.0000000   0.0000000   0.0000000   0.0000000   0.0000000
 AtZNuc=   6.0000000   6.0000000   6.0000000   6.0000000   6.0000000   6.0000000   6.0000000   6.0000000   6.0000000   6.0000000

  Atom        41          42          43          44          45          46          47          48          49          50
 IAtWgt=          12          12          12          12          12          12          12          12          12          12
 AtmWgt=  12.0000000  12.0000000  12.0000000  12.0000000  12.0000000  12.0000000  12.0000000  12.0000000  12.0000000  12.0000000
 NucSpn=           0           0           0           0           0           0           0           0           0           0
 AtZEff=  -0.0000000  -0.0000000  -0.0000000  -0.0000000  -0.0000000  -0.0000000  -0.0000000  -0.0000000  -0.0000000  -0.0000000
 NQMom=    0.0000000   0.0000000   0.0000000   0.0000000   0.0000000   0.0000000   0.0000000   0.0000000   0.0000000   0.0000000
 NMagM=    0.0000000   0.0000000   0.0000000   0.0000000   0.0000000   0.0000000   0.0000000   0.0000000   0.0000000   0.0000000
 AtZNuc=   6.0000000   6.0000000   6.0000000   6.0000000   6.0000000   6.0000000   6.0000000   6.0000000   6.0000000   6.0000000

  Atom        51          52          53          54          55          56          57          58          59          60
 IAtWgt=          12          12          12          12          12          12          12          12          12          12
 AtmWgt=  12.0000000  12.0000000  12.0000000  12.0000000  12.0000000  12.0000000  12.0000000  12.0000000  12.0000000  12.0000000
 NucSpn=           0           0           0           0           0           0           0           0           0           0
 AtZEff=  -0.0000000  -0.0000000  -0.0000000  -0.0000000  -0.0000000  -0.0000000  -0.0000000  -0.0000000  -0.0000000  -0.0000000
 NQMom=    0.0000000   0.0000000   0.0000000   0.0000000   0.0000000   0.0000000   0.0000000   0.0000000   0.0000000   0.0000000
 NMagM=    0.0000000   0.0000000   0.0000000   0.0000000   0.0000000   0.0000000   0.0000000   0.0000000   0.0000000   0.0000000
 AtZNuc=   6.0000000   6.0000000   6.0000000   6.0000000   6.0000000   6.0000000   6.0000000   6.0000000   6.0000000   6.0000000

  Atom        61          62          63          64          65          66          67
 IAtWgt=          12          12          12          12          12          12          35
 AtmWgt=  12.0000000  12.0000000  12.0000000  12.0000000  12.0000000  12.0000000  34.9688527
 NucSpn=           0           0           0           0           0           0           3
 AtZEff=  -0.0000000  -0.0000000  -0.0000000  -0.0000000  -0.0000000  -0.0000000  -0.0000000
 NQMom=    0.0000000   0.0000000   0.0000000   0.0000000   0.0000000   0.0000000  -8.1650000
 NMagM=    0.0000000   0.0000000   0.0000000   0.0000000   0.0000000   0.0000000   0.8218740
 AtZNuc=   6.0000000   6.0000000   6.0000000   6.0000000   6.0000000   6.0000000  17.0000000
 Leave Link  101 at Fri Jul 15 03:27:50 2022, MaxMem=  1342177280 cpu:              12.7 elap:               0.3
 (Enter /home/mkliu/g16/l103.exe)

 GradGradGradGradGradGradGradGradGradGradGradGradGradGradGradGradGradGrad
 Berny optimization.
 Initialization pass.
                           ----------------------------
                           !    Initial Parameters    !
                           ! (Angstroms and Degrees)  !
 --------------------------                            --------------------------
 ! Name  Definition              Value          Derivative Info.                !
 --------------------------------------------------------------------------------
 ! R1    R(1,2)                  1.3858         estimate D2E/DX2                !
 ! R2    R(1,4)                  1.4473         estimate D2E/DX2                !
 ! R3    R(1,7)                  1.4117         estimate D2E/DX2                !
 ! R4    R(2,3)                  1.5178         estimate D2E/DX2                !
 ! R5    R(2,10)                 1.4008         estimate D2E/DX2                !
 ! R6    R(3,5)                  1.5015         estimate D2E/DX2                !
 ! R7    R(3,12)                 1.5079         estimate D2E/DX2                !
 ! R8    R(3,67)                 1.7851         estimate D2E/DX2                !
 ! R9    R(4,5)                  1.3966         estimate D2E/DX2                !
 ! R10   R(4,6)                  1.4071         estimate D2E/DX2                !
 ! R11   R(5,15)                 1.3676         estimate D2E/DX2                !
 ! R12   R(6,8)                  1.4326         estimate D2E/DX2                !
 ! R13   R(6,17)                 1.4183         estimate D2E/DX2                !
 ! R14   R(7,8)                  1.4375         estimate D2E/DX2                !
 ! R15   R(7,9)                  1.4148         estimate D2E/DX2                !
 ! R16   R(8,20)                 1.4015         estimate D2E/DX2                !
 ! R17   R(9,11)                 1.4474         estimate D2E/DX2                !
 ! R18   R(9,22)                 1.4034         estimate D2E/DX2                !
 ! R19   R(10,11)                1.4212         estimate D2E/DX2                !
 ! R20   R(10,13)                1.4498         estimate D2E/DX2                !
 ! R21   R(11,25)                1.4032         estimate D2E/DX2                !
 ! R22   R(12,13)                1.3951         estimate D2E/DX2                !
 ! R23   R(12,14)                1.4104         estimate D2E/DX2                !
 ! R24   R(13,27)                1.4194         estimate D2E/DX2                !
 ! R25   R(14,16)                1.4238         estimate D2E/DX2                !
 ! R26   R(14,29)                1.4513         estimate D2E/DX2                !
 ! R27   R(15,16)                1.4453         estimate D2E/DX2                !
 ! R28   R(15,18)                1.4408         estimate D2E/DX2                !
 ! R29   R(16,32)                1.4196         estimate D2E/DX2                !
 ! R30   R(17,18)                1.4142         estimate D2E/DX2                !
 ! R31   R(17,19)                1.4487         estimate D2E/DX2                !
 ! R32   R(18,33)                1.4259         estimate D2E/DX2                !
 ! R33   R(19,21)                1.4532         estimate D2E/DX2                !
 ! R34   R(19,35)                1.4048         estimate D2E/DX2                !
 ! R35   R(20,21)                1.4558         estimate D2E/DX2                !
 ! R36   R(20,23)                1.4096         estimate D2E/DX2                !
 ! R37   R(21,38)                1.398          estimate D2E/DX2                !
 ! R38   R(22,23)                1.4289         estimate D2E/DX2                !
 ! R39   R(22,24)                1.4338         estimate D2E/DX2                !
 ! R40   R(23,40)                1.4283         estimate D2E/DX2                !
 ! R41   R(24,26)                1.3862         estimate D2E/DX2                !
 ! R42   R(24,41)                1.4362         estimate D2E/DX2                !
 ! R43   R(25,26)                1.4326         estimate D2E/DX2                !
 ! R44   R(25,28)                1.4348         estimate D2E/DX2                !
 ! R45   R(26,44)                1.439          estimate D2E/DX2                !
 ! R46   R(27,28)                1.4013         estimate D2E/DX2                !
 ! R47   R(27,30)                1.4409         estimate D2E/DX2                !
 ! R48   R(28,45)                1.43           estimate D2E/DX2                !
 ! R49   R(29,30)                1.4503         estimate D2E/DX2                !
 ! R50   R(29,31)                1.4047         estimate D2E/DX2                !
 ! R51   R(30,47)                1.4085         estimate D2E/DX2                !
 ! R52   R(31,34)                1.4371         estimate D2E/DX2                !
 ! R53   R(31,49)                1.4315         estimate D2E/DX2                !
 ! R54   R(32,33)                1.4479         estimate D2E/DX2                !
 ! R55   R(32,34)                1.3802         estimate D2E/DX2                !
 ! R56   R(33,36)                1.3756         estimate D2E/DX2                !
 ! R57   R(34,51)                1.4389         estimate D2E/DX2                !
 ! R58   R(35,36)                1.4417         estimate D2E/DX2                !
 ! R59   R(35,37)                1.4306         estimate D2E/DX2                !
 ! R60   R(36,52)                1.4408         estimate D2E/DX2                !
 ! R61   R(37,39)                1.3787         estimate D2E/DX2                !
 ! R62   R(37,53)                1.4393         estimate D2E/DX2                !
 ! R63   R(38,39)                1.4349         estimate D2E/DX2                !
 ! R64   R(38,42)                1.4428         estimate D2E/DX2                !
 ! R65   R(39,57)                1.436          estimate D2E/DX2                !
 ! R66   R(40,41)                1.4408         estimate D2E/DX2                !
 ! R67   R(40,42)                1.3771         estimate D2E/DX2                !
 ! R68   R(41,43)                1.3841         estimate D2E/DX2                !
 ! R69   R(42,58)                1.4354         estimate D2E/DX2                !
 ! R70   R(43,46)                1.4429         estimate D2E/DX2                !
 ! R71   R(43,59)                1.4376         estimate D2E/DX2                !
 ! R72   R(44,45)                1.4375         estimate D2E/DX2                !
 ! R73   R(44,46)                1.3831         estimate D2E/DX2                !
 ! R74   R(45,48)                1.3799         estimate D2E/DX2                !
 ! R75   R(46,61)                1.4395         estimate D2E/DX2                !
 ! R76   R(47,48)                1.438          estimate D2E/DX2                !
 ! R77   R(47,50)                1.4292         estimate D2E/DX2                !
 ! R78   R(48,62)                1.4374         estimate D2E/DX2                !
 ! R79   R(49,50)                1.3798         estimate D2E/DX2                !
 ! R80   R(49,54)                1.4406         estimate D2E/DX2                !
 ! R81   R(50,63)                1.4379         estimate D2E/DX2                !
 ! R82   R(51,52)                1.3891         estimate D2E/DX2                !
 ! R83   R(51,54)                1.4369         estimate D2E/DX2                !
 ! R84   R(52,53)                1.4329         estimate D2E/DX2                !
 ! R85   R(53,55)                1.3872         estimate D2E/DX2                !
 ! R86   R(54,56)                1.385          estimate D2E/DX2                !
 ! R87   R(55,56)                1.4401         estimate D2E/DX2                !
 ! R88   R(55,60)                1.4373         estimate D2E/DX2                !
 ! R89   R(56,64)                1.4403         estimate D2E/DX2                !
 ! R90   R(57,58)                1.4356         estimate D2E/DX2                !
 ! R91   R(57,60)                1.3869         estimate D2E/DX2                !
 ! R92   R(58,59)                1.3896         estimate D2E/DX2                !
 ! R93   R(59,65)                1.4396         estimate D2E/DX2                !
 ! R94   R(60,66)                1.4397         estimate D2E/DX2                !
 ! R95   R(61,62)                1.3874         estimate D2E/DX2                !
 ! R96   R(61,65)                1.4406         estimate D2E/DX2                !
 ! R97   R(62,63)                1.4368         estimate D2E/DX2                !
 ! R98   R(63,64)                1.3849         estimate D2E/DX2                !
 ! R99   R(64,66)                1.4395         estimate D2E/DX2                !
 ! R100  R(65,66)                1.3871         estimate D2E/DX2                !
 ! A1    A(2,1,4)              107.6862         estimate D2E/DX2                !
 ! A2    A(2,1,7)              122.1535         estimate D2E/DX2                !
 ! A3    A(4,1,7)              108.5863         estimate D2E/DX2                !
 ! A4    A(1,2,3)              111.3946         estimate D2E/DX2                !
 ! A5    A(1,2,10)             118.0607         estimate D2E/DX2                !
 ! A6    A(3,2,10)             110.895          estimate D2E/DX2                !
 ! A7    A(2,3,5)              100.3887         estimate D2E/DX2                !
 ! A8    A(2,3,12)             100.8507         estimate D2E/DX2                !
 ! A9    A(2,3,67)             119.4729         estimate D2E/DX2                !
 ! A10   A(5,3,12)             109.6173         estimate D2E/DX2                !
 ! A11   A(5,3,67)             113.8367         estimate D2E/DX2                !
 ! A12   A(12,3,67)            111.4101         estimate D2E/DX2                !
 ! A13   A(1,4,5)              108.844          estimate D2E/DX2                !
 ! A14   A(1,4,6)              107.9042         estimate D2E/DX2                !
 ! A15   A(5,4,6)              122.0938         estimate D2E/DX2                !
 ! A16   A(3,5,4)              110.68           estimate D2E/DX2                !
 ! A17   A(3,5,15)             120.6132         estimate D2E/DX2                !
 ! A18   A(4,5,15)             117.9139         estimate D2E/DX2                !
 ! A19   A(4,6,8)              107.7432         estimate D2E/DX2                !
 ! A20   A(4,6,17)             120.368          estimate D2E/DX2                !
 ! A21   A(8,6,17)             120.7028         estimate D2E/DX2                !
 ! A22   A(1,7,8)              106.952          estimate D2E/DX2                !
 ! A23   A(1,7,9)              119.7186         estimate D2E/DX2                !
 ! A24   A(8,7,9)              119.1578         estimate D2E/DX2                !
 ! A25   A(6,8,7)              108.5401         estimate D2E/DX2                !
 ! A26   A(6,8,20)             120.6818         estimate D2E/DX2                !
 ! A27   A(7,8,20)             122.1213         estimate D2E/DX2                !
 ! A28   A(7,9,11)             117.7863         estimate D2E/DX2                !
 ! A29   A(7,9,22)             115.4483         estimate D2E/DX2                !
 ! A30   A(11,9,22)            118.4809         estimate D2E/DX2                !
 ! A31   A(2,10,11)            120.9523         estimate D2E/DX2                !
 ! A32   A(2,10,13)            107.0755         estimate D2E/DX2                !
 ! A33   A(11,10,13)           118.6295         estimate D2E/DX2                !
 ! A34   A(9,11,10)            119.0533         estimate D2E/DX2                !
 ! A35   A(9,11,25)            117.5773         estimate D2E/DX2                !
 ! A36   A(10,11,25)           115.443          estimate D2E/DX2                !
 ! A37   A(3,12,13)            109.4268         estimate D2E/DX2                !
 ! A38   A(3,12,14)            122.4435         estimate D2E/DX2                !
 ! A39   A(13,12,14)           121.6244         estimate D2E/DX2                !
 ! A40   A(10,13,12)           109.5791         estimate D2E/DX2                !
 ! A41   A(10,13,27)           122.2054         estimate D2E/DX2                !
 ! A42   A(12,13,27)           121.384          estimate D2E/DX2                !
 ! A43   A(12,14,16)           117.2868         estimate D2E/DX2                !
 ! A44   A(12,14,29)           117.2281         estimate D2E/DX2                !
 ! A45   A(16,14,29)           119.4918         estimate D2E/DX2                !
 ! A46   A(5,15,16)            121.1415         estimate D2E/DX2                !
 ! A47   A(5,15,18)            119.6692         estimate D2E/DX2                !
 ! A48   A(16,15,18)           107.8629         estimate D2E/DX2                !
 ! A49   A(14,16,15)           118.8237         estimate D2E/DX2                !
 ! A50   A(14,16,32)           120.0851         estimate D2E/DX2                !
 ! A51   A(15,16,32)           106.649          estimate D2E/DX2                !
 ! A52   A(6,17,18)            115.3302         estimate D2E/DX2                !
 ! A53   A(6,17,19)            118.7034         estimate D2E/DX2                !
 ! A54   A(18,17,19)           119.8257         estimate D2E/DX2                !
 ! A55   A(15,18,17)           121.7215         estimate D2E/DX2                !
 ! A56   A(15,18,33)           106.7068         estimate D2E/DX2                !
 ! A57   A(17,18,33)           120.3631         estimate D2E/DX2                !
 ! A58   A(17,19,21)           119.568          estimate D2E/DX2                !
 ! A59   A(17,19,35)           117.2028         estimate D2E/DX2                !
 ! A60   A(21,19,35)           118.2973         estimate D2E/DX2                !
 ! A61   A(8,20,21)            119.5868         estimate D2E/DX2                !
 ! A62   A(8,20,23)            115.3814         estimate D2E/DX2                !
 ! A63   A(21,20,23)           119.8032         estimate D2E/DX2                !
 ! A64   A(19,21,20)           119.1864         estimate D2E/DX2                !
 ! A65   A(19,21,38)           118.8325         estimate D2E/DX2                !
 ! A66   A(20,21,38)           116.8704         estimate D2E/DX2                !
 ! A67   A(9,22,23)            121.4867         estimate D2E/DX2                !
 ! A68   A(9,22,24)            122.1833         estimate D2E/DX2                !
 ! A69   A(23,22,24)           107.9328         estimate D2E/DX2                !
 ! A70   A(20,23,22)           120.7271         estimate D2E/DX2                !
 ! A71   A(20,23,40)           121.2627         estimate D2E/DX2                !
 ! A72   A(22,23,40)           107.873          estimate D2E/DX2                !
 ! A73   A(22,24,26)           118.4546         estimate D2E/DX2                !
 ! A74   A(22,24,41)           108.4785         estimate D2E/DX2                !
 ! A75   A(26,24,41)           120.0357         estimate D2E/DX2                !
 ! A76   A(11,25,26)           122.4491         estimate D2E/DX2                !
 ! A77   A(11,25,28)           121.5402         estimate D2E/DX2                !
 ! A78   A(26,25,28)           107.6255         estimate D2E/DX2                !
 ! A79   A(24,26,25)           119.1064         estimate D2E/DX2                !
 ! A80   A(24,26,44)           119.7474         estimate D2E/DX2                !
 ! A81   A(25,26,44)           108.7039         estimate D2E/DX2                !
 ! A82   A(13,27,28)           114.8129         estimate D2E/DX2                !
 ! A83   A(13,27,30)           118.535          estimate D2E/DX2                !
 ! A84   A(28,27,30)           120.908          estimate D2E/DX2                !
 ! A85   A(25,28,27)           121.5659         estimate D2E/DX2                !
 ! A86   A(25,28,45)           107.9052         estimate D2E/DX2                !
 ! A87   A(27,28,45)           120.5518         estimate D2E/DX2                !
 ! A88   A(14,29,30)           120.461          estimate D2E/DX2                !
 ! A89   A(14,29,31)           117.3195         estimate D2E/DX2                !
 ! A90   A(30,29,31)           117.8186         estimate D2E/DX2                !
 ! A91   A(27,30,29)           118.9753         estimate D2E/DX2                !
 ! A92   A(27,30,47)           116.8004         estimate D2E/DX2                !
 ! A93   A(29,30,47)           119.1987         estimate D2E/DX2                !
 ! A94   A(29,31,34)           121.4709         estimate D2E/DX2                !
 ! A95   A(29,31,49)           122.067          estimate D2E/DX2                !
 ! A96   A(34,31,49)           106.6617         estimate D2E/DX2                !
 ! A97   A(16,32,33)           108.3804         estimate D2E/DX2                !
 ! A98   A(16,32,34)           120.2139         estimate D2E/DX2                !
 ! A99   A(33,32,34)           118.9452         estimate D2E/DX2                !
 ! A100  A(18,33,32)           107.8559         estimate D2E/DX2                !
 ! A101  A(18,33,36)           119.9307         estimate D2E/DX2                !
 ! A102  A(32,33,36)           120.0479         estimate D2E/DX2                !
 ! A103  A(31,34,32)           119.4221         estimate D2E/DX2                !
 ! A104  A(31,34,51)           108.9043         estimate D2E/DX2                !
 ! A105  A(32,34,51)           120.5035         estimate D2E/DX2                !
 ! A106  A(19,35,36)           121.3494         estimate D2E/DX2                !
 ! A107  A(19,35,37)           121.7873         estimate D2E/DX2                !
 ! A108  A(36,35,37)           106.7182         estimate D2E/DX2                !
 ! A109  A(33,36,35)           119.6871         estimate D2E/DX2                !
 ! A110  A(33,36,52)           120.3465         estimate D2E/DX2                !
 ! A111  A(35,36,52)           108.7675         estimate D2E/DX2                !
 ! A112  A(35,37,39)           119.729          estimate D2E/DX2                !
 ! A113  A(35,37,53)           108.8829         estimate D2E/DX2                !
 ! A114  A(39,37,53)           120.2684         estimate D2E/DX2                !
 ! A115  A(21,38,39)           121.7065         estimate D2E/DX2                !
 ! A116  A(21,38,42)           122.2343         estimate D2E/DX2                !
 ! A117  A(39,38,42)           106.6902         estimate D2E/DX2                !
 ! A118  A(37,39,38)           119.4581         estimate D2E/DX2                !
 ! A119  A(37,39,57)           120.4169         estimate D2E/DX2                !
 ! A120  A(38,39,57)           108.7892         estimate D2E/DX2                !
 ! A121  A(23,40,41)           108.6729         estimate D2E/DX2                !
 ! A122  A(23,40,42)           119.2093         estimate D2E/DX2                !
 ! A123  A(41,40,42)           120.7323         estimate D2E/DX2                !
 ! A124  A(24,41,40)           106.8714         estimate D2E/DX2                !
 ! A125  A(24,41,43)           120.2469         estimate D2E/DX2                !
 ! A126  A(40,41,43)           119.4541         estimate D2E/DX2                !
 ! A127  A(38,42,40)           119.9866         estimate D2E/DX2                !
 ! A128  A(38,42,58)           108.7962         estimate D2E/DX2                !
 ! A129  A(40,42,58)           119.7779         estimate D2E/DX2                !
 ! A130  A(41,43,46)           119.7547         estimate D2E/DX2                !
 ! A131  A(41,43,59)           119.8588         estimate D2E/DX2                !
 ! A132  A(46,43,59)           107.9731         estimate D2E/DX2                !
 ! A133  A(26,44,45)           106.8632         estimate D2E/DX2                !
 ! A134  A(26,44,46)           120.2573         estimate D2E/DX2                !
 ! A135  A(45,44,46)           119.56           estimate D2E/DX2                !
 ! A136  A(28,45,44)           108.7303         estimate D2E/DX2                !
 ! A137  A(28,45,48)           119.1537         estimate D2E/DX2                !
 ! A138  A(44,45,48)           120.8773         estimate D2E/DX2                !
 ! A139  A(43,46,44)           119.8944         estimate D2E/DX2                !
 ! A140  A(43,46,61)           108.0181         estimate D2E/DX2                !
 ! A141  A(44,46,61)           119.7289         estimate D2E/DX2                !
 ! A142  A(30,47,48)           121.4209         estimate D2E/DX2                !
 ! A143  A(30,47,50)           121.4724         estimate D2E/DX2                !
 ! A144  A(48,47,50)           107.1906         estimate D2E/DX2                !
 ! A145  A(45,48,47)           120.417          estimate D2E/DX2                !
 ! A146  A(45,48,62)           119.5355         estimate D2E/DX2                !
 ! A147  A(47,48,62)           108.5541         estimate D2E/DX2                !
 ! A148  A(31,49,50)           119.8307         estimate D2E/DX2                !
 ! A149  A(31,49,54)           109.0217         estimate D2E/DX2                !
 ! A150  A(50,49,54)           120.1778         estimate D2E/DX2                !
 ! A151  A(47,50,49)           119.3985         estimate D2E/DX2                !
 ! A152  A(47,50,63)           108.7192         estimate D2E/DX2                !
 ! A153  A(49,50,63)           120.3914         estimate D2E/DX2                !
 ! A154  A(34,51,52)           119.6717         estimate D2E/DX2                !
 ! A155  A(34,51,54)           107.3528         estimate D2E/DX2                !
 ! A156  A(52,51,54)           119.592          estimate D2E/DX2                !
 ! A157  A(36,52,51)           119.2255         estimate D2E/DX2                !
 ! A158  A(36,52,53)           107.2866         estimate D2E/DX2                !
 ! A159  A(51,52,53)           120.0758         estimate D2E/DX2                !
 ! A160  A(37,53,52)           107.9118         estimate D2E/DX2                !
 ! A161  A(37,53,55)           119.318          estimate D2E/DX2                !
 ! A162  A(52,53,55)           120.2731         estimate D2E/DX2                !
 ! A163  A(49,54,51)           107.5185         estimate D2E/DX2                !
 ! A164  A(49,54,56)           119.3379         estimate D2E/DX2                !
 ! A165  A(51,54,56)           120.2959         estimate D2E/DX2                !
 ! A166  A(53,55,56)           119.6152         estimate D2E/DX2                !
 ! A167  A(53,55,60)           120.2054         estimate D2E/DX2                !
 ! A168  A(56,55,60)           108.0131         estimate D2E/DX2                !
 ! A169  A(54,56,55)           119.9343         estimate D2E/DX2                !
 ! A170  A(54,56,64)           120.3109         estimate D2E/DX2                !
 ! A171  A(55,56,64)           107.8285         estimate D2E/DX2                !
 ! A172  A(39,57,58)           107.8762         estimate D2E/DX2                !
 ! A173  A(39,57,60)           119.4031         estimate D2E/DX2                !
 ! A174  A(58,57,60)           120.1009         estimate D2E/DX2                !
 ! A175  A(42,58,57)           107.5226         estimate D2E/DX2                !
 ! A176  A(42,58,59)           119.6916         estimate D2E/DX2                !
 ! A177  A(57,58,59)           120.2532         estimate D2E/DX2                !
 ! A178  A(43,59,58)           120.2459         estimate D2E/DX2                !
 ! A179  A(43,59,65)           107.9937         estimate D2E/DX2                !
 ! A180  A(58,59,65)           119.6188         estimate D2E/DX2                !
 ! A181  A(55,60,57)           120.1292         estimate D2E/DX2                !
 ! A182  A(55,60,66)           108.1899         estimate D2E/DX2                !
 ! A183  A(57,60,66)           119.7319         estimate D2E/DX2                !
 ! A184  A(46,61,62)           120.3522         estimate D2E/DX2                !
 ! A185  A(46,61,65)           107.8546         estimate D2E/DX2                !
 ! A186  A(62,61,65)           119.6444         estimate D2E/DX2                !
 ! A187  A(48,62,61)           119.7296         estimate D2E/DX2                !
 ! A188  A(48,62,63)           107.5765         estimate D2E/DX2                !
 ! A189  A(61,62,63)           120.1913         estimate D2E/DX2                !
 ! A190  A(50,63,62)           107.687          estimate D2E/DX2                !
 ! A191  A(50,63,64)           119.5287         estimate D2E/DX2                !
 ! A192  A(62,63,64)           120.2136         estimate D2E/DX2                !
 ! A193  A(56,64,63)           119.9763         estimate D2E/DX2                !
 ! A194  A(56,64,66)           108.1724         estimate D2E/DX2                !
 ! A195  A(63,64,66)           119.662          estimate D2E/DX2                !
 ! A196  A(59,65,61)           108.1076         estimate D2E/DX2                !
 ! A197  A(59,65,66)           120.0408         estimate D2E/DX2                !
 ! A198  A(61,65,66)           119.9957         estimate D2E/DX2                !
 ! A199  A(60,66,64)           107.7501         estimate D2E/DX2                !
 ! A200  A(60,66,65)           120.1651         estimate D2E/DX2                !
 ! A201  A(64,66,65)           120.2002         estimate D2E/DX2                !
 ! D1    D(4,1,2,3)              6.4028         estimate D2E/DX2                !
 ! D2    D(4,1,2,10)          -123.6077         estimate D2E/DX2                !
 ! D3    D(7,1,2,3)            132.9579         estimate D2E/DX2                !
 ! D4    D(7,1,2,10)             2.9474         estimate D2E/DX2                !
 ! D5    D(2,1,4,5)              0.0225         estimate D2E/DX2                !
 ! D6    D(2,1,4,6)            134.4677         estimate D2E/DX2                !
 ! D7    D(7,1,4,5)           -134.1288         estimate D2E/DX2                !
 ! D8    D(7,1,4,6)              0.3164         estimate D2E/DX2                !
 ! D9    D(2,1,7,8)           -129.5685         estimate D2E/DX2                !
 ! D10   D(2,1,7,9)              9.9382         estimate D2E/DX2                !
 ! D11   D(4,1,7,8)             -3.414          estimate D2E/DX2                !
 ! D12   D(4,1,7,9)            136.0927         estimate D2E/DX2                !
 ! D13   D(1,2,3,5)             -9.6279         estimate D2E/DX2                !
 ! D14   D(1,2,3,12)          -122.128          estimate D2E/DX2                !
 ! D15   D(1,2,3,67)           115.5103         estimate D2E/DX2                !
 ! D16   D(10,2,3,5)           124.0304         estimate D2E/DX2                !
 ! D17   D(10,2,3,12)           11.5303         estimate D2E/DX2                !
 ! D18   D(10,2,3,67)         -110.8315         estimate D2E/DX2                !
 ! D19   D(1,2,10,11)          -14.4149         estimate D2E/DX2                !
 ! D20   D(1,2,10,13)          125.8215         estimate D2E/DX2                !
 ! D21   D(3,2,10,11)         -144.6546         estimate D2E/DX2                !
 ! D22   D(3,2,10,13)           -4.4183         estimate D2E/DX2                !
 ! D23   D(2,3,5,4)              9.5273         estimate D2E/DX2                !
 ! D24   D(2,3,5,15)          -134.0611         estimate D2E/DX2                !
 ! D25   D(12,3,5,4)           115.1037         estimate D2E/DX2                !
 ! D26   D(12,3,5,15)          -28.4846         estimate D2E/DX2                !
 ! D27   D(67,3,5,4)          -119.3649         estimate D2E/DX2                !
 ! D28   D(67,3,5,15)           97.0467         estimate D2E/DX2                !
 ! D29   D(2,3,12,13)          -14.7505         estimate D2E/DX2                !
 ! D30   D(2,3,12,14)          137.259          estimate D2E/DX2                !
 ! D31   D(5,3,12,13)         -120.0129         estimate D2E/DX2                !
 ! D32   D(5,3,12,14)           31.9967         estimate D2E/DX2                !
 ! D33   D(67,3,12,13)         113.075          estimate D2E/DX2                !
 ! D34   D(67,3,12,14)         -94.9154         estimate D2E/DX2                !
 ! D35   D(1,4,5,3)             -6.4782         estimate D2E/DX2                !
 ! D36   D(1,4,5,15)           138.2038         estimate D2E/DX2                !
 ! D37   D(6,4,5,3)           -133.1671         estimate D2E/DX2                !
 ! D38   D(6,4,5,15)            11.5149         estimate D2E/DX2                !
 ! D39   D(1,4,6,8)              2.9359         estimate D2E/DX2                !
 ! D40   D(1,4,6,17)          -141.0449         estimate D2E/DX2                !
 ! D41   D(5,4,6,8)            130.0406         estimate D2E/DX2                !
 ! D42   D(5,4,6,17)           -13.9402         estimate D2E/DX2                !
 ! D43   D(3,5,15,16)            5.1391         estimate D2E/DX2                !
 ! D44   D(3,5,15,18)          144.3111         estimate D2E/DX2                !
 ! D45   D(4,5,15,16)         -135.9247         estimate D2E/DX2                !
 ! D46   D(4,5,15,18)            3.2474         estimate D2E/DX2                !
 ! D47   D(4,6,8,7)             -5.0901         estimate D2E/DX2                !
 ! D48   D(4,6,8,20)          -153.4206         estimate D2E/DX2                !
 ! D49   D(17,6,8,7)           138.7467         estimate D2E/DX2                !
 ! D50   D(17,6,8,20)           -9.5838         estimate D2E/DX2                !
 ! D51   D(4,6,17,18)            1.0565         estimate D2E/DX2                !
 ! D52   D(4,6,17,19)          153.4985         estimate D2E/DX2                !
 ! D53   D(8,6,17,18)         -138.297          estimate D2E/DX2                !
 ! D54   D(8,6,17,19)           14.145          estimate D2E/DX2                !
 ! D55   D(1,7,8,6)              5.2443         estimate D2E/DX2                !
 ! D56   D(1,7,8,20)           153.0268         estimate D2E/DX2                !
 ! D57   D(9,7,8,6)           -134.5314         estimate D2E/DX2                !
 ! D58   D(9,7,8,20)            13.2512         estimate D2E/DX2                !
 ! D59   D(1,7,9,11)           -11.1066         estimate D2E/DX2                !
 ! D60   D(1,7,9,22)          -159.0679         estimate D2E/DX2                !
 ! D61   D(8,7,9,11)           123.5545         estimate D2E/DX2                !
 ! D62   D(8,7,9,22)           -24.4067         estimate D2E/DX2                !
 ! D63   D(6,8,20,21)           -1.8319         estimate D2E/DX2                !
 ! D64   D(6,8,20,23)          152.5883         estimate D2E/DX2                !
 ! D65   D(7,8,20,21)         -145.8351         estimate D2E/DX2                !
 ! D66   D(7,8,20,23)            8.585          estimate D2E/DX2                !
 ! D67   D(7,9,11,10)            0.051          estimate D2E/DX2                !
 ! D68   D(7,9,11,25)         -147.5767         estimate D2E/DX2                !
 ! D69   D(22,9,11,10)         147.028          estimate D2E/DX2                !
 ! D70   D(22,9,11,25)          -0.5997         estimate D2E/DX2                !
 ! D71   D(7,9,22,23)           14.7956         estimate D2E/DX2                !
 ! D72   D(7,9,22,24)          159.0935         estimate D2E/DX2                !
 ! D73   D(11,9,22,23)        -132.9322         estimate D2E/DX2                !
 ! D74   D(11,9,22,24)          11.3657         estimate D2E/DX2                !
 ! D75   D(2,10,11,9)           12.9426         estimate D2E/DX2                !
 ! D76   D(2,10,11,25)         161.2366         estimate D2E/DX2                !
 ! D77   D(13,10,11,9)        -122.903          estimate D2E/DX2                !
 ! D78   D(13,10,11,25)         25.391          estimate D2E/DX2                !
 ! D79   D(2,10,13,12)          -5.4835         estimate D2E/DX2                !
 ! D80   D(2,10,13,27)        -156.7972         estimate D2E/DX2                !
 ! D81   D(11,10,13,12)        135.8384         estimate D2E/DX2                !
 ! D82   D(11,10,13,27)        -15.4753         estimate D2E/DX2                !
 ! D83   D(9,11,25,26)         -10.3029         estimate D2E/DX2                !
 ! D84   D(9,11,25,28)         133.9161         estimate D2E/DX2                !
 ! D85   D(10,11,25,26)       -159.0836         estimate D2E/DX2                !
 ! D86   D(10,11,25,28)        -14.8645         estimate D2E/DX2                !
 ! D87   D(3,12,13,10)          13.245          estimate D2E/DX2                !
 ! D88   D(3,12,13,27)         164.8357         estimate D2E/DX2                !
 ! D89   D(14,12,13,10)       -139.0355         estimate D2E/DX2                !
 ! D90   D(14,12,13,27)         12.5552         estimate D2E/DX2                !
 ! D91   D(3,12,14,16)         -11.0465         estimate D2E/DX2                !
 ! D92   D(3,12,14,29)        -163.7192         estimate D2E/DX2                !
 ! D93   D(13,12,14,16)        137.6353         estimate D2E/DX2                !
 ! D94   D(13,12,14,29)        -15.0374         estimate D2E/DX2                !
 ! D95   D(10,13,27,28)         -6.3366         estimate D2E/DX2                !
 ! D96   D(10,13,27,30)        147.242          estimate D2E/DX2                !
 ! D97   D(12,13,27,28)       -154.347          estimate D2E/DX2                !
 ! D98   D(12,13,27,30)         -0.7683         estimate D2E/DX2                !
 ! D99   D(12,14,16,15)        -15.7241         estimate D2E/DX2                !
 ! D100  D(12,14,16,32)       -149.8903         estimate D2E/DX2                !
 ! D101  D(29,14,16,15)        136.3084         estimate D2E/DX2                !
 ! D102  D(29,14,16,32)          2.1423         estimate D2E/DX2                !
 ! D103  D(12,14,29,30)          6.3749         estimate D2E/DX2                !
 ! D104  D(12,14,29,31)        162.3233         estimate D2E/DX2                !
 ! D105  D(16,14,29,30)       -145.6737         estimate D2E/DX2                !
 ! D106  D(16,14,29,31)         10.2747         estimate D2E/DX2                !
 ! D107  D(5,15,16,14)          19.1018         estimate D2E/DX2                !
 ! D108  D(5,15,16,32)         158.7225         estimate D2E/DX2                !
 ! D109  D(18,15,16,14)       -124.2537         estimate D2E/DX2                !
 ! D110  D(18,15,16,32)         15.367          estimate D2E/DX2                !
 ! D111  D(5,15,18,17)         -16.2571         estimate D2E/DX2                !
 ! D112  D(5,15,18,33)        -159.9611         estimate D2E/DX2                !
 ! D113  D(16,15,18,17)        127.7337         estimate D2E/DX2                !
 ! D114  D(16,15,18,33)        -15.9703         estimate D2E/DX2                !
 ! D115  D(14,16,32,33)        130.1666         estimate D2E/DX2                !
 ! D116  D(14,16,32,34)        -11.4302         estimate D2E/DX2                !
 ! D117  D(15,16,32,33)         -8.8417         estimate D2E/DX2                !
 ! D118  D(15,16,32,34)       -150.4385         estimate D2E/DX2                !
 ! D119  D(6,17,18,15)          13.5716         estimate D2E/DX2                !
 ! D120  D(6,17,18,33)         152.4927         estimate D2E/DX2                !
 ! D121  D(19,17,18,15)       -138.5398         estimate D2E/DX2                !
 ! D122  D(19,17,18,33)          0.3812         estimate D2E/DX2                !
 ! D123  D(6,17,19,21)          -7.5158         estimate D2E/DX2                !
 ! D124  D(6,17,19,35)        -162.2602         estimate D2E/DX2                !
 ! D125  D(18,17,19,21)        143.6672         estimate D2E/DX2                !
 ! D126  D(18,17,19,35)        -11.0772         estimate D2E/DX2                !
 ! D127  D(15,18,33,32)         10.4165         estimate D2E/DX2                !
 ! D128  D(15,18,33,36)        152.8354         estimate D2E/DX2                !
 ! D129  D(17,18,33,32)       -133.8815         estimate D2E/DX2                !
 ! D130  D(17,18,33,36)          8.5375         estimate D2E/DX2                !
 ! D131  D(17,19,21,20)         -3.5043         estimate D2E/DX2                !
 ! D132  D(17,19,21,38)       -157.4595         estimate D2E/DX2                !
 ! D133  D(35,19,21,20)        150.9667         estimate D2E/DX2                !
 ! D134  D(35,19,21,38)         -2.9885         estimate D2E/DX2                !
 ! D135  D(17,19,35,36)         13.4157         estimate D2E/DX2                !
 ! D136  D(17,19,35,37)        154.1126         estimate D2E/DX2                !
 ! D137  D(21,19,35,36)       -141.6576         estimate D2E/DX2                !
 ! D138  D(21,19,35,37)         -0.9607         estimate D2E/DX2                !
 ! D139  D(8,20,21,19)           8.2143         estimate D2E/DX2                !
 ! D140  D(8,20,21,38)         162.6707         estimate D2E/DX2                !
 ! D141  D(23,20,21,19)       -145.0708         estimate D2E/DX2                !
 ! D142  D(23,20,21,38)          9.3855         estimate D2E/DX2                !
 ! D143  D(8,20,23,22)         -18.5407         estimate D2E/DX2                !
 ! D144  D(8,20,23,40)        -159.6687         estimate D2E/DX2                !
 ! D145  D(21,20,23,22)        135.8203         estimate D2E/DX2                !
 ! D146  D(21,20,23,40)         -5.3077         estimate D2E/DX2                !
 ! D147  D(19,21,38,39)          4.5986         estimate D2E/DX2                !
 ! D148  D(19,21,38,42)        146.6568         estimate D2E/DX2                !
 ! D149  D(20,21,38,39)       -149.9513         estimate D2E/DX2                !
 ! D150  D(20,21,38,42)         -7.8931         estimate D2E/DX2                !
 ! D151  D(9,22,23,20)           7.0631         estimate D2E/DX2                !
 ! D152  D(9,22,23,40)         152.754          estimate D2E/DX2                !
 ! D153  D(24,22,23,20)       -141.6633         estimate D2E/DX2                !
 ! D154  D(24,22,23,40)          4.0275         estimate D2E/DX2                !
 ! D155  D(9,22,24,26)         -11.2288         estimate D2E/DX2                !
 ! D156  D(9,22,24,41)        -152.6145         estimate D2E/DX2                !
 ! D157  D(23,22,24,26)        137.2337         estimate D2E/DX2                !
 ! D158  D(23,22,24,41)         -4.1521         estimate D2E/DX2                !
 ! D159  D(20,23,40,41)        143.0674         estimate D2E/DX2                !
 ! D160  D(20,23,40,42)         -0.7319         estimate D2E/DX2                !
 ! D161  D(22,23,40,41)         -2.4029         estimate D2E/DX2                !
 ! D162  D(22,23,40,42)       -146.2023         estimate D2E/DX2                !
 ! D163  D(22,24,26,25)          0.2519         estimate D2E/DX2                !
 ! D164  D(22,24,26,44)       -137.5565         estimate D2E/DX2                !
 ! D165  D(41,24,26,25)        137.1176         estimate D2E/DX2                !
 ! D166  D(41,24,26,44)         -0.6909         estimate D2E/DX2                !
 ! D167  D(22,24,41,40)          2.6453         estimate D2E/DX2                !
 ! D168  D(22,24,41,43)        143.1489         estimate D2E/DX2                !
 ! D169  D(26,24,41,40)       -138.0242         estimate D2E/DX2                !
 ! D170  D(26,24,41,43)          2.4793         estimate D2E/DX2                !
 ! D171  D(11,25,26,24)         10.5889         estimate D2E/DX2                !
 ! D172  D(11,25,26,44)        152.592          estimate D2E/DX2                !
 ! D173  D(28,25,26,24)       -137.8869         estimate D2E/DX2                !
 ! D174  D(28,25,26,44)          4.1162         estimate D2E/DX2                !
 ! D175  D(11,25,28,27)         -7.2507         estimate D2E/DX2                !
 ! D176  D(11,25,28,45)       -152.8855         estimate D2E/DX2                !
 ! D177  D(26,25,28,27)        141.571          estimate D2E/DX2                !
 ! D178  D(26,25,28,45)         -4.0638         estimate D2E/DX2                !
 ! D179  D(24,26,44,45)        139.1549         estimate D2E/DX2                !
 ! D180  D(24,26,44,46)         -1.526          estimate D2E/DX2                !
 ! D181  D(25,26,44,45)         -2.5642         estimate D2E/DX2                !
 ! D182  D(25,26,44,46)       -143.2452         estimate D2E/DX2                !
 ! D183  D(13,27,28,25)         17.5482         estimate D2E/DX2                !
 ! D184  D(13,27,28,45)        158.9602         estimate D2E/DX2                !
 ! D185  D(30,27,28,25)       -135.3472         estimate D2E/DX2                !
 ! D186  D(30,27,28,45)          6.0648         estimate D2E/DX2                !
 ! D187  D(13,27,30,29)         -7.5145         estimate D2E/DX2                !
 ! D188  D(13,27,30,47)       -162.2664         estimate D2E/DX2                !
 ! D189  D(28,27,30,29)        144.4033         estimate D2E/DX2                !
 ! D190  D(28,27,30,47)        -10.3487         estimate D2E/DX2                !
 ! D191  D(25,28,45,44)          2.5053         estimate D2E/DX2                !
 ! D192  D(25,28,45,48)        146.5669         estimate D2E/DX2                !
 ! D193  D(27,28,45,44)       -143.544          estimate D2E/DX2                !
 ! D194  D(27,28,45,48)          0.5177         estimate D2E/DX2                !
 ! D195  D(14,29,30,27)          4.656          estimate D2E/DX2                !
 ! D196  D(14,29,30,47)        158.7982         estimate D2E/DX2                !
 ! D197  D(31,29,30,27)       -151.1758         estimate D2E/DX2                !
 ! D198  D(31,29,30,47)          2.9664         estimate D2E/DX2                !
 ! D199  D(14,29,31,34)        -14.0563         estimate D2E/DX2                !
 ! D200  D(14,29,31,49)       -155.3328         estimate D2E/DX2                !
 ! D201  D(30,29,31,34)        142.5397         estimate D2E/DX2                !
 ! D202  D(30,29,31,49)          1.2632         estimate D2E/DX2                !
 ! D203  D(27,30,47,48)          8.4572         estimate D2E/DX2                !
 ! D204  D(27,30,47,50)        149.7208         estimate D2E/DX2                !
 ! D205  D(29,30,47,48)       -146.236          estimate D2E/DX2                !
 ! D206  D(29,30,47,50)         -4.9725         estimate D2E/DX2                !
 ! D207  D(29,31,34,32)          5.1879         estimate D2E/DX2                !
 ! D208  D(29,31,34,51)       -138.822          estimate D2E/DX2                !
 ! D209  D(49,31,34,32)        151.5906         estimate D2E/DX2                !
 ! D210  D(49,31,34,51)          7.5807         estimate D2E/DX2                !
 ! D211  D(29,31,49,50)         -3.6426         estimate D2E/DX2                !
 ! D212  D(29,31,49,54)        140.5139         estimate D2E/DX2                !
 ! D213  D(34,31,49,50)       -149.7989         estimate D2E/DX2                !
 ! D214  D(34,31,49,54)         -5.6424         estimate D2E/DX2                !
 ! D215  D(16,32,33,18)         -0.9683         estimate D2E/DX2                !
 ! D216  D(16,32,33,36)       -143.3351         estimate D2E/DX2                !
 ! D217  D(34,32,33,18)        141.1936         estimate D2E/DX2                !
 ! D218  D(34,32,33,36)         -1.1733         estimate D2E/DX2                !
 ! D219  D(16,32,34,31)          7.8551         estimate D2E/DX2                !
 ! D220  D(16,32,34,51)        147.6705         estimate D2E/DX2                !
 ! D221  D(33,32,34,31)       -129.7953         estimate D2E/DX2                !
 ! D222  D(33,32,34,51)         10.02           estimate D2E/DX2                !
 ! D223  D(18,33,36,35)         -6.3565         estimate D2E/DX2                !
 ! D224  D(18,33,36,52)       -146.0761         estimate D2E/DX2                !
 ! D225  D(32,33,36,35)        131.5275         estimate D2E/DX2                !
 ! D226  D(32,33,36,52)         -8.1921         estimate D2E/DX2                !
 ! D227  D(31,34,51,52)        134.0184         estimate D2E/DX2                !
 ! D228  D(31,34,51,54)         -6.6485         estimate D2E/DX2                !
 ! D229  D(32,34,51,52)         -9.5349         estimate D2E/DX2                !
 ! D230  D(32,34,51,54)       -150.2018         estimate D2E/DX2                !
 ! D231  D(19,35,36,33)         -4.8845         estimate D2E/DX2                !
 ! D232  D(19,35,36,52)        139.0099         estimate D2E/DX2                !
 ! D233  D(37,35,36,33)       -150.6779         estimate D2E/DX2                !
 ! D234  D(37,35,36,52)         -6.7835         estimate D2E/DX2                !
 ! D235  D(19,35,37,39)          3.4403         estimate D2E/DX2                !
 ! D236  D(19,35,37,53)       -140.5378         estimate D2E/DX2                !
 ! D237  D(36,35,37,39)        149.0502         estimate D2E/DX2                !
 ! D238  D(36,35,37,53)          5.0721         estimate D2E/DX2                !
 ! D239  D(33,36,52,51)          8.6808         estimate D2E/DX2                !
 ! D240  D(33,36,52,53)        149.5328         estimate D2E/DX2                !
 ! D241  D(35,36,52,51)       -134.9344         estimate D2E/DX2                !
 ! D242  D(35,36,52,53)          5.9176         estimate D2E/DX2                !
 ! D243  D(35,37,39,38)         -1.8751         estimate D2E/DX2                !
 ! D244  D(35,37,39,57)       -141.3874         estimate D2E/DX2                !
 ! D245  D(53,37,39,38)        138.0134         estimate D2E/DX2                !
 ! D246  D(53,37,39,57)         -1.4989         estimate D2E/DX2                !
 ! D247  D(35,37,53,52)         -1.4822         estimate D2E/DX2                !
 ! D248  D(35,37,53,55)        140.6235         estimate D2E/DX2                !
 ! D249  D(39,37,53,52)       -145.2328         estimate D2E/DX2                !
 ! D250  D(39,37,53,55)         -3.1272         estimate D2E/DX2                !
 ! D251  D(21,38,39,37)         -2.1637         estimate D2E/DX2                !
 ! D252  D(21,38,39,57)        141.5771         estimate D2E/DX2                !
 ! D253  D(42,38,39,37)       -149.2778         estimate D2E/DX2                !
 ! D254  D(42,38,39,57)         -5.5369         estimate D2E/DX2                !
 ! D255  D(21,38,42,40)          2.1039         estimate D2E/DX2                !
 ! D256  D(21,38,42,58)       -141.2262         estimate D2E/DX2                !
 ! D257  D(39,38,42,40)        149.0041         estimate D2E/DX2                !
 ! D258  D(39,38,42,58)          5.6739         estimate D2E/DX2                !
 ! D259  D(37,39,57,58)        146.6828         estimate D2E/DX2                !
 ! D260  D(37,39,57,60)          4.81           estimate D2E/DX2                !
 ! D261  D(38,39,57,58)          3.35           estimate D2E/DX2                !
 ! D262  D(38,39,57,60)       -138.5229         estimate D2E/DX2                !
 ! D263  D(23,40,41,24)         -0.1494         estimate D2E/DX2                !
 ! D264  D(23,40,41,43)       -141.0255         estimate D2E/DX2                !
 ! D265  D(42,40,41,24)        142.9994         estimate D2E/DX2                !
 ! D266  D(42,40,41,43)          2.1233         estimate D2E/DX2                !
 ! D267  D(23,40,42,38)          2.4229         estimate D2E/DX2                !
 ! D268  D(23,40,42,58)        141.7785         estimate D2E/DX2                !
 ! D269  D(41,40,42,38)       -136.9645         estimate D2E/DX2                !
 ! D270  D(41,40,42,58)          2.3911         estimate D2E/DX2                !
 ! D271  D(24,41,43,46)         -2.0351         estimate D2E/DX2                !
 ! D272  D(24,41,43,59)       -139.5968         estimate D2E/DX2                !
 ! D273  D(40,41,43,46)        133.618          estimate D2E/DX2                !
 ! D274  D(40,41,43,59)         -3.9436         estimate D2E/DX2                !
 ! D275  D(38,42,58,57)         -3.6679         estimate D2E/DX2                !
 ! D276  D(38,42,58,59)        138.3516         estimate D2E/DX2                !
 ! D277  D(40,42,58,57)       -147.0872         estimate D2E/DX2                !
 ! D278  D(40,42,58,59)         -5.0676         estimate D2E/DX2                !
 ! D279  D(41,43,46,44)         -0.1809         estimate D2E/DX2                !
 ! D280  D(41,43,46,61)       -142.2264         estimate D2E/DX2                !
 ! D281  D(59,43,46,44)        141.8495         estimate D2E/DX2                !
 ! D282  D(59,43,46,61)         -0.196          estimate D2E/DX2                !
 ! D283  D(41,43,59,58)          1.2687         estimate D2E/DX2                !
 ! D284  D(41,43,59,65)        143.5397         estimate D2E/DX2                !
 ! D285  D(46,43,59,58)       -140.7151         estimate D2E/DX2                !
 ! D286  D(46,43,59,65)          1.5558         estimate D2E/DX2                !
 ! D287  D(26,44,45,28)          0.0266         estimate D2E/DX2                !
 ! D288  D(26,44,45,48)       -143.3034         estimate D2E/DX2                !
 ! D289  D(46,44,45,28)        141.0342         estimate D2E/DX2                !
 ! D290  D(46,44,45,48)         -2.2958         estimate D2E/DX2                !
 ! D291  D(26,44,46,43)          1.9657         estimate D2E/DX2                !
 ! D292  D(26,44,46,61)        139.6263         estimate D2E/DX2                !
 ! D293  D(45,44,46,43)       -133.837          estimate D2E/DX2                !
 ! D294  D(45,44,46,61)          3.8235         estimate D2E/DX2                !
 ! D295  D(28,45,48,47)         -2.4409         estimate D2E/DX2                !
 ! D296  D(28,45,48,62)       -141.6185         estimate D2E/DX2                !
 ! D297  D(44,45,48,47)        137.1967         estimate D2E/DX2                !
 ! D298  D(44,45,48,62)         -1.981          estimate D2E/DX2                !
 ! D299  D(43,46,61,62)        141.0235         estimate D2E/DX2                !
 ! D300  D(43,46,61,65)         -1.2371         estimate D2E/DX2                !
 ! D301  D(44,46,61,62)         -1.0958         estimate D2E/DX2                !
 ! D302  D(44,46,61,65)       -143.3565         estimate D2E/DX2                !
 ! D303  D(30,47,48,45)         -2.2545         estimate D2E/DX2                !
 ! D304  D(30,47,48,62)        140.8792         estimate D2E/DX2                !
 ! D305  D(50,47,48,45)       -148.2924         estimate D2E/DX2                !
 ! D306  D(50,47,48,62)         -5.1587         estimate D2E/DX2                !
 ! D307  D(30,47,50,49)          2.6322         estimate D2E/DX2                !
 ! D308  D(30,47,50,63)       -140.8851         estimate D2E/DX2                !
 ! D309  D(48,47,50,49)        148.6489         estimate D2E/DX2                !
 ! D310  D(48,47,50,63)          5.1317         estimate D2E/DX2                !
 ! D311  D(45,48,62,61)          4.7071         estimate D2E/DX2                !
 ! D312  D(45,48,62,63)        146.7408         estimate D2E/DX2                !
 ! D313  D(47,48,62,61)       -138.8053         estimate D2E/DX2                !
 ! D314  D(47,48,62,63)          3.2284         estimate D2E/DX2                !
 ! D315  D(31,49,50,47)          1.666          estimate D2E/DX2                !
 ! D316  D(31,49,50,63)        140.9103         estimate D2E/DX2                !
 ! D317  D(54,49,50,47)       -138.5131         estimate D2E/DX2                !
 ! D318  D(54,49,50,63)          0.7312         estimate D2E/DX2                !
 ! D319  D(31,49,54,51)          1.614          estimate D2E/DX2                !
 ! D320  D(31,49,54,56)       -140.0366         estimate D2E/DX2                !
 ! D321  D(50,49,54,51)        145.6253         estimate D2E/DX2                !
 ! D322  D(50,49,54,56)          3.9747         estimate D2E/DX2                !
 ! D323  D(47,50,63,62)         -3.1744         estimate D2E/DX2                !
 ! D324  D(47,50,63,64)        138.7942         estimate D2E/DX2                !
 ! D325  D(49,50,63,62)       -146.2663         estimate D2E/DX2                !
 ! D326  D(49,50,63,64)         -4.2976         estimate D2E/DX2                !
 ! D327  D(34,51,52,36)          0.1251         estimate D2E/DX2                !
 ! D328  D(34,51,52,53)       -135.7203         estimate D2E/DX2                !
 ! D329  D(54,51,52,36)        136.0399         estimate D2E/DX2                !
 ! D330  D(54,51,52,53)          0.1944         estimate D2E/DX2                !
 ! D331  D(34,51,54,49)          3.0735         estimate D2E/DX2                !
 ! D332  D(34,51,54,56)        144.2863         estimate D2E/DX2                !
 ! D333  D(52,51,54,49)       -137.6305         estimate D2E/DX2                !
 ! D334  D(52,51,54,56)          3.5823         estimate D2E/DX2                !
 ! D335  D(36,52,53,37)         -2.7229         estimate D2E/DX2                !
 ! D336  D(36,52,53,55)       -144.3996         estimate D2E/DX2                !
 ! D337  D(51,52,53,37)        137.7323         estimate D2E/DX2                !
 ! D338  D(51,52,53,55)         -3.9444         estimate D2E/DX2                !
 ! D339  D(37,53,55,56)       -133.5106         estimate D2E/DX2                !
 ! D340  D(37,53,55,60)          4.4335         estimate D2E/DX2                !
 ! D341  D(52,53,55,56)          3.9015         estimate D2E/DX2                !
 ! D342  D(52,53,55,60)        141.8456         estimate D2E/DX2                !
 ! D343  D(49,54,56,55)        133.1242         estimate D2E/DX2                !
 ! D344  D(49,54,56,64)         -5.11           estimate D2E/DX2                !
 ! D345  D(51,54,56,55)         -3.6195         estimate D2E/DX2                !
 ! D346  D(51,54,56,64)       -141.8537         estimate D2E/DX2                !
 ! D347  D(53,55,56,54)         -0.1271         estimate D2E/DX2                !
 ! D348  D(53,55,56,64)        142.7131         estimate D2E/DX2                !
 ! D349  D(60,55,56,54)       -142.6283         estimate D2E/DX2                !
 ! D350  D(60,55,56,64)          0.2119         estimate D2E/DX2                !
 ! D351  D(53,55,60,57)         -1.1293         estimate D2E/DX2                !
 ! D352  D(53,55,60,66)       -143.716          estimate D2E/DX2                !
 ! D353  D(56,55,60,57)        141.1102         estimate D2E/DX2                !
 ! D354  D(56,55,60,66)         -1.4765         estimate D2E/DX2                !
 ! D355  D(54,56,64,63)          1.5628         estimate D2E/DX2                !
 ! D356  D(54,56,64,66)        143.8071         estimate D2E/DX2                !
 ! D357  D(55,56,64,63)       -141.1112         estimate D2E/DX2                !
 ! D358  D(55,56,64,66)          1.1331         estimate D2E/DX2                !
 ! D359  D(39,57,58,42)          0.2062         estimate D2E/DX2                !
 ! D360  D(39,57,58,59)       -141.5593         estimate D2E/DX2                !
 ! D361  D(60,57,58,42)        141.7642         estimate D2E/DX2                !
 ! D362  D(60,57,58,59)         -0.0013         estimate D2E/DX2                !
 ! D363  D(39,57,60,55)         -3.4873         estimate D2E/DX2                !
 ! D364  D(39,57,60,66)        134.8532         estimate D2E/DX2                !
 ! D365  D(58,57,60,55)       -140.7065         estimate D2E/DX2                !
 ! D366  D(58,57,60,66)         -2.366          estimate D2E/DX2                !
 ! D367  D(42,58,59,43)          3.2473         estimate D2E/DX2                !
 ! D368  D(42,58,59,65)       -134.7259         estimate D2E/DX2                !
 ! D369  D(57,58,59,43)        140.4535         estimate D2E/DX2                !
 ! D370  D(57,58,59,65)          2.4803         estimate D2E/DX2                !
 ! D371  D(43,59,65,61)         -2.3251         estimate D2E/DX2                !
 ! D372  D(43,59,65,66)       -145.142          estimate D2E/DX2                !
 ! D373  D(58,59,65,61)        140.2238         estimate D2E/DX2                !
 ! D374  D(58,59,65,66)         -2.5931         estimate D2E/DX2                !
 ! D375  D(55,60,66,64)          2.1718         estimate D2E/DX2                !
 ! D376  D(55,60,66,65)        145.0104         estimate D2E/DX2                !
 ! D377  D(57,60,66,64)       -140.5894         estimate D2E/DX2                !
 ! D378  D(57,60,66,65)          2.2492         estimate D2E/DX2                !
 ! D379  D(46,61,62,48)         -3.1855         estimate D2E/DX2                !
 ! D380  D(46,61,62,63)       -140.4576         estimate D2E/DX2                !
 ! D381  D(65,61,62,48)        134.7221         estimate D2E/DX2                !
 ! D382  D(65,61,62,63)         -2.5501         estimate D2E/DX2                !
 ! D383  D(46,61,65,59)          2.2006         estimate D2E/DX2                !
 ! D384  D(46,61,65,66)        145.0372         estimate D2E/DX2                !
 ! D385  D(62,61,65,59)       -140.3746         estimate D2E/DX2                !
 ! D386  D(62,61,65,66)          2.4621         estimate D2E/DX2                !
 ! D387  D(48,62,63,50)         -0.0469         estimate D2E/DX2                !
 ! D388  D(48,62,63,64)       -141.7062         estimate D2E/DX2                !
 ! D389  D(61,62,63,50)        141.7783         estimate D2E/DX2                !
 ! D390  D(61,62,63,64)          0.1191         estimate D2E/DX2                !
 ! D391  D(50,63,64,56)          3.1536         estimate D2E/DX2                !
 ! D392  D(50,63,64,66)       -134.8191         estimate D2E/DX2                !
 ! D393  D(62,63,64,56)        140.3692         estimate D2E/DX2                !
 ! D394  D(62,63,64,66)          2.3966         estimate D2E/DX2                !
 ! D395  D(56,64,66,60)         -2.0399         estimate D2E/DX2                !
 ! D396  D(56,64,66,65)       -144.8629         estimate D2E/DX2                !
 ! D397  D(63,64,66,60)        140.3436         estimate D2E/DX2                !
 ! D398  D(63,64,66,65)         -2.4795         estimate D2E/DX2                !
 ! D399  D(59,65,66,60)          0.2327         estimate D2E/DX2                !
 ! D400  D(59,65,66,64)        138.5002         estimate D2E/DX2                !
 ! D401  D(61,65,66,60)       -138.2176         estimate D2E/DX2                !
 ! D402  D(61,65,66,64)          0.0499         estimate D2E/DX2                !
 --------------------------------------------------------------------------------
 Trust Radius=3.00D-01 FncErr=1.00D-07 GrdErr=1.00D-06 EigMax=2.50D+02 EigMin=1.00D-04
 Number of steps in this run=    402 maximum allowed number of steps=    402.
 GradGradGradGradGradGradGradGradGradGradGradGradGradGradGradGradGradGrad

 Leave Link  103 at Fri Jul 15 03:27:50 2022, MaxMem=  1342177280 cpu:               1.3 elap:               0.0
 (Enter /home/mkliu/g16/l202.exe)
 Stoichiometry    C66Cl(2)
 Framework group  C1[X(C66Cl)]
 Deg. of freedom   195
 Full point group                 C1      NOp   1
 Largest Abelian subgroup         C1      NOp   1
 Largest concise Abelian subgroup C1      NOp   1
                         Standard orientation:                         
 ---------------------------------------------------------------------
 Center     Atomic      Atomic             Coordinates (Angstroms)
 Number     Number       Type             X           Y           Z
 ---------------------------------------------------------------------
      1          6           0        3.559252   -1.496012    1.309840
      2          6           0        3.830154   -1.431790   -0.047727
      3          6           0        4.178777   -0.018182   -0.476479
      4          6           0        3.557875   -0.142484    1.822457
      5          6           0        3.827738    0.737866    0.772343
      6          6           0        2.430024    0.005236    2.650758
      7          6           0        2.428995   -2.171260    1.819299
      8          6           0        1.766287   -1.262689    2.714763
      9          6           0        1.650996   -2.983147    0.960704
     10          6           0        2.909343   -2.009142   -0.931434
     11          6           0        1.902611   -2.895555   -0.461925
     12          6           0        3.127154    0.226709   -1.529011
     13          6           0        2.542014   -0.986731   -1.891439
     14          6           0        2.423794    1.445251   -1.626678
     15          6           0        3.102729    1.895489    0.705023
     16          6           0        2.560846    2.366182   -0.549491
     17          6           0        1.685750    1.212514    2.640087
     18          6           0        2.148851    2.200870    1.740812
     19          6           0        0.284059    1.168989    3.003536
     20          6           0        0.389934   -1.337406    2.968286
     21          6           0       -0.364147   -0.115440    3.208121
     22          6           0        0.340528   -3.236625    1.394179
     23          6           0       -0.261292   -2.470136    2.439238
     24          6           0       -0.696809   -3.644343    0.492204
     25          6           0        0.813889   -3.083779   -1.326986
     26          6           0       -0.456482   -3.563584   -0.870624
     27          6           0        1.321826   -1.031990   -2.615176
     28          6           0        0.573512   -2.202740   -2.433642
     29          6           0        1.207924    1.448471   -2.419124
     30          6           0        0.679599    0.210895   -2.960046
     31          6           0        0.312530    2.512594   -2.221655
     32          6           0        1.496022    3.247969   -0.227286
     33          6           0        1.245163    3.159982    1.196037
     34          6           0        0.425226    3.387199   -1.086945
     35          6           0       -0.511395    2.263848    2.626660
     36          6           0       -0.042006    3.239606    1.674823
     37          6           0       -1.921720    2.136225    2.423646
     38          6           0       -1.754353   -0.196313    3.084594
     39          6           0       -2.541156    0.928942    2.667920
     40          6           0       -1.674903   -2.484568    2.235154
     41          6           0       -1.959018   -3.215166    1.026244
     42          6           0       -2.414578   -1.374372    2.576777
     43          6           0       -2.958407   -2.767807    0.179608
     44          6           0       -1.481255   -3.062571   -1.747913
     45          6           0       -0.828976   -2.219575   -2.712436
     46          6           0       -2.713326   -2.691965   -1.240264
     47          6           0       -0.680017    0.144213   -3.321793
     48          6           0       -1.436488   -1.069721   -3.173705
     49          6           0       -1.084289    2.394241   -2.511509
     50          6           0       -1.573021    1.231633   -3.071255
     51          6           0       -0.891867    3.658804   -0.575051
     52          6           0       -1.126966    3.585269    0.792031
     53          6           0       -2.301986    2.929326    1.284351
     54          6           0       -1.835401    3.077398   -1.489579
     55          6           0       -3.250421    2.436793    0.399923
     56          6           0       -3.008679    2.512565   -1.017761
     57          6           0       -3.593389    0.464602    1.808145
     58          6           0       -3.513835   -0.967569    1.748243
     59          6           0       -3.757940   -1.632920    0.552999
     60          6           0       -3.914691    1.191517    0.671594
     61          6           0       -3.366530   -1.511626   -1.742425
     62          6           0       -2.756551   -0.732989   -2.715358
     63          6           0       -2.841581    0.699867   -2.652301
     64          6           0       -3.530665    1.312296   -1.618882
     65          6           0       -4.038705   -0.875345   -0.638560
     66          6           0       -4.117785    0.508248   -0.579251
     67         17           0        5.815492    0.333152   -1.096477
[...]
              Bcc     0.0391     5.252     1.874     1.752  0.9567  0.2813  0.0750
 
              Baa    -0.0565    -7.581    -2.705    -2.529  0.8807 -0.3771 -0.2867
     6 C(13)  Bbb    -0.0529    -7.104    -2.535    -2.370  0.3082  0.9158 -0.2576
              Bcc     0.1094    14.685     5.240     4.898  0.3597  0.1385  0.9227
 
              Baa    -0.0078    -1.049    -0.374    -0.350  0.9017  0.2506  0.3523
     7 C(13)  Bbb    -0.0059    -0.792    -0.283    -0.264 -0.4323  0.5233  0.7343
              Bcc     0.0137     1.841     0.657     0.614  0.0003  0.8145 -0.5802
 
              Baa    -0.0120    -1.615    -0.576    -0.539  0.8755 -0.3234 -0.3590
     8 C(13)  Bbb    -0.0101    -1.353    -0.483    -0.451  0.4682  0.7513  0.4650
              Bcc     0.0221     2.967     1.059     0.990  0.1193 -0.5752  0.8093
 
              Baa    -0.0052    -0.697    -0.249    -0.232 -0.1681  0.2360  0.9571
     9 C(13)  Bbb    -0.0027    -0.361    -0.129    -0.120  0.9152  0.3982  0.0625
              Bcc     0.0079     1.058     0.378     0.353 -0.3663  0.8864 -0.2829
 
              Baa    -0.0996   -13.366    -4.769    -4.458  0.5022 -0.2815  0.8177
    10 C(13)  Bbb    -0.0976   -13.102    -4.675    -4.370  0.6896  0.7009 -0.1822
              Bcc     0.1972    26.469     9.445     8.829 -0.5218  0.6553  0.5461
 
              Baa    -0.0621    -8.331    -2.973    -2.779 -0.4956  0.8438  0.2058
    11 C(13)  Bbb     0.0272     3.646     1.301     1.216 -0.0157 -0.2456  0.9693
              Bcc     0.0349     4.685     1.672     1.563  0.8684  0.4771  0.1349
 
              Baa    -0.1829   -24.538    -8.756    -8.185 -0.4168  0.8914 -0.1778
    12 C(13)  Bbb    -0.1790   -24.017    -8.570    -8.011  0.6355  0.4256  0.6442
              Bcc     0.3618    48.554    17.325    16.196 -0.6499 -0.1556  0.7439
 
              Baa    -0.0976   -13.101    -4.675    -4.370 -0.6258  0.2265  0.7463
    13 C(13)  Bbb     0.0411     5.520     1.970     1.841  0.6154 -0.4445  0.6509
              Bcc     0.0565     7.581     2.705     2.529  0.4792  0.8667  0.1389
 
              Baa    -0.0937   -12.574    -4.487    -4.194 -0.6172 -0.4540  0.6426
    14 C(13)  Bbb     0.0414     5.551     1.981     1.852  0.7117  0.0261  0.7020
              Bcc     0.0523     7.023     2.506     2.342 -0.3355  0.8906  0.3070
 
              Baa    -0.0348    -4.667    -1.665    -1.557  0.6168  0.7800 -0.1056
    15 C(13)  Bbb     0.0089     1.189     0.424     0.397  0.7276 -0.6162 -0.3015
              Bcc     0.0259     3.478     1.241     1.160  0.3002 -0.1091  0.9476
 
              Baa    -0.1469   -19.710    -7.033    -6.575  0.1767  0.3591  0.9164
    16 C(13)  Bbb    -0.1424   -19.113    -6.820    -6.375  0.7270 -0.6752  0.1244
              Bcc     0.2893    38.823    13.853    12.950  0.6635  0.6443 -0.3804
 
              Baa    -0.0205    -2.757    -0.984    -0.920  0.4185  0.4264  0.8019
    17 C(13)  Bbb     0.0084     1.129     0.403     0.377  0.9002 -0.0775 -0.4286
              Bcc     0.0121     1.628     0.581     0.543 -0.1206  0.9012 -0.4162
 
              Baa    -0.0470    -6.312    -2.252    -2.105  0.8591 -0.4098 -0.3067
    18 C(13)  Bbb    -0.0466    -6.252    -2.231    -2.085  0.1025  0.7247 -0.6814
              Bcc     0.0936    12.564     4.483     4.191  0.5015  0.5540  0.6646
 
              Baa    -0.0032    -0.427    -0.152    -0.143  0.3404  0.1801  0.9229
    19 C(13)  Bbb     0.0013     0.172     0.061     0.057 -0.0603  0.9836 -0.1698
              Bcc     0.0019     0.255     0.091     0.085  0.9383 -0.0021 -0.3457
 
              Baa    -0.0062    -0.829    -0.296    -0.276  0.0703 -0.3905  0.9179
    20 C(13)  Bbb     0.0014     0.195     0.069     0.065 -0.6589  0.6727  0.3366
              Bcc     0.0047     0.634     0.226     0.212  0.7490  0.6285  0.2100
 
              Baa    -0.0012    -0.158    -0.056    -0.053  0.1802  0.7206 -0.6695
    21 C(13)  Bbb    -0.0000    -0.006    -0.002    -0.002 -0.5892  0.6241  0.5131
              Bcc     0.0012     0.164     0.059     0.055  0.7876  0.3020  0.5371
 
              Baa    -0.0085    -1.135    -0.405    -0.379  0.2925  0.9130  0.2845
    22 C(13)  Bbb    -0.0044    -0.591    -0.211    -0.197  0.8689 -0.1295 -0.4777
              Bcc     0.0129     1.726     0.616     0.576  0.3993 -0.3870  0.8312
 
              Baa    -0.0243    -3.263    -1.164    -1.088 -0.5035  0.6670  0.5492
    23 C(13)  Bbb    -0.0239    -3.214    -1.147    -1.072  0.8518  0.4899  0.1859
              Bcc     0.0483     6.477     2.311     2.160  0.1450 -0.5613  0.8148
 
              Baa    -0.0434    -5.821    -2.077    -1.942  0.5189  0.0449  0.8537
    24 C(13)  Bbb    -0.0414    -5.556    -1.983    -1.853  0.8523 -0.1042 -0.5126
              Bcc     0.0848    11.377     4.060     3.795  0.0660  0.9935 -0.0924
 
              Baa    -0.0929   -12.470    -4.450    -4.160  0.4938 -0.2614  0.8293
    25 C(13)  Bbb    -0.0874   -11.725    -4.184    -3.911  0.7773  0.5602 -0.2862
              Bcc     0.1803    24.196     8.634     8.071 -0.3898  0.7860  0.4799
 
              Baa    -0.0136    -1.820    -0.649    -0.607 -0.4784  0.8405  0.2544
    26 C(13)  Bbb     0.0013     0.181     0.064     0.060  0.4192 -0.0360  0.9072
              Bcc     0.0122     1.639     0.585     0.547  0.7716  0.5406 -0.3351
 
              Baa    -0.0361    -4.842    -1.728    -1.615 -0.5684  0.7278 -0.3838
    27 C(13)  Bbb    -0.0344    -4.619    -1.648    -1.541  0.7406  0.6558  0.1466
              Bcc     0.0705     9.461     3.376     3.156 -0.3584  0.2008  0.9117
 
              Baa    -0.0613    -8.222    -2.934    -2.743 -0.3571  0.5366  0.7646
    28 C(13)  Bbb     0.0290     3.894     1.390     1.299  0.9286  0.2924  0.2285
              Bcc     0.0323     4.328     1.544     1.444 -0.1010  0.7916 -0.6027
 
              Baa    -0.0207    -2.782    -0.993    -0.928  0.0567  0.9182  0.3920
    29 C(13)  Bbb    -0.0178    -2.388    -0.852    -0.797  0.9009 -0.2163  0.3762
              Bcc     0.0385     5.171     1.845     1.725 -0.4302 -0.3318  0.8395
 
              Baa    -0.0459    -6.159    -2.198    -2.054 -0.3596 -0.0750  0.9301
    30 C(13)  Bbb     0.0203     2.722     0.971     0.908 -0.0634  0.9964  0.0558
              Bcc     0.0256     3.437     1.227     1.147  0.9309  0.0389  0.3631
 
              Baa    -0.0579    -7.772    -2.773    -2.592 -0.2837 -0.6008  0.7474
    31 C(13)  Bbb     0.0282     3.783     1.350     1.262  0.7526 -0.6225 -0.2146
              Bcc     0.0297     3.989     1.424     1.331  0.5942  0.5016  0.6288
 
              Baa    -0.0605    -8.116    -2.896    -2.707  0.4933  0.8606 -0.1269
    32 C(13)  Bbb     0.0226     3.030     1.081     1.011  0.0461  0.1198  0.9917
              Bcc     0.0379     5.085     1.815     1.696  0.8686 -0.4951  0.0194
 
              Baa    -0.0124    -1.658    -0.591    -0.553 -0.3845 -0.2749  0.8812
    33 C(13)  Bbb    -0.0104    -1.391    -0.496    -0.464  0.9224 -0.1508  0.3555
              Bcc     0.0227     3.048     1.088     1.017  0.0351  0.9496  0.3116
 
              Baa    -0.0676    -9.077    -3.239    -3.028  0.3204  0.3583  0.8769
    34 C(13)  Bbb    -0.0616    -8.272    -2.952    -2.759  0.9091 -0.3763 -0.1784
              Bcc     0.1293    17.349     6.191     5.787  0.2661  0.8544 -0.4464
 
              Baa    -0.0067    -0.902    -0.322    -0.301  0.1715  0.6711  0.7213
    35 C(13)  Bbb     0.0026     0.342     0.122     0.114 -0.5512  0.6722 -0.4943
              Bcc     0.0042     0.560     0.200     0.187  0.8165  0.3128 -0.4852
 
              Baa    -0.0095    -1.275    -0.455    -0.425 -0.1902 -0.6877  0.7006
    36 C(13)  Bbb    -0.0069    -0.921    -0.329    -0.307  0.9516 -0.3047 -0.0409
              Bcc     0.0164     2.195     0.783     0.732  0.2416  0.6589  0.7123
 
              Baa    -0.0107    -1.434    -0.512    -0.478  0.7981 -0.1915  0.5713
    37 C(13)  Bbb    -0.0089    -1.192    -0.425    -0.398  0.4501  0.8198 -0.3540
              Bcc     0.0196     2.626     0.937     0.876 -0.4005  0.5397  0.7405
 
              Baa    -0.0030    -0.397    -0.142    -0.132  0.6241 -0.4382  0.6469
    38 C(13)  Bbb    -0.0014    -0.190    -0.068    -0.063  0.5281  0.8468  0.0641
              Bcc     0.0044     0.586     0.209     0.196 -0.5759  0.3016  0.7598
 
              Baa    -0.0032    -0.435    -0.155    -0.145  0.7779 -0.2107  0.5920
    39 C(13)  Bbb    -0.0018    -0.247    -0.088    -0.083  0.2133  0.9747  0.0667
              Bcc     0.0051     0.682     0.244     0.228 -0.5910  0.0743  0.8032
 
              Baa    -0.0085    -1.136    -0.405    -0.379  0.7761 -0.0725  0.6264
    40 C(13)  Bbb    -0.0081    -1.086    -0.388    -0.362 -0.3042  0.8271  0.4727
              Bcc     0.0166     2.222     0.793     0.741 -0.5523 -0.5574  0.6199
 
              Baa    -0.0040    -0.537    -0.192    -0.179 -0.2527  0.9099  0.3290
    41 C(13)  Bbb    -0.0028    -0.382    -0.136    -0.127  0.4886 -0.1734  0.8551
              Bcc     0.0068     0.919     0.328     0.306  0.8351  0.3768 -0.4007
 
              Baa    -0.0019    -0.257    -0.092    -0.086  0.4924  0.6391  0.5908
    42 C(13)  Bbb    -0.0004    -0.054    -0.019    -0.018  0.7596 -0.6469  0.0668
              Bcc     0.0023     0.311     0.111     0.104 -0.4249 -0.4159  0.8040
 
              Baa    -0.0080    -1.078    -0.385    -0.359  0.0712  0.0167  0.9973
    43 C(13)  Bbb    -0.0062    -0.838    -0.299    -0.280  0.7702 -0.6363 -0.0443
              Bcc     0.0143     1.916     0.684     0.639  0.6339  0.7713 -0.0581
 
              Baa    -0.0025    -0.338    -0.121    -0.113 -0.4140  0.3101  0.8558
    44 C(13)  Bbb    -0.0011    -0.148    -0.053    -0.049  0.6358 -0.5743  0.5157
              Bcc     0.0036     0.486     0.174     0.162  0.6514  0.7577  0.0406
 
              Baa    -0.0266    -3.574    -1.275    -1.192  0.9652 -0.2546  0.0596
    45 C(13)  Bbb    -0.0249    -3.337    -1.191    -1.113  0.2480  0.8188 -0.5177
              Bcc     0.0515     6.910     2.466     2.305  0.0830  0.5145  0.8535
 
              Baa    -0.0040    -0.535    -0.191    -0.179  0.3957  0.9066  0.1469
    46 C(13)  Bbb     0.0019     0.249     0.089     0.083  0.8569 -0.3069 -0.4141
              Bcc     0.0021     0.287     0.102     0.096  0.3304 -0.2897  0.8983
 
              Baa    -0.0453    -6.082    -2.170    -2.029  0.9751  0.2064  0.0810
    47 C(13)  Bbb    -0.0439    -5.892    -2.102    -1.965 -0.2093  0.9774  0.0286
              Bcc     0.0892    11.974     4.273     3.994 -0.0733 -0.0449  0.9963
 
              Baa    -0.0371    -4.976    -1.776    -1.660  0.1160  0.2343  0.9652
    48 C(13)  Bbb     0.0170     2.287     0.816     0.763  0.9795 -0.1884 -0.0720
              Bcc     0.0200     2.689     0.960     0.897  0.1650  0.9537 -0.2513
 
              Baa    -0.0357    -4.793    -1.710    -1.599  0.9437  0.3162  0.0975
    49 C(13)  Bbb    -0.0340    -4.562    -1.628    -1.522 -0.3106  0.7448  0.5906
              Bcc     0.0697     9.356     3.338     3.121  0.1142 -0.5876  0.8010
 
              Baa    -0.0362    -4.855    -1.732    -1.619  0.1533 -0.3118  0.9377
    50 C(13)  Bbb     0.0163     2.187     0.780     0.730  0.9688  0.2345 -0.0804
              Bcc     0.0199     2.667     0.952     0.890 -0.1949  0.9208  0.3380
 
              Baa    -0.0072    -0.966    -0.345    -0.322  0.8113  0.5597  0.1686
    51 C(13)  Bbb    -0.0045    -0.598    -0.213    -0.199 -0.0842 -0.1736  0.9812
              Bcc     0.0117     1.564     0.558     0.522 -0.5785  0.8103  0.0937
 
              Baa    -0.0289    -3.878    -1.384    -1.294  0.6006 -0.0543  0.7977
    52 C(13)  Bbb    -0.0278    -3.726    -1.330    -1.243  0.7703  0.3069 -0.5590
              Bcc     0.0567     7.604     2.713     2.537 -0.2145  0.9502  0.2262
 
              Baa    -0.0027    -0.365    -0.130    -0.122 -0.0872  0.9836  0.1578
    53 C(13)  Bbb    -0.0008    -0.101    -0.036    -0.034  0.4558 -0.1015  0.8843
              Bcc     0.0035     0.466     0.166     0.156  0.8858  0.1490 -0.4395
 
              Baa    -0.0051    -0.679    -0.242    -0.227  0.0573 -0.6601  0.7490
    54 C(13)  Bbb     0.0013     0.180     0.064     0.060  0.7517  0.5222  0.4028
              Bcc     0.0037     0.499     0.178     0.167  0.6570 -0.5399 -0.5261
 
              Baa    -0.0045    -0.600    -0.214    -0.200  0.1399 -0.1049  0.9846
    55 C(13)  Bbb    -0.0039    -0.520    -0.185    -0.173  0.5982  0.8013  0.0004
              Bcc     0.0083     1.120     0.399     0.373  0.7890 -0.5890 -0.1748
 
              Baa    -0.0026    -0.350    -0.125    -0.117  0.2435  0.8831  0.4011
    56 C(13)  Bbb    -0.0013    -0.177    -0.063    -0.059 -0.5742 -0.2020  0.7934
              Bcc     0.0039     0.527     0.188     0.176  0.7816 -0.4235  0.4579
 
              Baa    -0.0025    -0.340    -0.121    -0.114  0.5346 -0.2631  0.8031
    57 C(13)  Bbb    -0.0015    -0.207    -0.074    -0.069  0.2857  0.9506  0.1212
              Bcc     0.0041     0.547     0.195     0.183  0.7954 -0.1646 -0.5834
 
              Baa    -0.0042    -0.559    -0.199    -0.186  0.5555 -0.0890  0.8267
    58 C(13)  Bbb    -0.0036    -0.479    -0.171    -0.160 -0.1589  0.9646  0.2106
              Bcc     0.0077     1.038     0.370     0.346  0.8162  0.2483 -0.5217
 
              Baa    -0.0035    -0.474    -0.169    -0.158  0.3265 -0.2643  0.9075
    59 C(13)  Bbb    -0.0027    -0.362    -0.129    -0.121 -0.2111  0.9155  0.3426
              Bcc     0.0062     0.836     0.298     0.279  0.9213  0.3035 -0.2431
 
              Baa    -0.0040    -0.536    -0.191    -0.179  0.9122 -0.2709 -0.3073
    60 C(13)  Bbb     0.0016     0.218     0.078     0.073  0.3718  0.2325  0.8987
              Bcc     0.0024     0.317     0.113     0.106  0.1720  0.9341 -0.3128
 
              Baa    -0.0079    -1.066    -0.380    -0.356  0.7440  0.4759  0.4689
    61 C(13)  Bbb     0.0039     0.521     0.186     0.174  0.6578 -0.3986 -0.6391
              Bcc     0.0041     0.545     0.195     0.182 -0.1173  0.7840 -0.6096
 
              Baa    -0.0011    -0.153    -0.055    -0.051 -0.4704 -0.0201  0.8822
    62 C(13)  Bbb    -0.0004    -0.053    -0.019    -0.018 -0.5429  0.7947 -0.2714
              Bcc     0.0015     0.207     0.074     0.069  0.6957  0.6066  0.3847
 
              Baa    -0.0028    -0.382    -0.136    -0.127  0.7542  0.0961 -0.6496
    63 C(13)  Bbb    -0.0022    -0.295    -0.105    -0.098  0.0821  0.9677  0.2385
              Bcc     0.0050     0.676     0.241     0.226  0.6515 -0.2332  0.7219
 
              Baa    -0.0131    -1.754    -0.626    -0.585  0.7939 -0.3725  0.4805
    64 C(13)  Bbb     0.0064     0.858     0.306     0.286 -0.0633  0.7354  0.6747
              Bcc     0.0067     0.895     0.319     0.299  0.6047  0.5661 -0.5603
 
              Baa    -0.0051    -0.682    -0.243    -0.227  0.9476  0.2917  0.1301
    65 C(13)  Bbb     0.0022     0.300     0.107     0.100 -0.2864  0.5956  0.7505
              Bcc     0.0028     0.382     0.136     0.128 -0.1414  0.7484 -0.6479
 
              Baa    -0.0005    -0.069    -0.025    -0.023 -0.4965  0.6372 -0.5896
    66 C(13)  Bbb    -0.0001    -0.014    -0.005    -0.005 -0.0709  0.6471  0.7591
              Bcc     0.0006     0.083     0.030     0.028  0.8652  0.4186 -0.2761
 
              Baa    -0.0976    -5.106    -1.822    -1.703  0.0247  0.8468 -0.5314
    67 Cl(35) Bbb    -0.0821    -4.295    -1.532    -1.433  0.0425  0.5302  0.8468
              Bcc     0.1796     9.401     3.355     3.136  0.9988 -0.0435 -0.0229
 

 ---------------------------------------------------------------------------------

 No NMR shielding tensors so no spin-rotation constants.
 Leave Link  601 at Fri Jul 15 04:48:17 2022, MaxMem=  1342177280 cpu:              86.0 elap:               2.0
 (Enter /home/mkliu/g16/l9999.exe)
 1\1\GINC-NODE05\FOpt\UB3LYP\6-311G(d,p)\C66Cl1(2)\MKLIU\15-Jul-2022\0\
 \#P opt b3lyp/6-311G(d, p) empiricaldispersion=GD3\\force\\0,2\C,-1.21
 46966615,1.7826915459,-3.719468818\C,0.1212223258,2.0959901822,-3.7892
 54056\C,0.9261339046,0.8911999275,-4.2803508618\C,-1.378254015,0.35721
 65162,-3.9981809817\C,-0.1177475449,-0.2065697258,-4.2536636637\C,-2.2
 635126779,-0.1807908952,-3.0410052111\C,-2.0053476931,2.1146282336,-2.
 5796920242\C,-2.7147362816,0.9207368598,-2.1966310397\C,-1.4708051278,
 2.9766306351,-1.5783900093\C,0.7482719901,2.6933828031,-2.676909404\C,
 -0.0298799392,3.2747147213,-1.6247747726\C,1.924314545,0.725585847,-3.
 1454884531\C,1.9106299615,1.8848678798,-2.3394114406\C,2.2722253137,-0
 .5374290755,-2.6071518474\C,0.1823541001,-1.4180561603,-3.6854425119\C
 ,1.4718217275,-1.6573851733,-3.0218964157\C,-2.0066485926,-1.462605760
 1,-2.4712118797\C,-0.8233185429,-2.1277253565,-2.9288143486\C,-2.50132
 48716,-1.7502942541,-1.1258488779\C,-3.1083010739,0.6980871338,-0.8644
 75238\C,-3.0986383206,-0.6692856888,-0.3272912704\C,-2.0891442731,2.90
 12374549,-0.3113455209\C,-2.9530903936,1.8041555122,0.0237452612\C,-1.
 4099635408,3.310300987,0.9017324984\C,0.6486767423,3.4827217387,-0.406
 0769809\C,-0.051704444,3.6032092047,0.853362722\C,2.4598208219,1.88738
 8443,-1.0323426619\C,1.9209352173,2.8467858245,-0.1355185643\C,2.91970
 1107,-0.5740889655,-1.2946307919\C,3.0613890619,0.6629701322,-0.520110
 6116\C,2.915866793,-1.8016036546,-0.5837597516\C,1.285536937,-2.757042
 9422,-2.1380485914\C,-0.1399678634,-3.0605373927,-2.0825783594\C,2.046
 6824134,-2.8826854189,-0.9867426068\C,-1.9329704834,-2.8493043325,-0.4
 338182312\C,-0.7105211687,-3.4771697183,-0.9028180657\C,-1.9113178474,
 -2.918596679,0.9978780229\C,-3.134294075,-0.8097279118,1.077754101\C,-
 2.5197601937,-1.924913209,1.7461551846\C,-2.894137208,1.6105789441,1.4
 473564036\C,-1.938219051,2.545709946,2.0070242392\C,-3.0079755625,0.33
 60877064,1.9664770839\C,-1.1134284814,2.1449124847,3.0547060815\C,0.81
 73854036,3.1391826399,1.911161894\C,2.0406938069,2.6764575852,1.281283
 6382\C,0.304479319,2.4525890242,3.005373231\C,3.2472893935,0.573638753
 ,0.8826487911\C,2.7114735198,1.5732777868,1.7819546759\C,3.0145394502,
 -1.8520670515,0.8504953053\C,3.199206838,-0.6879048552,1.5742236559\C,
 1.4854413986,-3.4901124146,0.2046224568\C,0.1201472903,-3.7858532877,0
 .247458092\C,-0.6405502576,-3.4817541539,1.4324310833\C,2.1191363281,-
 2.8844393166,1.3499187905\C,-0.0139302481,-2.9722249019,2.5672538768\C
 ,1.4037725841,-2.6652197972,2.5244519817\C,-1.9133983015,-1.4607061584
 ,2.9795077885\C,-2.2175460536,-0.0548377673,3.1143255303\C,-1.26337177
 65,0.8255014927,3.6309276343\C,-0.6673804613,-1.9515750299,3.364013877
 7\C,1.0268641979,1.3200075108,3.5552032156\C,2.2276744858,0.9086125105
 ,2.9771893066\C,2.5288226636,-0.4986429742,2.8469069682\C,1.6211822666
 ,-1.4553368207,3.2960715303\C,0.0559462991,0.3260000855,3.9734270823\C
 ,0.3470003643,-1.0315939271,3.8448109953\Cl,1.7649712443,1.1034796808,
 -5.8941263534\\Version=ES64L-G16RevA.03\State=2-A\HF=-2975.5870134\S2=
 0.793785\S2-1=0.\S2A=0.75176\RMSD=7.811e-09\RMSF=8.000e-05\Dipole=-0.1
 447068,0.0861513,0.5647904\Quadrupole=1.901434,3.1758363,-5.0772703,-0
 .0298832,2.5118889,0.60565\PG=C01 [X(C66Cl1)]\\@


 WE'RE IN THE POSITION OF A VISITOR FROM ANOTHER
 DIMENSION WHO COMES TO EARTH AND SEES A CHESS MATCH.
 ASSUMING HE KNOWS IT'S A GAME, HE'S GOT TWO PROBLEMS:
 FIRST, FIGURE OUT THE RULES, AND SECOND, FIGURE OUT HOW TO WIN.
 NINETY PERCENT OF SCIENCE (INCLUDING VIRTUALLY ALL OF CHEMISRY)
 IS IN THAT SECOND CATEGORY.  THEY'RE TRYING TO APPLY
 THE LAWS THAT ARE ALREADY KNOWN.

                     -- SHELDON GLASHOW, 1979
 Job cpu time:       2 days 16 hours  3 minutes  1.9 seconds.
 Elapsed time:       0 days  1 hours 20 minutes 11.8 seconds.
 File lengths (MBytes):  RWF=   1602 Int=      0 D2E=      0 Chk=    145 Scr=      1
 Normal termination of Gaussian 16 at Fri Jul 15 04:48:19 2022.
