 Entering Gaussian System, Link 0=g16
 Input=dmiv3lplh2vb4_addon_4.gjf
 Output=dmiv3lplh2vb4_addon_4.log
 Initial command:
 /home/mkliu/g16/l1.exe "/data/scratch/Gau-206725.inp" -scrdir="/data/scratch/"
 Entering Link 1 = /home/mkliu/g16/l1.exe PID=    206726.
  
 Copyright (c) 1988,1990,1992,1993,1995,1998,2003,2009,2016,
            Gaussian, Inc.  All Rights Reserved.
  
 This is part of the Gaussian(R) 16 program.  It is based on
 the Gaussian(R) 09 system (copyright 2009, Gaussian, Inc.),
 the Gaussian(R) 03 system (copyright 2003, Gaussian, Inc.),
 the Gaussian(R) 98 system (copyright 1998, Gaussian, Inc.),
 the Gaussian(R) 94 system (copyright 1995, Gaussian, Inc.),
 the Gaussian 92(TM) system (copyright 1992, Gaussian, Inc.),
 the Gaussian 90(TM) system (copyright 1990, Gaussian, Inc.),
 the Gaussian 88(TM) system (copyright 1988, Gaussian, Inc.),
 the Gaussian 86(TM) system (copyright 1986, Carnegie Mellon
 University), and the Gaussian 82(TM) system (copyright 1983,
 Carnegie Mellon University). Gaussian is a federally registered
 trademark of Gaussian, Inc.
  
 This software contains proprietary and confidential information,
 including trade secrets, belonging to Gaussian, Inc.
  
 This software is provided under written license and may be
 used, copied, transmitted, or stored only in accord with that
 written license.
  
 The following legend is applicable only to US Government
 contracts under FAR:
  
                    RESTRICTED RIGHTS LEGEND
  
 Use, reproduction and disclosure by the US Government is
 subject to restrictions as set forth in subparagraphs (a)
 and (c) of the Commercial Computer Software - Restricted
 Rights clause in FAR 52.227-19.
  
 Gaussian, Inc.
 340 Quinnipiac St., Bldg. 40, Wallingford CT 06492
  
  
 ---------------------------------------------------------------
 Warning -- This program may not be used in any manner that
 competes with the business of Gaussian, Inc. or will provide
 assistance to any competitor of Gaussian, Inc.  The licensee
 of this program is prohibited from giving any competitor of
 Gaussian, Inc. access to this program.  By using this program,
 the user acknowledges that Gaussian, Inc. is engaged in the
 business of creating and licensing software in the field of
 computational chemistry and represents and warrants to the
 licensee that it is not a competitor of Gaussian, Inc. and that
 it will not use this program in any manner prohibited above.
 ---------------------------------------------------------------
  

 Cite this work as:
 Gaussian 16, Revision A.03,
 M. J. Frisch, G. W. Trucks, H. B. Schlegel, G. E. Scuseria, 
 M. A. Robb, J. R. Cheeseman, G. Scalmani, V. Barone, 
 G. A. Petersson, H. Nakatsuji, X. Li, M. Caricato, A. V. Marenich, 
 J. Bloino, B. G. Janesko, R. Gomperts, B. Mennucci, H. P. Hratchian, 
 J. V. Ortiz, A. F. Izmaylov, J. L. Sonnenberg, D. Williams-Young, 
 F. Ding, F. Lipparini, F. Egidi, J. Goings, B. Peng, A. Petrone, 
 T. Henderson, D. Ranasinghe, V. G. Zakrzewski, J. Gao, N. Rega, 
 G. Zheng, W. Liang, M. Hada, M. Ehara, K. Toyota, R. Fukuda, 
 J. Hasegawa, M. Ishida, T. Nakajima, Y. Honda, O. Kitao, H. Nakai, 
 T. Vreven, K. Throssell, J. A. Montgomery, Jr., J. E. Peralta, 
 F. Ogliaro, M. J. Bearpark, J. J. Heyd, E. N. Brothers, K. N. Kudin, 
 V. N. Staroverov, T. A. Keith, R. Kobayashi, J. Normand, 
 K. Raghavachari, A. P. Rendell, J. C. Burant, S. S. Iyengar, 
 J. Tomasi, M. Cossi, J. M. Millam, M. Klene, C. Adamo, R. Cammi, 
 J. W. Ochterski, R. L. Martin, K. Morokuma, O. Farkas, 
 J. B. Foresman, and D. J. Fox, Gaussian, Inc., Wallingford CT, 2016.
 
 ******************************************
 Gaussian 16:  ES64L-G16RevA.03 25-Dec-2016
                16-Jul-2022 
 ******************************************
 %mem=10GB
 %chk=dmiv3lplh2vb4_addon_4.chk
 %nprocshared=48
 Will use up to   48 processors via shared memory.
 -------------------------------------------------
 #P opt b3lyp/6-311G(d, p) empiricaldispersion=GD3
 -------------------------------------------------
 1/18=20,19=15,26=3,38=1/1,3;
 2/9=110,12=2,17=6,18=5,40=1/2;
 3/5=4,6=6,7=101,11=2,25=1,30=1,71=1,74=-5,124=31/1,2,3;
 4//1;
 5/5=2,38=5/2;
 6/7=2,8=2,9=2,10=2,28=1/1;
 7//1,2,3,16;
 1/18=20,19=15,26=3/3(2);
 2/9=110/2;
 99//99;
 2/9=110/2;
 3/5=4,6=6,7=101,11=2,25=1,30=1,71=1,74=-5,124=31/1,2,3;
 4/5=5,16=3,69=1/1;
 5/5=2,38=5/2;
 7//1,2,3,16;
 1/18=20,19=15,26=3/3(-5);
 2/9=110/2;
 6/7=2,8=2,9=2,10=2,19=2,28=1/1;
 99/9=1/99;
 Leave Link    1 at Sat Jul 16 05:06:18 2022, MaxMem=  1342177280 cpu:               2.2 elap:               0.0
 (Enter /home/mkliu/g16/l101.exe)
 -----
 force
 -----
 Symbolic Z-matrix:
 Charge =  0 Multiplicity = 1
 C                    -1.31728   1.88359  -3.89802 
 C                     0.20476   2.21849  -3.99242 
 C                     0.96649   0.88834  -4.29418 
 C                    -1.31346   0.3929   -3.90363 
 C                    -0.08287  -0.15529  -4.13667 
 C                    -2.18908  -0.16124  -2.96382 
 C                    -1.99014   2.09974  -2.57277 
 C                    -2.65451   0.92228  -2.1615 
 C                    -1.45773   2.93276  -1.59268 
 C                     0.71734   2.58759  -2.64877 
 C                    -0.01886   3.19894  -1.65557 
 C                     1.90323   0.69952  -3.12442 
 C                     1.85571   1.81897  -2.29646 
 C                     2.25663  -0.53736  -2.57789 
 C                     0.19843  -1.38818  -3.59155 
 C                     1.47116  -1.66364  -2.98088 
 C                    -1.96553  -1.43876  -2.41052 
 C                    -0.8032   -2.09483  -2.87199 
 C                    -2.4904   -1.73753  -1.09229 
 C                    -3.08681   0.68295  -0.8411 
 C                    -3.09295  -0.66942  -0.31228 
 C                    -2.05696   2.84101  -0.32712 
 C                    -2.92976   1.77385   0.0244 
 C                    -1.38807   3.25119   0.87128 
 C                     0.66337   3.37593  -0.42123 
 C                    -0.03843   3.52056   0.82611 
 C                     2.4449    1.82136  -1.01432 
 C                     1.90642   2.79358  -0.14209 
 C                     2.90437  -0.57032  -1.27509 
 C                     3.04654   0.62912  -0.53519 
 C                     2.90134  -1.81186  -0.57523 
 C                     1.28882  -2.75748  -2.11598 
 C                    -0.1289   -3.04982  -2.0492 
 C                     2.04592  -2.86409  -0.95607 
 C                    -1.92142  -2.82624  -0.41773 
 C                    -0.70629  -3.45541  -0.87761 
 C                    -1.91242  -2.90897   1.01187 
 C                    -3.13674  -0.80686   1.08107 
 C                    -2.52953  -1.92207   1.75118 
 C                    -2.88696   1.59932   1.4447 
 C                    -1.94015   2.52622   1.99201 
 C                    -3.01796   0.32831   1.96471 
 C                    -1.12837   2.12513   3.03538 
 C                     0.81854   3.08435   1.89429 
 C                     2.03473   2.62566   1.2871 
 C                     0.28343   2.41961   2.981 
 C                     3.48783   0.60224   0.91934 
 C                     2.71157   1.55211   1.7938 
 C                     2.99107  -1.83953   0.8731 
 C                     3.19324  -0.70019   1.59359 
 C                     1.47185  -3.47237   0.23018 
 C                     0.1192   -3.76122   0.26648 
 C                    -0.65788  -3.46657   1.43787 
 C                     2.09444  -2.8561    1.36261 
 C                    -0.04311  -2.95202   2.56949 
 C                     1.36235  -2.64257   2.5203 
 C                    -1.93967  -1.45988   2.97738 
 C                    -2.24027  -0.05778   3.10689 
 C                    -1.29182   0.81777   3.61229 
 C                    -0.70074  -1.94444   3.35544 
 C                     0.99203   1.30262   3.5197 
 C                     2.19047   0.89245   2.94142 
 C                     2.48763  -0.50447   2.8172 
 C                     1.57488  -1.44738   3.27427 
 C                     0.02662   0.3241    3.93665 
 C                     0.31419  -1.02505   3.81416 
 Cl                   -2.25669   2.6318   -5.22677 
 Cl                    0.56197   3.54339  -5.14265 
 Cl                    1.8057    0.79614  -5.86319 
 Cl                    5.27172   1.00311   0.91065 
 
 ITRead=  0  0  0  0  0  0  0  0  0  0  0  0  0  0  0  0  0  0  0  0
 ITRead=  0  0  0  0  0  0  0  0  0  0  0  0  0  0  0  0  0  0  0  0
 ITRead=  0  0  0  0  0  0  0  0  0  0  0  0  0  0  0  0  0  0  0  0
 ITRead=  0  0  0  0  0  0  0  0  0  0
 MicOpt= -1 -1 -1 -1 -1 -1 -1 -1 -1 -1 -1 -1 -1 -1 -1 -1 -1 -1 -1 -1
 MicOpt= -1 -1 -1 -1 -1 -1 -1 -1 -1 -1 -1 -1 -1 -1 -1 -1 -1 -1 -1 -1
 MicOpt= -1 -1 -1 -1 -1 -1 -1 -1 -1 -1 -1 -1 -1 -1 -1 -1 -1 -1 -1 -1
 MicOpt= -1 -1 -1 -1 -1 -1 -1 -1 -1 -1
 NAtoms=     70 NQM=       70 NQMF=       0 NMMI=      0 NMMIF=      0
                NMic=       0 NMicF=      0.
                    Isotopes and Nuclear Properties:
 (Nuclear quadrupole moments (NQMom) in fm**2, nuclear magnetic moments (NMagM)
  in nuclear magnetons)

  Atom         1           2           3           4           5           6           7           8           9          10
 IAtWgt=          12          12          12          12          12          12          12          12          12          12
 AtmWgt=  12.0000000  12.0000000  12.0000000  12.0000000  12.0000000  12.0000000  12.0000000  12.0000000  12.0000000  12.0000000
 NucSpn=           0           0           0           0           0           0           0           0           0           0
 AtZEff=  -0.0000000  -0.0000000  -0.0000000  -0.0000000  -0.0000000  -0.0000000  -0.0000000  -0.0000000  -0.0000000  -0.0000000
 NQMom=    0.0000000   0.0000000   0.0000000   0.0000000   0.0000000   0.0000000   0.0000000   0.0000000   0.0000000   0.0000000
 NMagM=    0.0000000   0.0000000   0.0000000   0.0000000   0.0000000   0.0000000   0.0000000   0.0000000   0.0000000   0.0000000
 AtZNuc=   6.0000000   6.0000000   6.0000000   6.0000000   6.0000000   6.0000000   6.0000000   6.0000000   6.0000000   6.0000000

  Atom        11          12          13          14          15          16          17          18          19          20
 IAtWgt=          12          12          12          12          12          12          12          12          12          12
 AtmWgt=  12.0000000  12.0000000  12.0000000  12.0000000  12.0000000  12.0000000  12.0000000  12.0000000  12.0000000  12.0000000
 NucSpn=           0           0           0           0           0           0           0           0           0           0
 AtZEff=  -0.0000000  -0.0000000  -0.0000000  -0.0000000  -0.0000000  -0.0000000  -0.0000000  -0.0000000  -0.0000000  -0.0000000
 NQMom=    0.0000000   0.0000000   0.0000000   0.0000000   0.0000000   0.0000000   0.0000000   0.0000000   0.0000000   0.0000000
 NMagM=    0.0000000   0.0000000   0.0000000   0.0000000   0.0000000   0.0000000   0.0000000   0.0000000   0.0000000   0.0000000
 AtZNuc=   6.0000000   6.0000000   6.0000000   6.0000000   6.0000000   6.0000000   6.0000000   6.0000000   6.0000000   6.0000000

  Atom        21          22          23          24          25          26          27          28          29          30
 IAtWgt=          12          12          12          12          12          12          12          12          12          12
 AtmWgt=  12.0000000  12.0000000  12.0000000  12.0000000  12.0000000  12.0000000  12.0000000  12.0000000  12.0000000  12.0000000
 NucSpn=           0           0           0           0           0           0           0           0           0           0
 AtZEff=  -0.0000000  -0.0000000  -0.0000000  -0.0000000  -0.0000000  -0.0000000  -0.0000000  -0.0000000  -0.0000000  -0.0000000
 NQMom=    0.0000000   0.0000000   0.0000000   0.0000000   0.0000000   0.0000000   0.0000000   0.0000000   0.0000000   0.0000000
 NMagM=    0.0000000   0.0000000   0.0000000   0.0000000   0.0000000   0.0000000   0.0000000   0.0000000   0.0000000   0.0000000
 AtZNuc=   6.0000000   6.0000000   6.0000000   6.0000000   6.0000000   6.0000000   6.0000000   6.0000000   6.0000000   6.0000000

  Atom        31          32          33          34          35          36          37          38          39          40
 IAtWgt=          12          12          12          12          12          12          12          12          12          12
 AtmWgt=  12.0000000  12.0000000  12.0000000  12.0000000  12.0000000  12.0000000  12.0000000  12.0000000  12.0000000  12.0000000
 NucSpn=           0           0           0           0           0           0           0           0           0           0
 AtZEff=  -0.0000000  -0.0000000  -0.0000000  -0.0000000  -0.0000000  -0.0000000  -0.0000000  -0.0000000  -0.0000000  -0.0000000
 NQMom=    0.0000000   0.0000000   0.0000000   0.0000000   0.0000000   0.0000000   0.0000000   0.0000000   0.0000000   0.0000000
 NMagM=    0.0000000   0.0000000   0.0000000   0.0000000   0.0000000   0.0000000   0.0000000   0.0000000   0.0000000   0.0000000
 AtZNuc=   6.0000000   6.0000000   6.0000000   6.0000000   6.0000000   6.0000000   6.0000000   6.0000000   6.0000000   6.0000000

  Atom        41          42          43          44          45          46          47          48          49          50
 IAtWgt=          12          12          12          12          12          12          12          12          12          12
 AtmWgt=  12.0000000  12.0000000  12.0000000  12.0000000  12.0000000  12.0000000  12.0000000  12.0000000  12.0000000  12.0000000
 NucSpn=           0           0           0           0           0           0           0           0           0           0
 AtZEff=  -0.0000000  -0.0000000  -0.0000000  -0.0000000  -0.0000000  -0.0000000  -0.0000000  -0.0000000  -0.0000000  -0.0000000
 NQMom=    0.0000000   0.0000000   0.0000000   0.0000000   0.0000000   0.0000000   0.0000000   0.0000000   0.0000000   0.0000000
 NMagM=    0.0000000   0.0000000   0.0000000   0.0000000   0.0000000   0.0000000   0.0000000   0.0000000   0.0000000   0.0000000
 AtZNuc=   6.0000000   6.0000000   6.0000000   6.0000000   6.0000000   6.0000000   6.0000000   6.0000000   6.0000000   6.0000000

  Atom        51          52          53          54          55          56          57          58          59          60
 IAtWgt=          12          12          12          12          12          12          12          12          12          12
 AtmWgt=  12.0000000  12.0000000  12.0000000  12.0000000  12.0000000  12.0000000  12.0000000  12.0000000  12.0000000  12.0000000
 NucSpn=           0           0           0           0           0           0           0           0           0           0
 AtZEff=  -0.0000000  -0.0000000  -0.0000000  -0.0000000  -0.0000000  -0.0000000  -0.0000000  -0.0000000  -0.0000000  -0.0000000
 NQMom=    0.0000000   0.0000000   0.0000000   0.0000000   0.0000000   0.0000000   0.0000000   0.0000000   0.0000000   0.0000000
 NMagM=    0.0000000   0.0000000   0.0000000   0.0000000   0.0000000   0.0000000   0.0000000   0.0000000   0.0000000   0.0000000
 AtZNuc=   6.0000000   6.0000000   6.0000000   6.0000000   6.0000000   6.0000000   6.0000000   6.0000000   6.0000000   6.0000000

  Atom        61          62          63          64          65          66          67          68          69          70
 IAtWgt=          12          12          12          12          12          12          35          35          35          35
 AtmWgt=  12.0000000  12.0000000  12.0000000  12.0000000  12.0000000  12.0000000  34.9688527  34.9688527  34.9688527  34.9688527
 NucSpn=           0           0           0           0           0           0           3           3           3           3
 AtZEff=  -0.0000000  -0.0000000  -0.0000000  -0.0000000  -0.0000000  -0.0000000  -0.0000000  -0.0000000  -0.0000000  -0.0000000
 NQMom=    0.0000000   0.0000000   0.0000000   0.0000000   0.0000000   0.0000000  -8.1650000  -8.1650000  -8.1650000  -8.1650000
 NMagM=    0.0000000   0.0000000   0.0000000   0.0000000   0.0000000   0.0000000   0.8218740   0.8218740   0.8218740   0.8218740
 AtZNuc=   6.0000000   6.0000000   6.0000000   6.0000000   6.0000000   6.0000000  17.0000000  17.0000000  17.0000000  17.0000000
 Leave Link  101 at Sat Jul 16 05:06:18 2022, MaxMem=  1342177280 cpu:              24.1 elap:               0.5
 (Enter /home/mkliu/g16/l103.exe)

 GradGradGradGradGradGradGradGradGradGradGradGradGradGradGradGradGradGrad
 Berny optimization.
 Initialization pass.
                           ----------------------------
                           !    Initial Parameters    !
                           ! (Angstroms and Degrees)  !
 --------------------------                            --------------------------
 ! Name  Definition              Value          Derivative Info.                !
 --------------------------------------------------------------------------------
 ! R1    R(1,2)                  1.5613         estimate D2E/DX2                !
 ! R2    R(1,4)                  1.4907         estimate D2E/DX2                !
 ! R3    R(1,7)                  1.5019         estimate D2E/DX2                !
 ! R4    R(1,67)                 1.7911         estimate D2E/DX2                !
 ! R5    R(2,3)                  1.5622         estimate D2E/DX2                !
 ! R6    R(2,10)                 1.4847         estimate D2E/DX2                !
 ! R7    R(2,68)                 1.7905         estimate D2E/DX2                !
 ! R8    R(3,5)                  1.4883         estimate D2E/DX2                !
 ! R9    R(3,12)                 1.5105         estimate D2E/DX2                !
 ! R10   R(3,69)                 1.7817         estimate D2E/DX2                !
 ! R11   R(4,5)                  1.3672         estimate D2E/DX2                !
 ! R12   R(4,6)                  1.3989         estimate D2E/DX2                !
 ! R13   R(5,15)                 1.3771         estimate D2E/DX2                !
 ! R14   R(6,8)                  1.4263         estimate D2E/DX2                !
 ! R15   R(6,17)                 1.41           estimate D2E/DX2                !
 ! R16   R(7,8)                  1.4131         estimate D2E/DX2                !
 ! R17   R(7,9)                  1.3921         estimate D2E/DX2                !
 ! R18   R(8,20)                 1.4098         estimate D2E/DX2                !
 ! R19   R(9,11)                 1.4646         estimate D2E/DX2                !
 ! R20   R(9,22)                 1.4033         estimate D2E/DX2                !
 ! R21   R(10,11)                1.3792         estimate D2E/DX2                !
 ! R22   R(10,13)                1.418          estimate D2E/DX2                !
 ! R23   R(11,25)                1.4214         estimate D2E/DX2                !
 ! R24   R(12,13)                1.3932         estimate D2E/DX2                !
 ! R25   R(12,14)                1.3977         estimate D2E/DX2                !
 ! R26   R(13,27)                1.411          estimate D2E/DX2                !
 ! R27   R(14,16)                1.431          estimate D2E/DX2                !
 ! R28   R(14,29)                1.4553         estimate D2E/DX2                !
 ! R29   R(15,16)                1.4383         estimate D2E/DX2                !
 ! R30   R(15,18)                1.4214         estimate D2E/DX2                !
 ! R31   R(16,32)                1.4063         estimate D2E/DX2                !
 ! R32   R(17,18)                1.4122         estimate D2E/DX2                !
 ! R33   R(17,19)                1.45           estimate D2E/DX2                !
 ! R34   R(18,33)                1.4296         estimate D2E/DX2                !
 ! R35   R(19,21)                1.4534         estimate D2E/DX2                !
 ! R36   R(19,35)                1.4015         estimate D2E/DX2                !
 ! R37   R(20,21)                1.4521         estimate D2E/DX2                !
 ! R38   R(20,23)                1.4014         estimate D2E/DX2                !
 ! R39   R(21,38)                1.4008         estimate D2E/DX2                !
 ! R40   R(22,23)                1.4227         estimate D2E/DX2                !
 ! R41   R(22,24)                1.4324         estimate D2E/DX2                !
 ! R42   R(23,40)                1.4316         estimate D2E/DX2                !
 ! R43   R(24,26)                1.377          estimate D2E/DX2                !
 ! R44   R(24,41)                1.4444         estimate D2E/DX2                !
 ! R45   R(25,26)                1.4385         estimate D2E/DX2                !
 ! R46   R(25,28)                1.4008         estimate D2E/DX2                !
 ! R47   R(26,44)                1.4373         estimate D2E/DX2                !
 ! R48   R(27,28)                1.4128         estimate D2E/DX2                !
 ! R49   R(27,30)                1.4188         estimate D2E/DX2                !
 ! R50   R(28,45)                1.4447         estimate D2E/DX2                !
 ! R51   R(29,30)                1.4164         estimate D2E/DX2                !
 ! R52   R(29,31)                1.4252         estimate D2E/DX2                !
 ! R53   R(30,47)                1.5202         estimate D2E/DX2                !
 ! R54   R(31,34)                1.4085         estimate D2E/DX2                !
 ! R55   R(31,49)                1.4514         estimate D2E/DX2                !
 ! R56   R(32,33)                1.4491         estimate D2E/DX2                !
 ! R57   R(32,34)                1.3892         estimate D2E/DX2                !
 ! R58   R(33,36)                1.3677         estimate D2E/DX2                !
 ! R59   R(34,51)                1.4515         estimate D2E/DX2                !
 ! R60   R(35,36)                1.4436         estimate D2E/DX2                !
 ! R61   R(35,37)                1.432          estimate D2E/DX2                !
 ! R62   R(36,52)                1.4436         estimate D2E/DX2                !
 ! R63   R(37,39)                1.3789         estimate D2E/DX2                !
 ! R64   R(37,53)                1.4375         estimate D2E/DX2                !
 ! R65   R(38,39)                1.4358         estimate D2E/DX2                !
 ! R66   R(38,42)                1.4435         estimate D2E/DX2                !
 ! R67   R(39,57)                1.437          estimate D2E/DX2                !
 ! R68   R(40,41)                1.4336         estimate D2E/DX2                !
 ! R69   R(40,42)                1.3795         estimate D2E/DX2                !
 ! R70   R(41,43)                1.3815         estimate D2E/DX2                !
 ! R71   R(42,58)                1.4347         estimate D2E/DX2                !
 ! R72   R(43,46)                1.4432         estimate D2E/DX2                !
 ! R73   R(43,59)                1.4383         estimate D2E/DX2                !
 ! R74   R(44,45)                1.4346         estimate D2E/DX2                !
 ! R75   R(44,46)                1.3817         estimate D2E/DX2                !
 ! R76   R(45,48)                1.3665         estimate D2E/DX2                !
 ! R77   R(46,61)                1.4283         estimate D2E/DX2                !
 ! R78   R(47,48)                1.5065         estimate D2E/DX2                !
 ! R79   R(47,50)                1.4959         estimate D2E/DX2                !
 ! R80   R(47,70)                1.8284         estimate D2E/DX2                !
 ! R81   R(48,62)                1.4226         estimate D2E/DX2                !
 ! R82   R(49,50)                1.3631         estimate D2E/DX2                !
 ! R83   R(49,54)                1.4412         estimate D2E/DX2                !
 ! R84   R(50,63)                1.426          estimate D2E/DX2                !
 ! R85   R(51,52)                1.3836         estimate D2E/DX2                !
 ! R86   R(51,54)                1.4317         estimate D2E/DX2                !
 ! R87   R(52,53)                1.4363         estimate D2E/DX2                !
 ! R88   R(53,55)                1.3868         estimate D2E/DX2                !
 ! R89   R(54,56)                1.3863         estimate D2E/DX2                !
 ! R90   R(55,56)                1.44           estimate D2E/DX2                !
 ! R91   R(55,60)                1.4372         estimate D2E/DX2                !
 ! R92   R(56,64)                1.429          estimate D2E/DX2                !
 ! R93   R(57,58)                1.4398         estimate D2E/DX2                !
 ! R94   R(57,60)                1.383          estimate D2E/DX2                !
 ! R95   R(58,59)                1.3862         estimate D2E/DX2                !
 ! R96   R(59,65)                1.4447         estimate D2E/DX2                !
 ! R97   R(60,66)                1.4442         estimate D2E/DX2                !
 ! R98   R(61,62)                1.3924         estimate D2E/DX2                !
 ! R99   R(61,65)                1.4364         estimate D2E/DX2                !
 ! R100  R(62,63)                1.4336         estimate D2E/DX2                !
 ! R101  R(63,64)                1.3896         estimate D2E/DX2                !
 ! R102  R(64,66)                1.435          estimate D2E/DX2                !
 ! R103  R(65,66)                1.3849         estimate D2E/DX2                !
 ! A1    A(2,1,4)              102.2262         estimate D2E/DX2                !
 ! A2    A(2,1,7)              117.3367         estimate D2E/DX2                !
 ! A3    A(2,1,67)             112.1385         estimate D2E/DX2                !
 ! A4    A(4,1,7)               98.533          estimate D2E/DX2                !
 ! A5    A(4,1,67)             114.6007         estimate D2E/DX2                !
 ! A6    A(7,1,67)             111.0707         estimate D2E/DX2                !
 ! A7    A(1,2,3)              107.7204         estimate D2E/DX2                !
 ! A8    A(1,2,10)             109.5824         estimate D2E/DX2                !
 ! A9    A(1,2,68)             113.0817         estimate D2E/DX2                !
 ! A10   A(3,2,10)             102.5999         estimate D2E/DX2                !
 ! A11   A(3,2,68)             114.1207         estimate D2E/DX2                !
 ! A12   A(10,2,68)            109.18           estimate D2E/DX2                !
 ! A13   A(2,3,5)              103.4629         estimate D2E/DX2                !
 ! A14   A(2,3,12)             105.0248         estimate D2E/DX2                !
 ! A15   A(2,3,69)             116.3476         estimate D2E/DX2                !
 ! A16   A(5,3,12)             105.5238         estimate D2E/DX2                !
 ! A17   A(5,3,69)             112.8921         estimate D2E/DX2                !
 ! A18   A(12,3,69)            112.5449         estimate D2E/DX2                !
 ! A19   A(1,4,5)              113.8226         estimate D2E/DX2                !
 ! A20   A(1,4,6)              113.0775         estimate D2E/DX2                !
 ! A21   A(5,4,6)              121.2702         estimate D2E/DX2                !
 ! A22   A(3,5,4)              111.8082         estimate D2E/DX2                !
 ! A23   A(3,5,15)             121.7129         estimate D2E/DX2                !
 ! A24   A(4,5,15)             118.3839         estimate D2E/DX2                !
 ! A25   A(4,6,8)              106.3343         estimate D2E/DX2                !
 ! A26   A(4,6,17)             121.5522         estimate D2E/DX2                !
 ! A27   A(8,6,17)             121.2836         estimate D2E/DX2                !
 ! A28   A(1,7,8)              110.3353         estimate D2E/DX2                !
 ! A29   A(1,7,9)              122.4115         estimate D2E/DX2                !
 ! A30   A(8,7,9)              118.2621         estimate D2E/DX2                !
 ! A31   A(6,8,7)              108.4117         estimate D2E/DX2                !
 ! A32   A(6,8,20)             119.8633         estimate D2E/DX2                !
 ! A33   A(7,8,20)             123.93           estimate D2E/DX2                !
 ! A34   A(7,9,11)             117.016          estimate D2E/DX2                !
 ! A35   A(7,9,22)             115.6266         estimate D2E/DX2                !
 ! A36   A(11,9,22)            118.0424         estimate D2E/DX2                !
 ! A37   A(2,10,11)            125.2831         estimate D2E/DX2                !
 ! A38   A(2,10,13)            111.5457         estimate D2E/DX2                !
 ! A39   A(11,10,13)           119.3323         estimate D2E/DX2                !
 ! A40   A(9,11,10)            118.3444         estimate D2E/DX2                !
 ! A41   A(9,11,25)            117.1855         estimate D2E/DX2                !
 ! A42   A(10,11,25)           115.1092         estimate D2E/DX2                !
 ! A43   A(3,12,13)            109.7944         estimate D2E/DX2                !
 ! A44   A(3,12,14)            124.7692         estimate D2E/DX2                !
 ! A45   A(13,12,14)           119.1645         estimate D2E/DX2                !
 ! A46   A(10,13,12)           108.3773         estimate D2E/DX2                !
 ! A47   A(10,13,27)           124.0587         estimate D2E/DX2                !
 ! A48   A(12,13,27)           121.8117         estimate D2E/DX2                !
 ! A49   A(12,14,16)           116.5895         estimate D2E/DX2                !
 ! A50   A(12,14,29)           118.8575         estimate D2E/DX2                !
 ! A51   A(16,14,29)           118.5924         estimate D2E/DX2                !
 ! A52   A(5,15,16)            121.353          estimate D2E/DX2                !
 ! A53   A(5,15,18)            120.1025         estimate D2E/DX2                !
 ! A54   A(16,15,18)           108.2649         estimate D2E/DX2                !
 ! A55   A(14,16,15)           117.0352         estimate D2E/DX2                !
 ! A56   A(14,16,32)           120.6723         estimate D2E/DX2                !
 ! A57   A(15,16,32)           107.1789         estimate D2E/DX2                !
 ! A58   A(6,17,18)            115.0346         estimate D2E/DX2                !
 ! A59   A(6,17,19)            119.0811         estimate D2E/DX2                !
 ! A60   A(18,17,19)           119.9521         estimate D2E/DX2                !
 ! A61   A(15,18,17)           120.9601         estimate D2E/DX2                !
 ! A62   A(15,18,33)           106.9233         estimate D2E/DX2                !
 ! A63   A(17,18,33)           120.6962         estimate D2E/DX2                !
 ! A64   A(17,19,21)           119.1146         estimate D2E/DX2                !
 ! A65   A(17,19,35)           116.7883         estimate D2E/DX2                !
 ! A66   A(21,19,35)           118.7447         estimate D2E/DX2                !
 ! A67   A(8,20,21)            120.0313         estimate D2E/DX2                !
 ! A68   A(8,20,23)            114.3257         estimate D2E/DX2                !
 ! A69   A(21,20,23)           120.0361         estimate D2E/DX2                !
 ! A70   A(19,21,20)           119.1591         estimate D2E/DX2                !
 ! A71   A(19,21,38)           118.339          estimate D2E/DX2                !
 ! A72   A(20,21,38)           116.9846         estimate D2E/DX2                !
 ! A73   A(9,22,23)            122.2653         estimate D2E/DX2                !
 ! A74   A(9,22,24)            122.4387         estimate D2E/DX2                !
 ! A75   A(23,22,24)           107.1304         estimate D2E/DX2                !
 ! A76   A(20,23,22)           120.0037         estimate D2E/DX2                !
 ! A77   A(20,23,40)           121.4114         estimate D2E/DX2                !
 ! A78   A(22,23,40)           108.5554         estimate D2E/DX2                !
 ! A79   A(22,24,26)           119.0952         estimate D2E/DX2                !
 ! A80   A(22,24,41)           109.0822         estimate D2E/DX2                !
 ! A81   A(26,24,41)           119.8846         estimate D2E/DX2                !
 ! A82   A(11,25,26)           122.0968         estimate D2E/DX2                !
 ! A83   A(11,25,28)           123.1756         estimate D2E/DX2                !
 ! A84   A(26,25,28)           107.5738         estimate D2E/DX2                !
 ! A85   A(24,26,25)           119.1404         estimate D2E/DX2                !
 ! A86   A(24,26,44)           120.0435         estimate D2E/DX2                !
 ! A87   A(25,26,44)           108.8465         estimate D2E/DX2                !
 ! A88   A(13,27,28)           113.7661         estimate D2E/DX2                !
 ! A89   A(13,27,30)           118.8481         estimate D2E/DX2                !
 ! A90   A(28,27,30)           122.1007         estimate D2E/DX2                !
 ! A91   A(25,28,27)           120.085          estimate D2E/DX2                !
 ! A92   A(25,28,45)           108.921          estimate D2E/DX2                !
 ! A93   A(27,28,45)           119.7956         estimate D2E/DX2                !
 ! A94   A(14,29,30)           119.5456         estimate D2E/DX2                !
 ! A95   A(14,29,31)           117.2821         estimate D2E/DX2                !
 ! A96   A(30,29,31)           118.775          estimate D2E/DX2                !
 ! A97   A(27,30,29)           119.5128         estimate D2E/DX2                !
 ! A98   A(27,30,47)           117.4554         estimate D2E/DX2                !
 ! A99   A(29,30,47)           120.927          estimate D2E/DX2                !
 ! A100  A(29,31,34)           121.2842         estimate D2E/DX2                !
 ! A101  A(29,31,49)           120.4309         estimate D2E/DX2                !
 ! A102  A(34,31,49)           107.045          estimate D2E/DX2                !
 ! A103  A(16,32,33)           108.1861         estimate D2E/DX2                !
 ! A104  A(16,32,34)           120.1666         estimate D2E/DX2                !
 ! A105  A(33,32,34)           118.6342         estimate D2E/DX2                !
 ! A106  A(18,33,32)           107.4682         estimate D2E/DX2                !
 ! A107  A(18,33,36)           119.473          estimate D2E/DX2                !
 ! A108  A(32,33,36)           120.82           estimate D2E/DX2                !
 ! A109  A(31,34,32)           119.9598         estimate D2E/DX2                !
 ! A110  A(31,34,51)           109.4081         estimate D2E/DX2                !
 ! A111  A(32,34,51)           119.9332         estimate D2E/DX2                !
 ! A112  A(19,35,36)           121.8024         estimate D2E/DX2                !
 ! A113  A(19,35,37)           121.8667         estimate D2E/DX2                !
 ! A114  A(36,35,37)           106.7124         estimate D2E/DX2                !
 ! A115  A(33,36,35)           119.935          estimate D2E/DX2                !
 ! A116  A(33,36,52)           120.0214         estimate D2E/DX2                !
 ! A117  A(35,36,52)           108.7353         estimate D2E/DX2                !
 ! A118  A(35,37,39)           119.4126         estimate D2E/DX2                !
 ! A119  A(35,37,53)           108.89           estimate D2E/DX2                !
 ! A120  A(39,37,53)           120.6188         estimate D2E/DX2                !
 ! A121  A(21,38,39)           121.8187         estimate D2E/DX2                !
 ! A122  A(21,38,42)           121.9503         estimate D2E/DX2                !
 ! A123  A(39,38,42)           106.8771         estimate D2E/DX2                !
 ! A124  A(37,39,38)           119.6661         estimate D2E/DX2                !
 ! A125  A(37,39,57)           120.2641         estimate D2E/DX2                !
 ! A126  A(38,39,57)           108.7855         estimate D2E/DX2                !
 ! A127  A(23,40,41)           108.6438         estimate D2E/DX2                !
 ! A128  A(23,40,42)           118.9111         estimate D2E/DX2                !
 ! A129  A(41,40,42)           120.9656         estimate D2E/DX2                !
 ! A130  A(24,41,40)           106.3037         estimate D2E/DX2                !
 ! A131  A(24,41,43)           120.4722         estimate D2E/DX2                !
 ! A132  A(40,41,43)           119.2559         estimate D2E/DX2                !
 ! A133  A(38,42,40)           120.1081         estimate D2E/DX2                !
 ! A134  A(38,42,58)           108.6824         estimate D2E/DX2                !
 ! A135  A(40,42,58)           119.7723         estimate D2E/DX2                !
 ! A136  A(41,43,46)           119.1524         estimate D2E/DX2                !
 ! A137  A(41,43,59)           120.0044         estimate D2E/DX2                !
 ! A138  A(46,43,59)           108.1642         estimate D2E/DX2                !
 ! A139  A(26,44,45)           106.7353         estimate D2E/DX2                !
 ! A140  A(26,44,46)           119.9751         estimate D2E/DX2                !
 ! A141  A(45,44,46)           120.4879         estimate D2E/DX2                !
 ! A142  A(28,45,44)           107.8322         estimate D2E/DX2                !
 ! A143  A(28,45,48)           120.1398         estimate D2E/DX2                !
 ! A144  A(44,45,48)           120.9392         estimate D2E/DX2                !
 ! A145  A(43,46,44)           120.4405         estimate D2E/DX2                !
 ! A146  A(43,46,61)           108.1524         estimate D2E/DX2                !
 ! A147  A(44,46,61)           118.7337         estimate D2E/DX2                !
 ! A148  A(30,47,48)           113.2441         estimate D2E/DX2                !
 ! A149  A(30,47,50)           112.9222         estimate D2E/DX2                !
 ! A150  A(30,47,70)           105.9498         estimate D2E/DX2                !
 ! A151  A(48,47,50)           100.7111         estimate D2E/DX2                !
 ! A152  A(48,47,70)           111.5464         estimate D2E/DX2                !
 ! A153  A(50,47,70)           112.6544         estimate D2E/DX2                !
 ! A154  A(45,48,47)           122.3659         estimate D2E/DX2                !
 ! A155  A(45,48,62)           118.8157         estimate D2E/DX2                !
 ! A156  A(47,48,62)           111.3857         estimate D2E/DX2                !
 ! A157  A(31,49,50)           121.3788         estimate D2E/DX2                !
 ! A158  A(31,49,54)           108.2961         estimate D2E/DX2                !
 ! A159  A(50,49,54)           120.1538         estimate D2E/DX2                !
 ! A160  A(47,50,49)           121.2452         estimate D2E/DX2                !
 ! A161  A(47,50,63)           111.3898         estimate D2E/DX2                !
 ! A162  A(49,50,63)           119.6625         estimate D2E/DX2                !
 ! A163  A(34,51,52)           119.7083         estimate D2E/DX2                !
 ! A164  A(34,51,54)           107.1007         estimate D2E/DX2                !
 ! A165  A(52,51,54)           119.6191         estimate D2E/DX2                !
 ! A166  A(36,52,51)           119.6055         estimate D2E/DX2                !
 ! A167  A(36,52,53)           107.0697         estimate D2E/DX2                !
 ! A168  A(51,52,53)           120.4977         estimate D2E/DX2                !
 ! A169  A(37,53,52)           108.0636         estimate D2E/DX2                !
 ! A170  A(37,53,55)           118.9982         estimate D2E/DX2                !
 ! A171  A(52,53,55)           120.1179         estimate D2E/DX2                !
 ! A172  A(49,54,51)           107.7891         estimate D2E/DX2                !
 ! A173  A(49,54,56)           120.2353         estimate D2E/DX2                !
 ! A174  A(51,54,56)           119.8139         estimate D2E/DX2                !
 ! A175  A(53,55,56)           118.9816         estimate D2E/DX2                !
 ! A176  A(53,55,60)           120.2334         estimate D2E/DX2                !
 ! A177  A(56,55,60)           108.3394         estimate D2E/DX2                !
 ! A178  A(54,56,55)           120.7219         estimate D2E/DX2                !
 ! A179  A(54,56,64)           119.3993         estimate D2E/DX2                !
 ! A180  A(55,56,64)           107.8708         estimate D2E/DX2                !
 ! A181  A(39,57,58)           107.7137         estimate D2E/DX2                !
 ! A182  A(39,57,60)           119.2272         estimate D2E/DX2                !
 ! A183  A(58,57,60)           120.2409         estimate D2E/DX2                !
 ! A184  A(42,58,57)           107.675          estimate D2E/DX2                !
 ! A185  A(42,58,59)           119.4165         estimate D2E/DX2                !
 ! A186  A(57,58,59)           120.3331         estimate D2E/DX2                !
 ! A187  A(43,59,58)           120.3723         estimate D2E/DX2                !
 ! A188  A(43,59,65)           107.274          estimate D2E/DX2                !
 ! A189  A(58,59,65)           119.369          estimate D2E/DX2                !
 ! A190  A(55,60,57)           120.4023         estimate D2E/DX2                !
 ! A191  A(55,60,66)           107.364          estimate D2E/DX2                !
 ! A192  A(57,60,66)           119.5595         estimate D2E/DX2                !
 ! A193  A(46,61,62)           120.0486         estimate D2E/DX2                !
 ! A194  A(46,61,65)           107.986          estimate D2E/DX2                !
 ! A195  A(62,61,65)           119.8895         estimate D2E/DX2                !
 ! A196  A(48,62,61)           120.9108         estimate D2E/DX2                !
 ! A197  A(48,62,63)           107.8195         estimate D2E/DX2                !
 ! A198  A(61,62,63)           120.0949         estimate D2E/DX2                !
 ! A199  A(50,63,62)           108.0998         estimate D2E/DX2                !
 ! A200  A(50,63,64)           120.9381         estimate D2E/DX2                !
 ! A201  A(62,63,64)           119.7705         estimate D2E/DX2                !
 ! A202  A(56,64,63)           119.4489         estimate D2E/DX2                !
 ! A203  A(56,64,66)           108.3003         estimate D2E/DX2                !
 ! A204  A(63,64,66)           120.0723         estimate D2E/DX2                !
 ! A205  A(59,65,61)           108.385          estimate D2E/DX2                !
 ! A206  A(59,65,66)           120.1675         estimate D2E/DX2                !
 ! A207  A(61,65,66)           119.8942         estimate D2E/DX2                !
 ! A208  A(60,66,64)           108.0915         estimate D2E/DX2                !
 ! A209  A(60,66,65)           120.1549         estimate D2E/DX2                !
 ! A210  A(64,66,65)           120.1605         estimate D2E/DX2                !
 ! D1    D(4,1,2,3)              9.6179         estimate D2E/DX2                !
 ! D2    D(4,1,2,10)          -101.2821         estimate D2E/DX2                !
 ! D3    D(4,1,2,68)           136.6685         estimate D2E/DX2                !
 ! D4    D(7,1,2,3)            116.0527         estimate D2E/DX2                !
 ! D5    D(7,1,2,10)             5.1528         estimate D2E/DX2                !
 ! D6    D(7,1,2,68)          -116.8966         estimate D2E/DX2                !
 ! D7    D(67,1,2,3)          -113.613          estimate D2E/DX2                !
 ! D8    D(67,1,2,10)          135.4871         estimate D2E/DX2                !
 ! D9    D(67,1,2,68)           13.4377         estimate D2E/DX2                !
 ! D10   D(2,1,4,5)             -7.048          estimate D2E/DX2                !
 ! D11   D(2,1,4,6)            136.5522         estimate D2E/DX2                !
 ! D12   D(7,1,4,5)           -127.5553         estimate D2E/DX2                !
 ! D13   D(7,1,4,6)             16.045          estimate D2E/DX2                !
 ! D14   D(67,1,4,5)           114.5056         estimate D2E/DX2                !
 ! D15   D(67,1,4,6)          -101.8941         estimate D2E/DX2                !
 ! D16   D(2,1,7,8)           -126.4655         estimate D2E/DX2                !
 ! D17   D(2,1,7,9)             19.9905         estimate D2E/DX2                !
 ! D18   D(4,1,7,8)            -17.8855         estimate D2E/DX2                !
 ! D19   D(4,1,7,9)            128.5705         estimate D2E/DX2                !
 ! D20   D(67,1,7,8)           102.7065         estimate D2E/DX2                !
 ! D21   D(67,1,7,9)          -110.8375         estimate D2E/DX2                !
 ! D22   D(1,2,3,5)             -8.9907         estimate D2E/DX2                !
 ! D23   D(1,2,3,12)          -119.429          estimate D2E/DX2                !
 ! D24   D(1,2,3,69)           115.406          estimate D2E/DX2                !
 ! D25   D(10,2,3,5)           106.6015         estimate D2E/DX2                !
 ! D26   D(10,2,3,12)           -3.8368         estimate D2E/DX2                !
 ! D27   D(10,2,3,69)         -129.0017         estimate D2E/DX2                !
 ! D28   D(68,2,3,5)          -135.4333         estimate D2E/DX2                !
 ! D29   D(68,2,3,12)          114.1284         estimate D2E/DX2                !
 ! D30   D(68,2,3,69)          -11.0366         estimate D2E/DX2                !
 ! D31   D(1,2,10,11)          -30.536          estimate D2E/DX2                !
 ! D32   D(1,2,10,13)          127.0682         estimate D2E/DX2                !
 ! D33   D(3,2,10,11)         -144.7752         estimate D2E/DX2                !
 ! D34   D(3,2,10,13)           12.829          estimate D2E/DX2                !
 ! D35   D(68,2,10,11)          93.8182         estimate D2E/DX2                !
 ! D36   D(68,2,10,13)        -108.5776         estimate D2E/DX2                !
 ! D37   D(2,3,5,4)              4.8495         estimate D2E/DX2                !
 ! D38   D(2,3,5,15)          -143.269          estimate D2E/DX2                !
 ! D39   D(12,3,5,4)           114.9185         estimate D2E/DX2                !
 ! D40   D(12,3,5,15)          -33.2            estimate D2E/DX2                !
 ! D41   D(69,3,5,4)          -121.767          estimate D2E/DX2                !
 ! D42   D(69,3,5,15)           90.1145         estimate D2E/DX2                !
 ! D43   D(2,3,12,13)           -6.2394         estimate D2E/DX2                !
 ! D44   D(2,3,12,14)          145.4452         estimate D2E/DX2                !
 ! D45   D(5,3,12,13)         -115.1892         estimate D2E/DX2                !
 ! D46   D(5,3,12,14)           36.4953         estimate D2E/DX2                !
 ! D47   D(69,3,12,13)         121.276          estimate D2E/DX2                !
 ! D48   D(69,3,12,14)         -87.0394         estimate D2E/DX2                !
 ! D49   D(1,4,5,3)              1.4773         estimate D2E/DX2                !
 ! D50   D(1,4,5,15)           150.7668         estimate D2E/DX2                !
 ! D51   D(6,4,5,3)           -138.8267         estimate D2E/DX2                !
 ! D52   D(6,4,5,15)            10.4628         estimate D2E/DX2                !
 ! D53   D(1,4,6,8)             -8.6295         estimate D2E/DX2                !
 ! D54   D(1,4,6,17)          -153.212          estimate D2E/DX2                !
 ! D55   D(5,4,6,8)            131.9415         estimate D2E/DX2                !
 ! D56   D(5,4,6,17)           -12.641          estimate D2E/DX2                !
 ! D57   D(3,5,15,16)            8.6659         estimate D2E/DX2                !
 ! D58   D(3,5,15,18)          149.6922         estimate D2E/DX2                !
 ! D59   D(4,5,15,16)         -137.46           estimate D2E/DX2                !
 ! D60   D(4,5,15,18)            3.5664         estimate D2E/DX2                !
 ! D61   D(4,6,8,7)             -3.6513         estimate D2E/DX2                !
 ! D62   D(4,6,8,20)          -154.0521         estimate D2E/DX2                !
 ! D63   D(17,6,8,7)           141.0477         estimate D2E/DX2                !
 ! D64   D(17,6,8,20)           -9.3532         estimate D2E/DX2                !
 ! D65   D(4,6,17,18)            0.2685         estimate D2E/DX2                !
 ! D66   D(4,6,17,19)          153.1777         estimate D2E/DX2                !
 ! D67   D(8,6,17,18)         -139.133          estimate D2E/DX2                !
 ! D68   D(8,6,17,19)           13.7762         estimate D2E/DX2                !
 ! D69   D(1,7,8,6)             14.4257         estimate D2E/DX2                !
 ! D70   D(1,7,8,20)           163.3447         estimate D2E/DX2                !
 ! D71   D(9,7,8,6)           -133.5936         estimate D2E/DX2                !
 ! D72   D(9,7,8,20)            15.3254         estimate D2E/DX2                !
 ! D73   D(1,7,9,11)           -22.4043         estimate D2E/DX2                !
 ! D74   D(1,7,9,22)          -168.4892         estimate D2E/DX2                !
 ! D75   D(8,7,9,11)           121.5617         estimate D2E/DX2                !
 ! D76   D(8,7,9,22)           -24.5231         estimate D2E/DX2                !
 ! D77   D(6,8,20,21)           -1.7102         estimate D2E/DX2                !
 ! D78   D(6,8,20,23)          151.9037         estimate D2E/DX2                !
 ! D79   D(7,8,20,21)         -147.3201         estimate D2E/DX2                !
 ! D80   D(7,8,20,23)            6.2938         estimate D2E/DX2                !
 ! D81   D(7,9,11,10)           -1.6509         estimate D2E/DX2                !
 ! D82   D(7,9,11,25)         -146.6449         estimate D2E/DX2                !
 ! D83   D(22,9,11,10)         143.5991         estimate D2E/DX2                !
 ! D84   D(22,9,11,25)          -1.3948         estimate D2E/DX2                !
 ! D85   D(7,9,22,23)           13.8007         estimate D2E/DX2                !
 ! D86   D(7,9,22,24)          158.2879         estimate D2E/DX2                !
 ! D87   D(11,9,22,23)        -131.922          estimate D2E/DX2                !
 ! D88   D(11,9,22,24)          12.5652         estimate D2E/DX2                !
 ! D89   D(2,10,11,9)           30.3913         estimate D2E/DX2                !
 ! D90   D(2,10,11,25)         176.0898         estimate D2E/DX2                !
 ! D91   D(13,10,11,9)        -125.6239         estimate D2E/DX2                !
 ! D92   D(13,10,11,25)         20.0747         estimate D2E/DX2                !
 ! D93   D(2,10,13,12)         -17.5513         estimate D2E/DX2                !
 ! D94   D(2,10,13,27)        -171.0656         estimate D2E/DX2                !
 ! D95   D(11,10,13,12)        141.5477         estimate D2E/DX2                !
 ! D96   D(11,10,13,27)        -11.9665         estimate D2E/DX2                !
 ! D97   D(9,11,25,26)         -10.4758         estimate D2E/DX2                !
 ! D98   D(9,11,25,28)         136.232          estimate D2E/DX2                !
 ! D99   D(10,11,25,26)       -156.5873         estimate D2E/DX2                !
 ! D100  D(10,11,25,28)         -9.8796         estimate D2E/DX2                !
 ! D101  D(3,12,13,10)          14.4189         estimate D2E/DX2                !
 ! D102  D(3,12,13,27)         168.6473         estimate D2E/DX2                !
 ! D103  D(14,12,13,10)       -139.0805         estimate D2E/DX2                !
 ! D104  D(14,12,13,27)         15.1478         estimate D2E/DX2                !
 ! D105  D(3,12,14,16)         -13.1361         estimate D2E/DX2                !
 ! D106  D(3,12,14,29)        -165.62           estimate D2E/DX2                !
 ! D107  D(13,12,14,16)        136.1271         estimate D2E/DX2                !
 ! D108  D(13,12,14,29)        -16.3568         estimate D2E/DX2                !
 ! D109  D(10,13,27,28)         -7.7407         estimate D2E/DX2                !
 ! D110  D(10,13,27,30)        147.1474         estimate D2E/DX2                !
 ! D111  D(12,13,27,28)       -157.87           estimate D2E/DX2                !
 ! D112  D(12,13,27,30)         -2.9819         estimate D2E/DX2                !
 ! D113  D(12,14,16,15)        -16.7534         estimate D2E/DX2                !
 ! D114  D(12,14,16,32)       -150.24           estimate D2E/DX2                !
 ! D115  D(29,14,16,15)        135.806          estimate D2E/DX2                !
 ! D116  D(29,14,16,32)          2.3195         estimate D2E/DX2                !
 ! D117  D(12,14,29,30)          6.015          estimate D2E/DX2                !
 ! D118  D(12,14,29,31)        162.2088         estimate D2E/DX2                !
 ! D119  D(16,14,29,30)       -145.9171         estimate D2E/DX2                !
 ! D120  D(16,14,29,31)         10.2766         estimate D2E/DX2                !
 ! D121  D(5,15,16,14)          19.3855         estimate D2E/DX2                !
 ! D122  D(5,15,16,32)         158.6043         estimate D2E/DX2                !
 ! D123  D(18,15,16,14)       -125.6545         estimate D2E/DX2                !
 ! D124  D(18,15,16,32)         13.5643         estimate D2E/DX2                !
 ! D125  D(5,15,18,17)         -16.1147         estimate D2E/DX2                !
 ! D126  D(5,15,18,33)        -159.704          estimate D2E/DX2                !
 ! D127  D(16,15,18,17)        129.4401         estimate D2E/DX2                !
 ! D128  D(16,15,18,33)        -14.1492         estimate D2E/DX2                !
 ! D129  D(14,16,32,33)        129.8486         estimate D2E/DX2                !
 ! D130  D(14,16,32,34)        -10.8994         estimate D2E/DX2                !
 ! D131  D(15,16,32,33)         -7.5859         estimate D2E/DX2                !
 ! D132  D(15,16,32,34)       -148.3339         estimate D2E/DX2                !
 ! D133  D(6,17,18,15)          13.6375         estimate D2E/DX2                !
 ! D134  D(6,17,18,33)         152.3074         estimate D2E/DX2                !
 ! D135  D(19,17,18,15)       -139.0181         estimate D2E/DX2                !
 ! D136  D(19,17,18,33)         -0.3481         estimate D2E/DX2                !
 ! D137  D(6,17,19,21)          -7.2151         estimate D2E/DX2                !
 ! D138  D(6,17,19,35)        -161.088          estimate D2E/DX2                !
 ! D139  D(18,17,19,21)        144.346          estimate D2E/DX2                !
 ! D140  D(18,17,19,35)         -9.5269         estimate D2E/DX2                !
 ! D141  D(15,18,33,32)          9.3594         estimate D2E/DX2                !
 ! D142  D(15,18,33,36)        151.9957         estimate D2E/DX2                !
 ! D143  D(17,18,33,32)       -134.3458         estimate D2E/DX2                !
 ! D144  D(17,18,33,36)          8.2905         estimate D2E/DX2                !
 ! D145  D(17,19,21,20)         -3.4112         estimate D2E/DX2                !
 ! D146  D(17,19,21,38)       -156.4435         estimate D2E/DX2                !
 ! D147  D(35,19,21,20)        149.9507         estimate D2E/DX2                !
 ! D148  D(35,19,21,38)         -3.0815         estimate D2E/DX2                !
 ! D149  D(17,19,35,36)         12.0179         estimate D2E/DX2                !
 ! D150  D(17,19,35,37)        153.6356         estimate D2E/DX2                !
 ! D151  D(21,19,35,36)       -141.955          estimate D2E/DX2                !
 ! D152  D(21,19,35,37)         -0.3374         estimate D2E/DX2                !
 ! D153  D(8,20,21,19)           7.9032         estimate D2E/DX2                !
 ! D154  D(8,20,21,38)         161.2939         estimate D2E/DX2                !
 ! D155  D(23,20,21,19)       -144.2066         estimate D2E/DX2                !
 ! D156  D(23,20,21,38)          9.1842         estimate D2E/DX2                !
 ! D157  D(8,20,23,22)         -17.4421         estimate D2E/DX2                !
 ! D158  D(8,20,23,40)        -158.9958         estimate D2E/DX2                !
 ! D159  D(21,20,23,22)        136.1704         estimate D2E/DX2                !
 ! D160  D(21,20,23,40)         -5.3832         estimate D2E/DX2                !
 ! D161  D(19,21,38,39)          4.1303         estimate D2E/DX2                !
 ! D162  D(19,21,38,42)        146.2819         estimate D2E/DX2                !
 ! D163  D(20,21,38,39)       -149.4847         estimate D2E/DX2                !
 ! D164  D(20,21,38,42)         -7.3332         estimate D2E/DX2                !
 ! D165  D(9,22,23,20)           7.9679         estimate D2E/DX2                !
 ! D166  D(9,22,23,40)         153.929          estimate D2E/DX2                !
 ! D167  D(24,22,23,20)       -141.1679         estimate D2E/DX2                !
 ! D168  D(24,22,23,40)          4.7932         estimate D2E/DX2                !
 ! D169  D(9,22,24,26)         -11.8516         estimate D2E/DX2                !
 ! D170  D(9,22,24,41)        -154.5888         estimate D2E/DX2                !
 ! D171  D(23,22,24,26)        137.2185         estimate D2E/DX2                !
 ! D172  D(23,22,24,41)         -5.5187         estimate D2E/DX2                !
 ! D173  D(20,23,40,41)        143.0818         estimate D2E/DX2                !
 ! D174  D(20,23,40,42)         -0.6894         estimate D2E/DX2                !
 ! D175  D(22,23,40,41)         -2.3085         estimate D2E/DX2                !
 ! D176  D(22,23,40,42)       -146.0796         estimate D2E/DX2                !
 ! D177  D(22,24,26,25)         -0.3193         estimate D2E/DX2                !
 ! D178  D(22,24,26,44)       -138.8832         estimate D2E/DX2                !
 ! D179  D(41,24,26,25)        138.3842         estimate D2E/DX2                !
 ! D180  D(41,24,26,44)         -0.1797         estimate D2E/DX2                !
 ! D181  D(22,24,41,40)          4.0866         estimate D2E/DX2                !
 ! D182  D(22,24,41,43)        143.8062         estimate D2E/DX2                !
 ! D183  D(26,24,41,40)       -138.3089         estimate D2E/DX2                !
 ! D184  D(26,24,41,43)          1.4107         estimate D2E/DX2                !
 ! D185  D(11,25,26,24)         11.5078         estimate D2E/DX2                !
 ! D186  D(11,25,26,44)        154.2557         estimate D2E/DX2                !
 ! D187  D(28,25,26,24)       -139.6807         estimate D2E/DX2                !
 ! D188  D(28,25,26,44)          3.0672         estimate D2E/DX2                !
 ! D189  D(11,25,28,27)        -10.0196         estimate D2E/DX2                !
 ! D190  D(11,25,28,45)       -153.6936         estimate D2E/DX2                !
 ! D191  D(26,25,28,27)        140.7859         estimate D2E/DX2                !
 ! D192  D(26,25,28,45)         -2.8881         estimate D2E/DX2                !
 ! D193  D(24,26,44,45)        140.3262         estimate D2E/DX2                !
 ! D194  D(24,26,44,46)         -1.3973         estimate D2E/DX2                !
 ! D195  D(25,26,44,45)         -2.0289         estimate D2E/DX2                !
 ! D196  D(25,26,44,46)       -143.7524         estimate D2E/DX2                !
 ! D197  D(13,27,28,25)         18.0529         estimate D2E/DX2                !
 ! D198  D(13,27,28,45)        157.8322         estimate D2E/DX2                !
 ! D199  D(30,27,28,25)       -135.9192         estimate D2E/DX2                !
 ! D200  D(30,27,28,45)          3.8601         estimate D2E/DX2                !
 ! D201  D(13,27,30,29)         -7.5313         estimate D2E/DX2                !
 ! D202  D(13,27,30,47)       -171.1996         estimate D2E/DX2                !
 ! D203  D(28,27,30,29)        145.1786         estimate D2E/DX2                !
 ! D204  D(28,27,30,47)        -18.4897         estimate D2E/DX2                !
 ! D205  D(25,28,45,44)          1.6521         estimate D2E/DX2                !
 ! D206  D(25,28,45,48)        145.8732         estimate D2E/DX2                !
 ! D207  D(27,28,45,44)       -142.1443         estimate D2E/DX2                !
 ! D208  D(27,28,45,48)          2.0769         estimate D2E/DX2                !
 ! D209  D(14,29,30,27)          5.9557         estimate D2E/DX2                !
 ! D210  D(14,29,30,47)        169.0448         estimate D2E/DX2                !
 ! D211  D(31,29,30,27)       -149.8845         estimate D2E/DX2                !
 ! D212  D(31,29,30,47)         13.2047         estimate D2E/DX2                !
 ! D213  D(14,29,31,34)        -15.0567         estimate D2E/DX2                !
 ! D214  D(14,29,31,49)       -154.0583         estimate D2E/DX2                !
 ! D215  D(30,29,31,34)        141.3259         estimate D2E/DX2                !
 ! D216  D(30,29,31,49)          2.3243         estimate D2E/DX2                !
 ! D217  D(27,30,47,48)         25.7671         estimate D2E/DX2                !
 ! D218  D(27,30,47,50)        139.4232         estimate D2E/DX2                !
 ! D219  D(27,30,47,70)        -96.8114         estimate D2E/DX2                !
 ! D220  D(29,30,47,48)       -137.6579         estimate D2E/DX2                !
 ! D221  D(29,30,47,50)        -24.0018         estimate D2E/DX2                !
 ! D222  D(29,30,47,70)         99.7636         estimate D2E/DX2                !
 ! D223  D(29,31,34,32)          6.9185         estimate D2E/DX2                !
 ! D224  D(29,31,34,51)       -137.5436         estimate D2E/DX2                !
 ! D225  D(49,31,34,32)        150.6442         estimate D2E/DX2                !
 ! D226  D(49,31,34,51)          6.1822         estimate D2E/DX2                !
 ! D227  D(29,31,49,50)         -5.6052         estimate D2E/DX2                !
 ! D228  D(29,31,49,54)        139.6163         estimate D2E/DX2                !
 ! D229  D(34,31,49,50)       -149.7025         estimate D2E/DX2                !
 ! D230  D(34,31,49,54)         -4.4811         estimate D2E/DX2                !
 ! D231  D(16,32,33,18)         -1.0529         estimate D2E/DX2                !
 ! D232  D(16,32,33,36)       -143.0853         estimate D2E/DX2                !
 ! D233  D(34,32,33,18)        140.3919         estimate D2E/DX2                !
 ! D234  D(34,32,33,36)         -1.6405         estimate D2E/DX2                !
 ! D235  D(16,32,34,31)          6.3473         estimate D2E/DX2                !
 ! D236  D(16,32,34,51)        147.1054         estimate D2E/DX2                !
 ! D237  D(33,32,34,31)       -130.4257         estimate D2E/DX2                !
 ! D238  D(33,32,34,51)         10.3324         estimate D2E/DX2                !
 ! D239  D(18,33,36,35)         -5.9641         estimate D2E/DX2                !
 ! D240  D(18,33,36,52)       -145.5007         estimate D2E/DX2                !
 ! D241  D(32,33,36,35)        131.6533         estimate D2E/DX2                !
 ! D242  D(32,33,36,52)         -7.8834         estimate D2E/DX2                !
 ! D243  D(31,34,51,52)        134.8649         estimate D2E/DX2                !
 ! D244  D(31,34,51,54)         -5.5687         estimate D2E/DX2                !
 ! D245  D(32,34,51,52)         -9.6081         estimate D2E/DX2                !
 ! D246  D(32,34,51,54)       -150.0417         estimate D2E/DX2                !
 ! D247  D(19,35,36,33)         -4.441          estimate D2E/DX2                !
 ! D248  D(19,35,36,52)        139.1649         estimate D2E/DX2                !
 ! D249  D(37,35,36,33)       -151.0343         estimate D2E/DX2                !
 ! D250  D(37,35,36,52)         -7.4283         estimate D2E/DX2                !
 ! D251  D(19,35,37,39)          2.8479         estimate D2E/DX2                !
 ! D252  D(19,35,37,53)       -141.3338         estimate D2E/DX2                !
 ! D253  D(36,35,37,39)        149.4148         estimate D2E/DX2                !
 ! D254  D(36,35,37,53)          5.2332         estimate D2E/DX2                !
 ! D255  D(33,36,52,51)          8.6294         estimate D2E/DX2                !
 ! D256  D(33,36,52,53)        150.3576         estimate D2E/DX2                !
 ! D257  D(35,36,52,51)       -134.9398         estimate D2E/DX2                !
 ! D258  D(35,36,52,53)          6.7884         estimate D2E/DX2                !
 ! D259  D(35,37,39,38)         -1.847          estimate D2E/DX2                !
 ! D260  D(35,37,39,57)       -141.4396         estimate D2E/DX2                !
 ! D261  D(53,37,39,38)        138.1068         estimate D2E/DX2                !
 ! D262  D(53,37,39,57)         -1.4858         estimate D2E/DX2                !
 ! D263  D(35,37,53,52)         -1.0977         estimate D2E/DX2                !
 ! D264  D(35,37,53,55)        140.5507         estimate D2E/DX2                !
 ! D265  D(39,37,53,52)       -144.7717         estimate D2E/DX2                !
 ! D266  D(39,37,53,55)         -3.1233         estimate D2E/DX2                !
 ! D267  D(21,38,39,37)         -1.6707         estimate D2E/DX2                !
 ! D268  D(21,38,39,57)        142.0746         estimate D2E/DX2                !
 ! D269  D(42,38,39,37)       -148.7105         estimate D2E/DX2                !
 ! D270  D(42,38,39,57)         -4.9652         estimate D2E/DX2                !
 ! D271  D(21,38,42,40)          1.5056         estimate D2E/DX2                !
 ! D272  D(21,38,42,58)       -141.8159         estimate D2E/DX2                !
 ! D273  D(39,38,42,40)        148.4923         estimate D2E/DX2                !
 ! D274  D(39,38,42,58)          5.1708         estimate D2E/DX2                !
 ! D275  D(37,39,57,58)        146.3999         estimate D2E/DX2                !
 ! D276  D(37,39,57,60)          4.7218         estimate D2E/DX2                !
 ! D277  D(38,39,57,58)          2.9086         estimate D2E/DX2                !
 ! D278  D(38,39,57,60)       -138.7695         estimate D2E/DX2                !
 ! D279  D(23,40,41,24)         -1.0898         estimate D2E/DX2                !
 ! D280  D(23,40,41,43)       -141.3952         estimate D2E/DX2                !
 ! D281  D(42,40,41,24)        141.8003         estimate D2E/DX2                !
 ! D282  D(42,40,41,43)          1.4949         estimate D2E/DX2                !
 ! D283  D(23,40,42,38)          2.6845         estimate D2E/DX2                !
 ! D284  D(23,40,42,58)        141.9997         estimate D2E/DX2                !
 ! D285  D(41,40,42,38)       -136.5415         estimate D2E/DX2                !
 ! D286  D(41,40,42,58)          2.7737         estimate D2E/DX2                !
 ! D287  D(24,41,43,46)         -1.0514         estimate D2E/DX2                !
 ! D288  D(24,41,43,59)       -138.2993         estimate D2E/DX2                !
 ! D289  D(40,41,43,46)        133.6116         estimate D2E/DX2                !
 ! D290  D(40,41,43,59)         -3.6363         estimate D2E/DX2                !
 ! D291  D(38,42,58,57)         -3.4238         estimate D2E/DX2                !
 ! D292  D(38,42,58,59)        138.5916         estimate D2E/DX2                !
 ! D293  D(40,42,58,57)       -146.889          estimate D2E/DX2                !
 ! D294  D(40,42,58,59)         -4.8736         estimate D2E/DX2                !
 ! D295  D(41,43,46,44)         -0.5348         estimate D2E/DX2                !
 ! D296  D(41,43,46,61)       -141.7472         estimate D2E/DX2                !
 ! D297  D(59,43,46,44)        141.2448         estimate D2E/DX2                !
 ! D298  D(59,43,46,61)          0.0324         estimate D2E/DX2                !
 ! D299  D(41,43,59,58)          1.5205         estimate D2E/DX2                !
 ! D300  D(41,43,59,65)        142.5562         estimate D2E/DX2                !
 ! D301  D(46,43,59,58)       -139.8757         estimate D2E/DX2                !
 ! D302  D(46,43,59,65)          1.1601         estimate D2E/DX2                !
 ! D303  D(26,44,45,28)          0.2588         estimate D2E/DX2                !
 ! D304  D(26,44,45,48)       -143.6204         estimate D2E/DX2                !
 ! D305  D(46,44,45,28)        141.7455         estimate D2E/DX2                !
 ! D306  D(46,44,45,48)         -2.1337         estimate D2E/DX2                !
 ! D307  D(26,44,46,43)          1.7582         estimate D2E/DX2                !
 ! D308  D(26,44,46,61)        139.0044         estimate D2E/DX2                !
 ! D309  D(45,44,46,43)       -134.7381         estimate D2E/DX2                !
 ! D310  D(45,44,46,61)          2.5081         estimate D2E/DX2                !
 ! D311  D(28,45,48,47)          7.6437         estimate D2E/DX2                !
 ! D312  D(28,45,48,62)       -139.6421         estimate D2E/DX2                !
 ! D313  D(44,45,48,47)        147.1851         estimate D2E/DX2                !
 ! D314  D(44,45,48,62)         -0.1008         estimate D2E/DX2                !
 ! D315  D(43,46,61,62)        141.2511         estimate D2E/DX2                !
 ! D316  D(43,46,61,65)         -1.2237         estimate D2E/DX2                !
 ! D317  D(44,46,61,62)         -0.7295         estimate D2E/DX2                !
 ! D318  D(44,46,61,65)       -143.2043         estimate D2E/DX2                !
 ! D319  D(30,47,48,45)        -21.1716         estimate D2E/DX2                !
 ! D320  D(30,47,48,62)        128.2617         estimate D2E/DX2                !
 ! D321  D(50,47,48,45)       -142.0118         estimate D2E/DX2                !
 ! D322  D(50,47,48,62)          7.4214         estimate D2E/DX2                !
 ! D323  D(70,47,48,45)         98.2432         estimate D2E/DX2                !
 ! D324  D(70,47,48,62)       -112.3235         estimate D2E/DX2                !
 ! D325  D(30,47,50,49)         20.8223         estimate D2E/DX2                !
 ! D326  D(30,47,50,63)       -128.4165         estimate D2E/DX2                !
 ! D327  D(48,47,50,49)        141.8913         estimate D2E/DX2                !
 ! D328  D(48,47,50,63)         -7.3475         estimate D2E/DX2                !
 ! D329  D(70,47,50,49)        -99.1641         estimate D2E/DX2                !
 ! D330  D(70,47,50,63)        111.5971         estimate D2E/DX2                !
 ! D331  D(45,48,62,61)          1.8963         estimate D2E/DX2                !
 ! D332  D(45,48,62,63)        145.6375         estimate D2E/DX2                !
 ! D333  D(47,48,62,61)       -148.7472         estimate D2E/DX2                !
 ! D334  D(47,48,62,63)         -5.006          estimate D2E/DX2                !
 ! D335  D(31,49,50,47)         -7.1148         estimate D2E/DX2                !
 ! D336  D(31,49,50,63)        139.6519         estimate D2E/DX2                !
 ! D337  D(54,49,50,47)       -148.3353         estimate D2E/DX2                !
 ! D338  D(54,49,50,63)         -1.5687         estimate D2E/DX2                !
 ! D339  D(31,49,54,51)          1.0691         estimate D2E/DX2                !
 ! D340  D(31,49,54,56)       -141.2447         estimate D2E/DX2                !
 ! D341  D(50,49,54,51)        146.7923         estimate D2E/DX2                !
 ! D342  D(50,49,54,56)          4.4785         estimate D2E/DX2                !
 ! D343  D(47,50,63,62)          4.8842         estimate D2E/DX2                !
 ! D344  D(47,50,63,64)        148.4883         estimate D2E/DX2                !
 ! D345  D(49,50,63,62)       -144.9025         estimate D2E/DX2                !
 ! D346  D(49,50,63,64)         -1.2984         estimate D2E/DX2                !
 ! D347  D(34,51,52,36)          0.0709         estimate D2E/DX2                !
 ! D348  D(34,51,52,53)       -136.5219         estimate D2E/DX2                !
 ! D349  D(54,51,52,36)        135.618          estimate D2E/DX2                !
 ! D350  D(54,51,52,53)         -0.9748         estimate D2E/DX2                !
 ! D351  D(34,51,54,49)          2.6569         estimate D2E/DX2                !
 ! D352  D(34,51,54,56)        145.1582         estimate D2E/DX2                !
 ! D353  D(52,51,54,49)       -137.8187         estimate D2E/DX2                !
 ! D354  D(52,51,54,56)          4.6826         estimate D2E/DX2                !
 ! D355  D(36,52,53,37)         -3.4924         estimate D2E/DX2                !
 ! D356  D(36,52,53,55)       -144.6338         estimate D2E/DX2                !
 ! D357  D(51,52,53,37)        137.8256         estimate D2E/DX2                !
 ! D358  D(51,52,53,55)         -3.3158         estimate D2E/DX2                !
 ! D359  D(37,53,55,56)       -133.1702         estimate D2E/DX2                !
 ! D360  D(37,53,55,60)          4.4861         estimate D2E/DX2                !
 ! D361  D(52,53,55,56)          3.8317         estimate D2E/DX2                !
 ! D362  D(52,53,55,60)        141.488          estimate D2E/DX2                !
 ! D363  D(49,54,56,55)        133.7058         estimate D2E/DX2                !
 ! D364  D(49,54,56,64)         -4.4173         estimate D2E/DX2                !
 ! D365  D(51,54,56,55)         -4.1573         estimate D2E/DX2                !
 ! D366  D(51,54,56,64)       -142.2804         estimate D2E/DX2                !
 ! D367  D(53,55,56,54)         -0.1097         estimate D2E/DX2                !
 ! D368  D(53,55,56,64)        142.2248         estimate D2E/DX2                !
 ! D369  D(60,55,56,54)       -142.2959         estimate D2E/DX2                !
 ! D370  D(60,55,56,64)          0.0386         estimate D2E/DX2                !
 ! D371  D(53,55,60,57)         -1.2626         estimate D2E/DX2                !
 ! D372  D(53,55,60,66)       -142.7766         estimate D2E/DX2                !
 ! D373  D(56,55,60,57)        140.3659         estimate D2E/DX2                !
 ! D374  D(56,55,60,66)         -1.1481         estimate D2E/DX2                !
 ! D375  D(54,56,64,63)          1.5683         estimate D2E/DX2                !
 ! D376  D(54,56,64,66)        144.0182         estimate D2E/DX2                !
 ! D377  D(55,56,64,63)       -141.3509         estimate D2E/DX2                !
 ! D378  D(55,56,64,66)          1.099          estimate D2E/DX2                !
 ! D379  D(39,57,58,42)          0.3272         estimate D2E/DX2                !
 ! D380  D(39,57,58,59)       -141.2741         estimate D2E/DX2                !
 ! D381  D(60,57,58,42)        141.5438         estimate D2E/DX2                !
 ! D382  D(60,57,58,59)         -0.0575         estimate D2E/DX2                !
 ! D383  D(39,57,60,55)         -3.3505         estimate D2E/DX2                !
 ! D384  D(39,57,60,66)        133.5837         estimate D2E/DX2                !
 ! D385  D(58,57,60,55)       -140.2151         estimate D2E/DX2                !
 ! D386  D(58,57,60,66)         -3.2809         estimate D2E/DX2                !
 ! D387  D(42,58,59,43)          2.7453         estimate D2E/DX2                !
 ! D388  D(42,58,59,65)       -133.7017         estimate D2E/DX2                !
 ! D389  D(57,58,59,43)        139.9482         estimate D2E/DX2                !
 ! D390  D(57,58,59,65)          3.5012         estimate D2E/DX2                !
 ! D391  D(43,59,65,61)         -1.9194         estimate D2E/DX2                !
 ! D392  D(43,59,65,66)       -145.1139         estimate D2E/DX2                !
 ! D393  D(58,59,65,61)        139.5785         estimate D2E/DX2                !
 ! D394  D(58,59,65,66)         -3.616          estimate D2E/DX2                !
 ! D395  D(55,60,66,64)          1.8227         estimate D2E/DX2                !
 ! D396  D(55,60,66,65)        145.0553         estimate D2E/DX2                !
 ! D397  D(57,60,66,64)       -140.0753         estimate D2E/DX2                !
 ! D398  D(57,60,66,65)          3.1573         estimate D2E/DX2                !
 ! D399  D(46,61,62,48)         -1.4942         estimate D2E/DX2                !
 ! D400  D(46,61,62,63)       -140.8931         estimate D2E/DX2                !
 ! D401  D(65,61,62,48)        136.5754         estimate D2E/DX2                !
 ! D402  D(65,61,62,63)         -2.8235         estimate D2E/DX2                !
 ! D403  D(46,61,65,59)          1.9523         estimate D2E/DX2                !
 ! D404  D(46,61,65,66)        145.2648         estimate D2E/DX2                !
 ! D405  D(62,61,65,59)       -140.5928         estimate D2E/DX2                !
 ! D406  D(62,61,65,66)          2.7197         estimate D2E/DX2                !
 ! D407  D(48,62,63,50)          0.0948         estimate D2E/DX2                !
 ! D408  D(48,62,63,64)       -144.0088         estimate D2E/DX2                !
 ! D409  D(61,62,63,50)        144.1862         estimate D2E/DX2                !
 ! D410  D(61,62,63,64)          0.0826         estimate D2E/DX2                !
 ! D411  D(50,63,64,56)          1.3231         estimate D2E/DX2                !
 ! D412  D(50,63,64,66)       -136.7153         estimate D2E/DX2                !
 ! D413  D(62,63,64,56)        140.8001         estimate D2E/DX2                !
 ! D414  D(62,63,64,66)          2.7617         estimate D2E/DX2                !
 ! D415  D(56,64,66,60)         -1.8154         estimate D2E/DX2                !
 ! D416  D(56,64,66,65)       -145.0455         estimate D2E/DX2                !
 ! D417  D(63,64,66,60)        140.3592         estimate D2E/DX2                !
 ! D418  D(63,64,66,65)         -2.871          estimate D2E/DX2                !
 ! D419  D(59,65,66,60)          0.2938         estimate D2E/DX2                !
 ! D420  D(59,65,66,64)        139.1415         estimate D2E/DX2                !
 ! D421  D(61,65,66,60)       -138.7278         estimate D2E/DX2                !
 ! D422  D(61,65,66,64)          0.1198         estimate D2E/DX2                !
 --------------------------------------------------------------------------------
 Trust Radius=3.00D-01 FncErr=1.00D-07 GrdErr=1.00D-06 EigMax=2.50D+02 EigMin=1.00D-04
 Number of steps in this run=    420 maximum allowed number of steps=    420.
 GradGradGradGradGradGradGradGradGradGradGradGradGradGradGradGradGradGrad

 Leave Link  103 at Sat Jul 16 05:06:18 2022, MaxMem=  1342177280 cpu:               1.4 elap:               0.3
 (Enter /home/mkliu/g16/l202.exe)
 Stoichiometry    C66Cl4
 Framework group  C1[X(C66Cl4)]
 Deg. of freedom   204
 Full point group                 C1      NOp   1
 Largest Abelian subgroup         C1      NOp   1
 Largest concise Abelian subgroup C1      NOp   1
                         Standard orientation:                         
 ---------------------------------------------------------------------
 Center     Atomic      Atomic             Coordinates (Angstroms)
 Number     Number       Type             X           Y           Z
 ---------------------------------------------------------------------
      1          6           0        3.804660   -1.209356   -0.271137
      2          6           0        3.881423    0.310874   -0.618517
      3          6           0        3.634204    1.112810    0.699197
      4          6           0        3.288885   -1.187974    1.127341
      5          6           0        3.211142    0.065286    1.668137
      6          6           0        2.292109   -2.141840    1.358814
      7          6           0        2.700141   -2.006505   -0.903858
      8          6           0        1.961074   -2.693158    0.085701
      9          6           0        2.031596   -1.578362   -2.047404
     10          6           0        2.713220    0.690334   -1.452598
     11          6           0        2.061960   -0.143111   -2.337698
     12          6           0        2.397649    1.937282    0.429674
     13          6           0        2.019999    1.799163   -0.904212
     14          6           0        1.425789    2.251745    1.383651
     15          6           0        2.248082    0.308065    2.622007
     16          6           0        1.474685    1.520666    2.612882
     17          6           0        1.310683   -1.956820    2.354179
     18          6           0        1.414186   -0.748750    3.078245
     19          6           0        0.020386   -2.600092    2.199888
     20          6           0        0.681700   -3.245156   -0.129068
     21          6           0       -0.283653   -3.285617    0.954923
     22          6           0        0.869022   -2.293068   -2.374158
     23          6           0        0.241804   -3.182832   -1.458140
     24          6           0       -0.162457   -1.744784   -3.203176
[...]
 Alpha virt. eigenvalues --    1.06888   1.07190   1.07292   1.07704   1.08031
 Alpha virt. eigenvalues --    1.08583   1.08763   1.09334   1.09381   1.09984
 Alpha virt. eigenvalues --    1.10519   1.10624   1.10922   1.11299   1.11426
 Alpha virt. eigenvalues --    1.11757   1.12150   1.12801   1.13218   1.13518
 Alpha virt. eigenvalues --    1.14074   1.14428   1.14786   1.15491   1.15990
 Alpha virt. eigenvalues --    1.16553   1.16939   1.17045   1.17660   1.18046
 Alpha virt. eigenvalues --    1.18496   1.18636   1.18916   1.19551   1.20086
 Alpha virt. eigenvalues --    1.20245   1.20776   1.20927   1.21466   1.21899
 Alpha virt. eigenvalues --    1.22406   1.22576   1.22888   1.23406   1.23860
 Alpha virt. eigenvalues --    1.24295   1.25424   1.25778   1.26353   1.26673
 Alpha virt. eigenvalues --    1.27330   1.27714   1.27750   1.28572   1.29103
 Alpha virt. eigenvalues --    1.29339   1.29702   1.30276   1.30360   1.31056
 Alpha virt. eigenvalues --    1.31496   1.31646   1.32057   1.32544   1.32943
 Alpha virt. eigenvalues --    1.33393   1.33521   1.33802   1.33901   1.34225
 Alpha virt. eigenvalues --    1.34682   1.34960   1.35258   1.36085   1.36220
 Alpha virt. eigenvalues --    1.36726   1.36823   1.37185   1.37450   1.37955
 Alpha virt. eigenvalues --    1.38106   1.38884   1.39322   1.39409   1.39791
 Alpha virt. eigenvalues --    1.40022   1.40371   1.40766   1.40960   1.41142
 Alpha virt. eigenvalues --    1.41449   1.41861   1.42197   1.42393   1.42767
 Alpha virt. eigenvalues --    1.42786   1.43077   1.43314   1.43809   1.44030
 Alpha virt. eigenvalues --    1.44482   1.44614   1.45006   1.45032   1.45302
 Alpha virt. eigenvalues --    1.45651   1.45704   1.45861   1.46081   1.46491
 Alpha virt. eigenvalues --    1.46503   1.46751   1.47029   1.47120   1.47908
 Alpha virt. eigenvalues --    1.48088   1.48148   1.48380   1.48843   1.49000
 Alpha virt. eigenvalues --    1.49098   1.49447   1.49797   1.50039   1.50432
 Alpha virt. eigenvalues --    1.50727   1.50976   1.51415   1.51629   1.51791
 Alpha virt. eigenvalues --    1.52275   1.52559   1.52894   1.53505   1.53654
 Alpha virt. eigenvalues --    1.53771   1.54154   1.54274   1.55017   1.55203
 Alpha virt. eigenvalues --    1.55415   1.55770   1.55892   1.56450   1.56804
 Alpha virt. eigenvalues --    1.57456   1.57917   1.58552   1.58698   1.59308
 Alpha virt. eigenvalues --    1.59721   1.59762   1.60624   1.60714   1.60939
 Alpha virt. eigenvalues --    1.61404   1.62026   1.62980   1.63328   1.63639
 Alpha virt. eigenvalues --    1.64155   1.64605   1.64828   1.65388   1.66035
 Alpha virt. eigenvalues --    1.66099   1.66394   1.66670   1.66926   1.67467
 Alpha virt. eigenvalues --    1.67880   1.68271   1.68376   1.68809   1.69352
 Alpha virt. eigenvalues --    1.69936   1.70130   1.70517   1.70710   1.70968
 Alpha virt. eigenvalues --    1.71137   1.71228   1.72100   1.72698   1.72954
 Alpha virt. eigenvalues --    1.73475   1.73879   1.74396   1.74701   1.75023
 Alpha virt. eigenvalues --    1.75563   1.75634   1.75791   1.76607   1.76854
 Alpha virt. eigenvalues --    1.77181   1.77409   1.77772   1.78022   1.78213
 Alpha virt. eigenvalues --    1.78809   1.79493   1.80036   1.80380   1.80466
 Alpha virt. eigenvalues --    1.80711   1.80851   1.82027   1.82444   1.83713
 Alpha virt. eigenvalues --    1.84051   1.84332   1.84992   1.85632   1.86249
 Alpha virt. eigenvalues --    1.86698   1.87471   1.87879   1.88543   1.88931
 Alpha virt. eigenvalues --    1.89602   1.89884   1.90224   1.90405   1.91456
 Alpha virt. eigenvalues --    1.91954   1.92426   1.92631   1.93241   1.94113
 Alpha virt. eigenvalues --    1.94143   1.94717   1.95153   1.95440   1.96244
 Alpha virt. eigenvalues --    1.96555   1.96975   1.97240   1.98318   1.98618
 Alpha virt. eigenvalues --    1.98972   1.99748   2.00410   2.00701   2.00932
 Alpha virt. eigenvalues --    2.01306   2.01431   2.01623   2.02219   2.02644
 Alpha virt. eigenvalues --    2.02753   2.03287   2.03320   2.03492   2.04200
 Alpha virt. eigenvalues --    2.04608   2.05866   2.06436   2.06994   2.07375
 Alpha virt. eigenvalues --    2.07696   2.08462   2.09026   2.09261   2.09578
 Alpha virt. eigenvalues --    2.10302   2.10582   2.10990   2.11368   2.12363
 Alpha virt. eigenvalues --    2.12473   2.12841   2.13460   2.13971   2.14147
 Alpha virt. eigenvalues --    2.14667   2.15502   2.16037   2.16212   2.16529
 Alpha virt. eigenvalues --    2.17221   2.17585   2.18290   2.19193   2.19888
 Alpha virt. eigenvalues --    2.20199   2.20657   2.20956   2.21170   2.21916
 Alpha virt. eigenvalues --    2.22666   2.22899   2.23202   2.23303   2.24220
 Alpha virt. eigenvalues --    2.24708   2.24989   2.25290   2.25829   2.25867
 Alpha virt. eigenvalues --    2.26968   2.27182   2.27585   2.27718   2.28660
 Alpha virt. eigenvalues --    2.29213   2.29451   2.30009   2.30163   2.30732
 Alpha virt. eigenvalues --    2.31346   2.31736   2.32240   2.32698   2.32969
 Alpha virt. eigenvalues --    2.33648   2.33869   2.34812   2.35716   2.36215
 Alpha virt. eigenvalues --    2.36590   2.37118   2.37659   2.38138   2.38779
 Alpha virt. eigenvalues --    2.39214   2.39505   2.40364   2.40497   2.40591
 Alpha virt. eigenvalues --    2.41314   2.41618   2.41731   2.42244   2.42511
 Alpha virt. eigenvalues --    2.43200   2.43394   2.44112   2.44324   2.45132
 Alpha virt. eigenvalues --    2.45770   2.46177   2.47173   2.47756   2.48501
 Alpha virt. eigenvalues --    2.48932   2.49183   2.49538   2.50117   2.50422
 Alpha virt. eigenvalues --    2.51194   2.51245   2.52275   2.52761   2.53001
 Alpha virt. eigenvalues --    2.53470   2.54046   2.54521   2.54837   2.55448
 Alpha virt. eigenvalues --    2.55917   2.56563   2.56745   2.57138   2.57224
 Alpha virt. eigenvalues --    2.57766   2.58081   2.58966   2.59385   2.59983
 Alpha virt. eigenvalues --    2.60142   2.60856   2.61597   2.61825   2.62540
 Alpha virt. eigenvalues --    2.63077   2.63282   2.63492   2.64288   2.64479
 Alpha virt. eigenvalues --    2.64865   2.65473   2.67960   2.68763   2.69409
 Alpha virt. eigenvalues --    2.69778   2.70435   2.71127   2.71597   2.72064
 Alpha virt. eigenvalues --    2.73319   2.74587   2.75766   2.76455   2.76510
 Alpha virt. eigenvalues --    2.78246   2.79310   2.79709   2.80811   2.81443
 Alpha virt. eigenvalues --    2.82735   2.83009   2.83253   2.84085   2.84774
 Alpha virt. eigenvalues --    2.85117   2.85758   2.85968   2.86807   2.88050
 Alpha virt. eigenvalues --    2.89453   2.90154   2.90762   2.91507   2.92136
 Alpha virt. eigenvalues --    2.92242   2.92811   2.93790   2.94192   2.94750
 Alpha virt. eigenvalues --    2.95577   2.95952   2.96278   2.96710   2.96825
 Alpha virt. eigenvalues --    2.97137   2.97718   2.98374   2.98454   2.98826
 Alpha virt. eigenvalues --    2.99019   2.99303   2.99614   3.00449   3.00770
 Alpha virt. eigenvalues --    3.01002   3.01768   3.01797   3.02392   3.02581
 Alpha virt. eigenvalues --    3.03031   3.03352   3.03486   3.03516   3.03764
 Alpha virt. eigenvalues --    3.04795   3.05173   3.05370   3.05532   3.05654
 Alpha virt. eigenvalues --    3.06123   3.06763   3.07076   3.07331   3.07810
 Alpha virt. eigenvalues --    3.08000   3.08402   3.08755   3.09522   3.09710
 Alpha virt. eigenvalues --    3.10043   3.10306   3.10832   3.11099   3.11377
 Alpha virt. eigenvalues --    3.11882   3.12383   3.12488   3.12696   3.12995
 Alpha virt. eigenvalues --    3.13315   3.13546   3.13855   3.14062   3.14478
 Alpha virt. eigenvalues --    3.14663   3.15249   3.15981   3.16513   3.17351
 Alpha virt. eigenvalues --    3.17710   3.18430   3.18715   3.18820   3.18929
 Alpha virt. eigenvalues --    3.19355   3.20611   3.21401   3.22170   3.23142
 Alpha virt. eigenvalues --    3.24083   3.24804   3.25683   3.29356   3.33828
 Alpha virt. eigenvalues --    3.35279   3.39338   3.40028   3.42386   3.42970
 Alpha virt. eigenvalues --    3.44376   3.44845   3.45771   3.47293   3.47733
 Alpha virt. eigenvalues --    3.48751   3.49511   3.50482   3.51997   3.52248
 Alpha virt. eigenvalues --    3.52876   3.53854   3.54117   3.55612   3.56430
 Alpha virt. eigenvalues --    3.57065   3.57522   3.58653   3.59801   3.60803
 Alpha virt. eigenvalues --    3.62460   3.62923   3.63503   3.64401   3.65371
 Alpha virt. eigenvalues --    3.65703   3.67753   3.67814   3.68366   3.69451
 Alpha virt. eigenvalues --    3.70497   3.71029   3.71836   3.72902   3.73301
 Alpha virt. eigenvalues --    3.75945   3.76311   3.76979   3.79586   3.80821
 Alpha virt. eigenvalues --    3.80950   3.82510   3.83190   3.84046   3.84930
 Alpha virt. eigenvalues --    3.85137   3.86688   3.87100   3.88030   3.88301
 Alpha virt. eigenvalues --    3.88745   3.89091   3.89803   3.90293   3.90622
 Alpha virt. eigenvalues --    3.91460   3.93424   3.96068   4.00980   4.05258
 Alpha virt. eigenvalues --    4.19307   4.22023   4.22320   4.25533   4.27678
 Alpha virt. eigenvalues --    4.28277   4.34584   4.35702   4.36963   4.38168
 Alpha virt. eigenvalues --    4.38772   4.46347   4.47958   4.51849   4.55525
 Alpha virt. eigenvalues --    4.56631   4.59418   4.61161   4.63302   4.65709
 Alpha virt. eigenvalues --    4.66859   4.68695   4.71281   4.77697   4.81413
 Alpha virt. eigenvalues --    4.84530   4.85057   4.89180   4.92030   4.97706
 Alpha virt. eigenvalues --    4.99060   5.00647   5.02591   5.04536   9.52514
 Alpha virt. eigenvalues --    9.60828   9.62570   9.68146  22.99420  23.20010
 Alpha virt. eigenvalues --   23.21453  23.22638  23.42444  23.44503  23.47101
 Alpha virt. eigenvalues --   23.47833  23.52579  23.62015  23.65605  23.67089
 Alpha virt. eigenvalues --   23.68800  23.69421  23.71661  23.74677  23.75301
 Alpha virt. eigenvalues --   23.75921  23.77890  23.78907  23.80948  23.83096
 Alpha virt. eigenvalues --   23.83605  23.84960  23.86656  23.87171  23.89900
 Alpha virt. eigenvalues --   23.90421  23.91346  23.92077  23.92618  23.93479
 Alpha virt. eigenvalues --   23.93849  23.94660  23.95152  23.95660  23.96646
 Alpha virt. eigenvalues --   23.97016  23.97484  23.97732  23.98284  23.98297
 Alpha virt. eigenvalues --   23.99706  24.00195  24.01608  24.02816  24.03212
 Alpha virt. eigenvalues --   24.03777  24.05173  24.05362  24.06632  24.06822
 Alpha virt. eigenvalues --   24.07773  24.08224  24.08380  24.09028  24.09428
 Alpha virt. eigenvalues --   24.09665  24.10097  24.10978  24.11730  24.12172
 Alpha virt. eigenvalues --   24.12780  24.14755  24.15867  24.18364  25.53582
 Alpha virt. eigenvalues --   25.61967  25.69990  25.71661  25.74349  25.80677
 Alpha virt. eigenvalues --   25.82982  25.87243  26.21421  26.28225  26.40265
 Alpha virt. eigenvalues --   26.63774 215.47384 215.56987 215.58843 215.65322
          Condensed to atoms (all electrons):
 Mulliken charges:
               1
     1  C   -0.425734
     2  C   -0.280263
     3  C   -0.442813
     4  C    0.156583
     5  C    0.192960
     6  C    0.020913
     7  C    0.109777
     8  C    0.024445
     9  C    0.050182
    10  C    0.080051
    11  C    0.061436
    12  C    0.135810
    13  C    0.057430
    14  C    0.038191
    15  C   -0.007877
    16  C    0.004305
    17  C    0.016919
    18  C    0.013089
    19  C    0.016081
    20  C    0.024801
    21  C    0.022335
    22  C   -0.018580
    23  C    0.003724
    24  C    0.005342
    25  C   -0.013854
    26  C    0.002301
    27  C    0.079278
    28  C   -0.006444
    29  C    0.069271
    30  C    0.076794
    31  C   -0.011176
    32  C   -0.005288
    33  C   -0.000332
    34  C   -0.005464
    35  C    0.000558
    36  C   -0.005207
    37  C   -0.002816
    38  C   -0.005495
    39  C   -0.003450
    40  C    0.000467
    41  C    0.002091
    42  C   -0.002576
    43  C   -0.002163
    44  C   -0.003531
    45  C    0.024667
    46  C    0.008410
    47  C   -0.627567
    48  C    0.150941
    49  C    0.026374
    50  C    0.155189
    51  C    0.004099
    52  C    0.005751
    53  C    0.003785
    54  C    0.000491
    55  C   -0.004267
    56  C    0.006096
    57  C    0.001240
    58  C    0.000382
    59  C    0.004626
    60  C    0.004933
    61  C   -0.004074
    62  C    0.032422
    63  C    0.031785
    64  C   -0.002971
    65  C    0.003989
    66  C    0.001169
    67  Cl   0.044458
    68  Cl   0.067860
    69  Cl   0.038162
    70  Cl  -0.000020
 Sum of Mulliken charges =  -0.00000
 Mulliken charges with hydrogens summed into heavy atoms:
               1
     1  C   -0.425734
     2  C   -0.280263
     3  C   -0.442813
     4  C    0.156583
     5  C    0.192960
     6  C    0.020913
     7  C    0.109777
     8  C    0.024445
     9  C    0.050182
    10  C    0.080051
    11  C    0.061436
    12  C    0.135810
    13  C    0.057430
    14  C    0.038191
    15  C   -0.007877
    16  C    0.004305
    17  C    0.016919
    18  C    0.013089
    19  C    0.016081
    20  C    0.024801
    21  C    0.022335
    22  C   -0.018580
    23  C    0.003724
    24  C    0.005342
    25  C   -0.013854
    26  C    0.002301
    27  C    0.079278
    28  C   -0.006444
    29  C    0.069271
    30  C    0.076794
    31  C   -0.011176
    32  C   -0.005288
    33  C   -0.000332
    34  C   -0.005464
    35  C    0.000558
    36  C   -0.005207
    37  C   -0.002816
    38  C   -0.005495
    39  C   -0.003450
    40  C    0.000467
    41  C    0.002091
    42  C   -0.002576
    43  C   -0.002163
    44  C   -0.003531
    45  C    0.024667
    46  C    0.008410
    47  C   -0.627567
    48  C    0.150941
    49  C    0.026374
    50  C    0.155189
    51  C    0.004099
    52  C    0.005751
    53  C    0.003785
    54  C    0.000491
    55  C   -0.004267
    56  C    0.006096
    57  C    0.001240
    58  C    0.000382
    59  C    0.004626
    60  C    0.004933
    61  C   -0.004074
    62  C    0.032422
    63  C    0.031785
    64  C   -0.002971
    65  C    0.003989
    66  C    0.001169
    67  Cl   0.044458
    68  Cl   0.067860
    69  Cl   0.038162
    70  Cl  -0.000020
 Electronic spatial extent (au):  <R**2>=          29040.7265
 Charge=             -0.0000 electrons
 Dipole moment (field-independent basis, Debye):
    X=             -3.1351    Y=             -2.4956    Z=              0.6831  Tot=              4.0649
 Quadrupole moment (field-independent basis, Debye-Ang):
   XX=           -436.2939   YY=           -429.8311   ZZ=           -416.8359
   XY=              2.4882   XZ=             -1.5130   YZ=              2.2816
 Traceless Quadrupole moment (field-independent basis, Debye-Ang):
   XX=             -8.6403   YY=             -2.1775   ZZ=             10.8177
   XY=              2.4882   XZ=             -1.5130   YZ=              2.2816
 Octapole moment (field-independent basis, Debye-Ang**2):
  XXX=             11.6432  YYY=            -13.7622  ZZZ=            -14.5211  XYY=             45.0692
  XXY=              6.0136  XXZ=             -3.5726  XZZ=             32.1759  YZZ=              7.4419
  YYZ=              9.6060  XYZ=            -10.3799
 Hexadecapole moment (field-independent basis, Debye-Ang**3):
 XXXX=         -20886.7866 YYYY=         -11870.5342 ZZZZ=         -10829.8620 XXXY=            -23.8459
 XXXZ=            -32.6336 YYYX=             71.1835 YYYZ=             32.3684 ZZZX=            -51.0584
 ZZZY=            -25.5399 XXYY=          -5429.0129 XXZZ=          -5236.0968 YYZZ=          -3768.6989
 XXYZ=            -22.3979 YYXZ=            -36.7936 ZZXY=             -3.0022
 N-N= 1.226237167584D+04 E-N=-3.472809905217D+04  KE= 4.341729135324D+03
 No NMR shielding tensors so no spin-rotation constants.
 Leave Link  601 at Sat Jul 16 06:15:42 2022, MaxMem=  1342177280 cpu:              55.2 elap:               1.4
 (Enter /home/mkliu/g16/l9999.exe)
 1\1\GINC-NODE01\FOpt\RB3LYP\6-311G(d,p)\C66Cl4\MKLIU\16-Jul-2022\0\\#P
  opt b3lyp/6-311G(d, p) empiricaldispersion=GD3\\force\\0,1\C,-1.33725
 45901,1.8609651578,-3.9246875384\C,0.1949064289,2.2340932459,-4.007710
 3577\C,0.9627770179,0.8630658631,-4.3297135447\C,-1.35021859,0.3614210
 964,-3.977358011\C,-0.1051644055,-0.1835872909,-4.2106379367\C,-2.2294
 114938,-0.1776070835,-3.02892902\C,-1.9979498646,2.099063102,-2.578649
 5644\C,-2.688588149,0.9297068643,-2.1917379925\C,-1.4745342114,2.96096
 44062,-1.5990515382\C,0.7289622668,2.6112041276,-2.6560523747\C,-0.010
 7740019,3.2236745189,-1.6508890703\C,1.916316424,0.6944335947,-3.15734
 08388\C,1.8696377548,1.8220835487,-2.3288110942\C,2.271957302,-0.55363
 37381,-2.6068094193\C,0.1852586046,-1.4178790243,-3.6550279686\C,1.483
 5424891,-1.6896350652,-3.0178153762\C,-1.9938187418,-1.4546092784,-2.4
 675259642\C,-0.8137194779,-2.1266170016,-2.9259542227\C,-2.4982219846,
 -1.74149072,-1.1220260117\C,-3.1042543227,0.7009884925,-0.8612263469\C
 ,-3.1017230152,-0.6632143048,-0.3269949061\C,-2.0765710857,2.882966468
 5,-0.3269512094\C,-2.9468048145,1.8020976207,0.0186533031\C,-1.3908662
 553,3.2903789889,0.8963883248\C,0.6742625196,3.4169128134,-0.411015707
 1\C,-0.0393375295,3.5655744001,0.8549046078\C,2.4384036358,1.821993662
 3,-1.0163033501\C,1.9159329083,2.8128448388,-0.1318558448\C,2.90268764
 54,-0.5767693393,-1.2787022855\C,3.0385868144,0.634514908,-0.526792259
 5\C,2.9093979339,-1.8229788215,-0.5661520053\C,1.3023132488,-2.7689038
 528,-2.1440004142\C,-0.1292048681,-3.064355288,-2.0784644503\C,2.06400
 87764,-2.8776462866,-0.9650751046\C,-1.9286933587,-2.8361612964,-0.432
 4599849\C,-0.7005322633,-3.4611376265,-0.8999836173\C,-1.9122698607,-2
 .90919049,1.0006272188\C,-3.1427195275,-0.8050379544,1.0794274076\C,-2
 .5317723798,-1.9184872387,1.748830253\C,-2.8890215205,1.6131679179,1.4
 491174202\C,-1.9350516536,2.5412916669,2.0082233402\C,-3.0175267659,0.
 3404266717,1.9704371783\C,-1.1225736451,2.1453650335,3.070288578\C,0.8
 214747963,3.1157597325,1.9243579497\C,2.0403006667,2.6476206866,1.3084
 937826\C,0.2961952435,2.4440792554,3.0272900019\C,3.4850503464,0.60291
 57918,0.9341295891\C,2.712218609,1.5712292209,1.8204193242\C,3.0051843
 27,-1.8598817345,0.8962692625\C,3.2047162796,-0.7187014034,1.618478506
 3\C,1.482734995,-3.4821800667,0.2308175305\C,0.1239125046,-3.771976558
 5,0.2628735685\C,-0.6505161624,-3.4731633085,1.4438661876\C,2.10788831
 34,-2.883002263,1.3850765998\C,-0.0348575438,-2.9769515967,2.590700074
 8\C,1.3828562248,-2.6721502985,2.5577907984\C,-1.9328728329,-1.4587428
 572,2.9871929434\C,-2.234840958,-0.0505145123,3.1227724843\C,-1.283569
 0525,0.8272663692,3.6470422498\C,-0.693127689,-1.954983101,3.382262771
 3\C,1.0074819422,1.3154025177,3.5751146919\C,2.2020508876,0.8968618418
 ,2.9771131463\C,2.5007220798,-0.5113371921,2.850900454\C,1.5952088201,
 -1.4662622749,3.3208251676\C,0.033567577,0.3214760393,3.992561054\C,0.
 3203263739,-1.0339215122,3.8655965296\Cl,-2.3811399297,2.5850517168,-5
 .2366652535\Cl,0.5854059132,3.5997479951,-5.1210490182\Cl,1.8457494128
 ,0.7702380036,-5.9164675128\Cl,5.3214388907,0.9939056554,0.9970796339\
 \Version=ES64L-G16RevA.03\State=1-A\HF=-4356.2923847\RMSD=9.351e-09\RM
 SF=3.034e-05\Dipole=-0.8673229,-0.6614354,1.1695409\Quadrupole=-2.1673
 45,7.1183861,-4.9510411,-0.4808338,-2.6388478,3.8360514\PG=C01 [X(C66C
 l4)]\\@


 TERENCE, THIS IS STUPID STUFF:
 YOU EAT YOUR VICTUALS FAST ENOUGH;
 THERE CAN'T BE MUCH AMISS, 'TIS CLEAR
 TO SEE THE RATE YOU DRINK YOUR BEER.
 BUT OH, GOOD LORD, THE VERSE YOU MAKE,
 IT GIVES A CHAP THE BELLY-ACHE.
 THE COW, THE OLD COW, SHE IS DEAD;
 IT SLEEPS WELL, THE HORNED HEAD:
 WE POOR LADS, 'TIS OUR TURN NOW
 TO HEAR SUCH TUNES AS KILLED THE COW.
 PRETTY FRIENDSHIP 'TIS TO RHYME
 YOUR FRIENDS TO DEATH BEFORE THEIR TIME.
 MOPING, MELANCHOLY MAD:
 COME PIPE A TUNE TO DANCE TO, LAD.

     -- A. E. HOUSMAN
 Job cpu time:       2 days  7 hours 18 minutes 17.7 seconds.
 Elapsed time:       0 days  1 hours  9 minutes 17.8 seconds.
 File lengths (MBytes):  RWF=   1023 Int=      0 D2E=      0 Chk=    125 Scr=      1
 Normal termination of Gaussian 16 at Sat Jul 16 06:15:43 2022.
