 Entering Gaussian System, Link 0=g16
 Input=dmnskaiw6054w_addon_5.gjf
 Output=dmnskaiw6054w_addon_5.log
 Initial command:
 /home/mkliu/g16/l1.exe "/data/scratch/Gau-85216.inp" -scrdir="/data/scratch/"
 Entering Link 1 = /home/mkliu/g16/l1.exe PID=     85217.
  
 Copyright (c) 1988,1990,1992,1993,1995,1998,2003,2009,2016,
            Gaussian, Inc.  All Rights Reserved.
  
 This is part of the Gaussian(R) 16 program.  It is based on
 the Gaussian(R) 09 system (copyright 2009, Gaussian, Inc.),
 the Gaussian(R) 03 system (copyright 2003, Gaussian, Inc.),
 the Gaussian(R) 98 system (copyright 1998, Gaussian, Inc.),
 the Gaussian(R) 94 system (copyright 1995, Gaussian, Inc.),
 the Gaussian 92(TM) system (copyright 1992, Gaussian, Inc.),
 the Gaussian 90(TM) system (copyright 1990, Gaussian, Inc.),
 the Gaussian 88(TM) system (copyright 1988, Gaussian, Inc.),
 the Gaussian 86(TM) system (copyright 1986, Carnegie Mellon
 University), and the Gaussian 82(TM) system (copyright 1983,
 Carnegie Mellon University). Gaussian is a federally registered
 trademark of Gaussian, Inc.
  
 This software contains proprietary and confidential information,
 including trade secrets, belonging to Gaussian, Inc.
  
 This software is provided under written license and may be
 used, copied, transmitted, or stored only in accord with that
 written license.
  
 The following legend is applicable only to US Government
 contracts under FAR:
  
                    RESTRICTED RIGHTS LEGEND
  
 Use, reproduction and disclosure by the US Government is
 subject to restrictions as set forth in subparagraphs (a)
 and (c) of the Commercial Computer Software - Restricted
 Rights clause in FAR 52.227-19.
  
 Gaussian, Inc.
 340 Quinnipiac St., Bldg. 40, Wallingford CT 06492
  
  
 ---------------------------------------------------------------
 Warning -- This program may not be used in any manner that
 competes with the business of Gaussian, Inc. or will provide
 assistance to any competitor of Gaussian, Inc.  The licensee
 of this program is prohibited from giving any competitor of
 Gaussian, Inc. access to this program.  By using this program,
 the user acknowledges that Gaussian, Inc. is engaged in the
 business of creating and licensing software in the field of
 computational chemistry and represents and warrants to the
 licensee that it is not a competitor of Gaussian, Inc. and that
 it will not use this program in any manner prohibited above.
 ---------------------------------------------------------------
  

 Cite this work as:
 Gaussian 16, Revision A.03,
 M. J. Frisch, G. W. Trucks, H. B. Schlegel, G. E. Scuseria, 
 M. A. Robb, J. R. Cheeseman, G. Scalmani, V. Barone, 
 G. A. Petersson, H. Nakatsuji, X. Li, M. Caricato, A. V. Marenich, 
 J. Bloino, B. G. Janesko, R. Gomperts, B. Mennucci, H. P. Hratchian, 
 J. V. Ortiz, A. F. Izmaylov, J. L. Sonnenberg, D. Williams-Young, 
 F. Ding, F. Lipparini, F. Egidi, J. Goings, B. Peng, A. Petrone, 
 T. Henderson, D. Ranasinghe, V. G. Zakrzewski, J. Gao, N. Rega, 
 G. Zheng, W. Liang, M. Hada, M. Ehara, K. Toyota, R. Fukuda, 
 J. Hasegawa, M. Ishida, T. Nakajima, Y. Honda, O. Kitao, H. Nakai, 
 T. Vreven, K. Throssell, J. A. Montgomery, Jr., J. E. Peralta, 
 F. Ogliaro, M. J. Bearpark, J. J. Heyd, E. N. Brothers, K. N. Kudin, 
 V. N. Staroverov, T. A. Keith, R. Kobayashi, J. Normand, 
 K. Raghavachari, A. P. Rendell, J. C. Burant, S. S. Iyengar, 
 J. Tomasi, M. Cossi, J. M. Millam, M. Klene, C. Adamo, R. Cammi, 
 J. W. Ochterski, R. L. Martin, K. Morokuma, O. Farkas, 
 J. B. Foresman, and D. J. Fox, Gaussian, Inc., Wallingford CT, 2016.
 
 ******************************************
 Gaussian 16:  ES64L-G16RevA.03 25-Dec-2016
                16-Jul-2022 
 ******************************************
 %mem=10GB
 %chk=dmnskaiw6054w_addon_5.chk
 %nprocshared=48
 Will use up to   48 processors via shared memory.
 -------------------------------------------------
 #P opt b3lyp/6-311G(d, p) empiricaldispersion=GD3
 -------------------------------------------------
 1/18=20,19=15,26=3,38=1/1,3;
 2/9=110,12=2,17=6,18=5,40=1/2;
 3/5=4,6=6,7=101,11=2,25=1,30=1,71=1,74=-5,124=31/1,2,3;
 4//1;
 5/5=2,38=5/2;
 6/7=2,8=2,9=2,10=2,28=1/1;
 7//1,2,3,16;
 1/18=20,19=15,26=3/3(2);
 2/9=110/2;
 99//99;
 2/9=110/2;
 3/5=4,6=6,7=101,11=2,25=1,30=1,71=1,74=-5,124=31/1,2,3;
 4/5=5,16=3,69=1/1;
 5/5=2,38=5/2;
 7//1,2,3,16;
 1/18=20,19=15,26=3/3(-5);
 2/9=110/2;
 6/7=2,8=2,9=2,10=2,19=2,28=1/1;
 99/9=1/99;
 Leave Link    1 at Sat Jul 16 18:38:15 2022, MaxMem=  1342177280 cpu:               2.0 elap:               0.0
 (Enter /home/mkliu/g16/l101.exe)
 -----
 force
 -----
 Symbolic Z-matrix:
 Charge =  0 Multiplicity = 2
 C                    -1.29701   1.87579  -3.89254 
 C                     0.21852   2.20476  -3.96213 
 C                     1.00351   0.89475  -4.3406 
 C                    -1.30251   0.39356  -3.88782 
 C                    -0.04743  -0.13299  -4.0953 
 C                    -2.17642  -0.15213  -2.95091 
 C                    -1.99628   2.11828  -2.5916 
 C                    -2.67842   0.93829  -2.14901 
 C                    -1.47817   2.92375  -1.57229 
 C                     0.70891   2.49596  -2.60141 
 C                    -0.04146   3.15582  -1.60862 
 C                     2.18321   0.7505   -3.30043 
 C                     1.84862   1.79947  -2.30263 
 C                     2.30562  -0.58258  -2.59664 
 C                     0.21246  -1.3631   -3.55973 
 C                     1.51066  -1.64686  -2.95093 
 C                    -1.95454  -1.4176   -2.38388 
 C                    -0.77927  -2.06335  -2.84035 
 C                    -2.47247  -1.70866  -1.07057 
 C                    -3.11376   0.68983  -0.84902 
 C                    -3.07801  -0.62816  -0.30079 
 C                    -2.10826   2.86325  -0.31571 
 C                    -3.22113   1.90201   0.03803 
 C                    -1.41333   3.22029   0.85843 
 C                     0.63367   3.35661  -0.41891 
 C                    -0.05152   3.50794   0.8251 
 C                     2.4344    1.80777  -1.02454 
 C                     1.89473   2.74023  -0.14635 
 C                     2.95496  -0.61544  -1.29672 
 C                     3.07791   0.61035  -0.53117 
 C                     2.90483  -1.81943  -0.58014 
 C                     1.29942  -2.76892  -2.09133 
 C                    -0.11162  -3.03256  -2.03339 
 C                     2.04988  -2.90365  -0.95247 
 C                    -1.90976  -2.80184  -0.40032 
 C                    -0.69887  -3.44266  -0.86369 
 C                    -1.89963  -2.88903   1.0226 
 C                    -3.14438  -0.79449   1.10716 
 C                    -2.52     -1.89214   1.75565 
 C                    -2.92814   1.61983   1.4794 
 C                    -1.94523   2.50054   1.99397 
 C                    -3.02196   0.35238   1.99026 
 C                    -1.1003    2.11851   3.03107 
 C                     0.81069   3.08747   1.88015 
 C                     2.02684   2.6159    1.26324 
 C                     0.30296   2.41555   2.97673 
 C                     3.24251   0.53684   0.85979 
 C                     2.70804   1.52961   1.75317 
 C                     3.00214  -1.86931   0.8515 
 C                     3.18756  -0.7115    1.56294 
 C                     1.47885  -3.49411   0.23243 
 C                     0.12037  -3.76971   0.27163 
 C                    -0.64646  -3.45314   1.44339 
 C                     2.11678  -2.88909   1.36374 
 C                    -0.01368  -2.94332   2.56436 
 C                     1.3936   -2.65198   2.52153 
 C                    -1.90817  -1.43521   2.98275 
 C                    -2.20671  -0.03729   3.10733 
 C                    -1.24507   0.82229   3.61803 
 C                    -0.66704  -1.92485   3.34711 
 C                     1.03882   1.30324   3.52475 
 C                     2.22978   0.88479   2.94927 
 C                     2.52491  -0.50917   2.82722 
 C                     1.61239  -1.44918   3.27953 
 C                     0.06814   0.32826   3.95033 
 C                     0.35123  -1.02106   3.82263 
 Cl                   -2.18565   2.58478  -5.28627 
 Cl                    0.60993   3.59272  -5.00732 
 Cl                    1.55466   0.82103  -6.02424 
 Cl                    3.78666   1.11     -4.06296 
 Cl                   -4.88361   2.61737  -0.21106 
 
 ITRead=  0  0  0  0  0  0  0  0  0  0  0  0  0  0  0  0  0  0  0  0
 ITRead=  0  0  0  0  0  0  0  0  0  0  0  0  0  0  0  0  0  0  0  0
 ITRead=  0  0  0  0  0  0  0  0  0  0  0  0  0  0  0  0  0  0  0  0
 ITRead=  0  0  0  0  0  0  0  0  0  0  0
 MicOpt= -1 -1 -1 -1 -1 -1 -1 -1 -1 -1 -1 -1 -1 -1 -1 -1 -1 -1 -1 -1
 MicOpt= -1 -1 -1 -1 -1 -1 -1 -1 -1 -1 -1 -1 -1 -1 -1 -1 -1 -1 -1 -1
 MicOpt= -1 -1 -1 -1 -1 -1 -1 -1 -1 -1 -1 -1 -1 -1 -1 -1 -1 -1 -1 -1
 MicOpt= -1 -1 -1 -1 -1 -1 -1 -1 -1 -1 -1
 NAtoms=     71 NQM=       71 NQMF=       0 NMMI=      0 NMMIF=      0
                NMic=       0 NMicF=      0.
                    Isotopes and Nuclear Properties:
 (Nuclear quadrupole moments (NQMom) in fm**2, nuclear magnetic moments (NMagM)
  in nuclear magnetons)

  Atom         1           2           3           4           5           6           7           8           9          10
 IAtWgt=          12          12          12          12          12          12          12          12          12          12
 AtmWgt=  12.0000000  12.0000000  12.0000000  12.0000000  12.0000000  12.0000000  12.0000000  12.0000000  12.0000000  12.0000000
 NucSpn=           0           0           0           0           0           0           0           0           0           0
 AtZEff=  -0.0000000  -0.0000000  -0.0000000  -0.0000000  -0.0000000  -0.0000000  -0.0000000  -0.0000000  -0.0000000  -0.0000000
 NQMom=    0.0000000   0.0000000   0.0000000   0.0000000   0.0000000   0.0000000   0.0000000   0.0000000   0.0000000   0.0000000
 NMagM=    0.0000000   0.0000000   0.0000000   0.0000000   0.0000000   0.0000000   0.0000000   0.0000000   0.0000000   0.0000000
 AtZNuc=   6.0000000   6.0000000   6.0000000   6.0000000   6.0000000   6.0000000   6.0000000   6.0000000   6.0000000   6.0000000

  Atom        11          12          13          14          15          16          17          18          19          20
 IAtWgt=          12          12          12          12          12          12          12          12          12          12
 AtmWgt=  12.0000000  12.0000000  12.0000000  12.0000000  12.0000000  12.0000000  12.0000000  12.0000000  12.0000000  12.0000000
 NucSpn=           0           0           0           0           0           0           0           0           0           0
 AtZEff=  -0.0000000  -0.0000000  -0.0000000  -0.0000000  -0.0000000  -0.0000000  -0.0000000  -0.0000000  -0.0000000  -0.0000000
 NQMom=    0.0000000   0.0000000   0.0000000   0.0000000   0.0000000   0.0000000   0.0000000   0.0000000   0.0000000   0.0000000
 NMagM=    0.0000000   0.0000000   0.0000000   0.0000000   0.0000000   0.0000000   0.0000000   0.0000000   0.0000000   0.0000000
 AtZNuc=   6.0000000   6.0000000   6.0000000   6.0000000   6.0000000   6.0000000   6.0000000   6.0000000   6.0000000   6.0000000

  Atom        21          22          23          24          25          26          27          28          29          30
 IAtWgt=          12          12          12          12          12          12          12          12          12          12
 AtmWgt=  12.0000000  12.0000000  12.0000000  12.0000000  12.0000000  12.0000000  12.0000000  12.0000000  12.0000000  12.0000000
 NucSpn=           0           0           0           0           0           0           0           0           0           0
 AtZEff=  -0.0000000  -0.0000000  -0.0000000  -0.0000000  -0.0000000  -0.0000000  -0.0000000  -0.0000000  -0.0000000  -0.0000000
 NQMom=    0.0000000   0.0000000   0.0000000   0.0000000   0.0000000   0.0000000   0.0000000   0.0000000   0.0000000   0.0000000
 NMagM=    0.0000000   0.0000000   0.0000000   0.0000000   0.0000000   0.0000000   0.0000000   0.0000000   0.0000000   0.0000000
 AtZNuc=   6.0000000   6.0000000   6.0000000   6.0000000   6.0000000   6.0000000   6.0000000   6.0000000   6.0000000   6.0000000

  Atom        31          32          33          34          35          36          37          38          39          40
 IAtWgt=          12          12          12          12          12          12          12          12          12          12
 AtmWgt=  12.0000000  12.0000000  12.0000000  12.0000000  12.0000000  12.0000000  12.0000000  12.0000000  12.0000000  12.0000000
 NucSpn=           0           0           0           0           0           0           0           0           0           0
 AtZEff=  -0.0000000  -0.0000000  -0.0000000  -0.0000000  -0.0000000  -0.0000000  -0.0000000  -0.0000000  -0.0000000  -0.0000000
 NQMom=    0.0000000   0.0000000   0.0000000   0.0000000   0.0000000   0.0000000   0.0000000   0.0000000   0.0000000   0.0000000
 NMagM=    0.0000000   0.0000000   0.0000000   0.0000000   0.0000000   0.0000000   0.0000000   0.0000000   0.0000000   0.0000000
 AtZNuc=   6.0000000   6.0000000   6.0000000   6.0000000   6.0000000   6.0000000   6.0000000   6.0000000   6.0000000   6.0000000

  Atom        41          42          43          44          45          46          47          48          49          50
 IAtWgt=          12          12          12          12          12          12          12          12          12          12
 AtmWgt=  12.0000000  12.0000000  12.0000000  12.0000000  12.0000000  12.0000000  12.0000000  12.0000000  12.0000000  12.0000000
 NucSpn=           0           0           0           0           0           0           0           0           0           0
 AtZEff=  -0.0000000  -0.0000000  -0.0000000  -0.0000000  -0.0000000  -0.0000000  -0.0000000  -0.0000000  -0.0000000  -0.0000000
 NQMom=    0.0000000   0.0000000   0.0000000   0.0000000   0.0000000   0.0000000   0.0000000   0.0000000   0.0000000   0.0000000
 NMagM=    0.0000000   0.0000000   0.0000000   0.0000000   0.0000000   0.0000000   0.0000000   0.0000000   0.0000000   0.0000000
 AtZNuc=   6.0000000   6.0000000   6.0000000   6.0000000   6.0000000   6.0000000   6.0000000   6.0000000   6.0000000   6.0000000

  Atom        51          52          53          54          55          56          57          58          59          60
 IAtWgt=          12          12          12          12          12          12          12          12          12          12
 AtmWgt=  12.0000000  12.0000000  12.0000000  12.0000000  12.0000000  12.0000000  12.0000000  12.0000000  12.0000000  12.0000000
 NucSpn=           0           0           0           0           0           0           0           0           0           0
 AtZEff=  -0.0000000  -0.0000000  -0.0000000  -0.0000000  -0.0000000  -0.0000000  -0.0000000  -0.0000000  -0.0000000  -0.0000000
 NQMom=    0.0000000   0.0000000   0.0000000   0.0000000   0.0000000   0.0000000   0.0000000   0.0000000   0.0000000   0.0000000
 NMagM=    0.0000000   0.0000000   0.0000000   0.0000000   0.0000000   0.0000000   0.0000000   0.0000000   0.0000000   0.0000000
 AtZNuc=   6.0000000   6.0000000   6.0000000   6.0000000   6.0000000   6.0000000   6.0000000   6.0000000   6.0000000   6.0000000

  Atom        61          62          63          64          65          66          67          68          69          70
 IAtWgt=          12          12          12          12          12          12          35          35          35          35
 AtmWgt=  12.0000000  12.0000000  12.0000000  12.0000000  12.0000000  12.0000000  34.9688527  34.9688527  34.9688527  34.9688527
 NucSpn=           0           0           0           0           0           0           3           3           3           3
 AtZEff=  -0.0000000  -0.0000000  -0.0000000  -0.0000000  -0.0000000  -0.0000000  -0.0000000  -0.0000000  -0.0000000  -0.0000000
 NQMom=    0.0000000   0.0000000   0.0000000   0.0000000   0.0000000   0.0000000  -8.1650000  -8.1650000  -8.1650000  -8.1650000
 NMagM=    0.0000000   0.0000000   0.0000000   0.0000000   0.0000000   0.0000000   0.8218740   0.8218740   0.8218740   0.8218740
 AtZNuc=   6.0000000   6.0000000   6.0000000   6.0000000   6.0000000   6.0000000  17.0000000  17.0000000  17.0000000  17.0000000

  Atom        71
 IAtWgt=          35
 AtmWgt=  34.9688527
 NucSpn=           3
 AtZEff=  -0.0000000
 NQMom=   -8.1650000
 NMagM=    0.8218740
 AtZNuc=  17.0000000
 Leave Link  101 at Sat Jul 16 18:38:15 2022, MaxMem=  1342177280 cpu:              23.8 elap:               0.5
 (Enter /home/mkliu/g16/l103.exe)

 GradGradGradGradGradGradGradGradGradGradGradGradGradGradGradGradGradGrad
 Berny optimization.
 Initialization pass.
                           ----------------------------
                           !    Initial Parameters    !
                           ! (Angstroms and Degrees)  !
 --------------------------                            --------------------------
 ! Name  Definition              Value          Derivative Info.                !
 --------------------------------------------------------------------------------
 ! R1    R(1,2)                  1.5524         estimate D2E/DX2                !
 ! R2    R(1,4)                  1.4822         estimate D2E/DX2                !
 ! R3    R(1,7)                  1.4967         estimate D2E/DX2                !
 ! R4    R(1,67)                 1.7986         estimate D2E/DX2                !
 ! R5    R(2,3)                  1.5734         estimate D2E/DX2                !
 ! R6    R(2,10)                 1.4754         estimate D2E/DX2                !
 ! R7    R(2,68)                 1.781          estimate D2E/DX2                !
 ! R8    R(3,5)                  1.4903         estimate D2E/DX2                !
 ! R9    R(3,12)                 1.5794         estimate D2E/DX2                !
 ! R10   R(3,69)                 1.7731         estimate D2E/DX2                !
 ! R11   R(4,5)                  1.3768         estimate D2E/DX2                !
 ! R12   R(4,6)                  1.3926         estimate D2E/DX2                !
 ! R13   R(5,15)                 1.3666         estimate D2E/DX2                !
 ! R14   R(6,8)                  1.4436         estimate D2E/DX2                !
 ! R15   R(6,17)                 1.4043         estimate D2E/DX2                !
 ! R16   R(7,8)                  1.433          estimate D2E/DX2                !
 ! R17   R(7,9)                  1.3987         estimate D2E/DX2                !
 ! R18   R(8,20)                 1.3933         estimate D2E/DX2                !
 ! R19   R(9,11)                 1.4558         estimate D2E/DX2                !
 ! R20   R(9,22)                 1.407          estimate D2E/DX2                !
 ! R21   R(10,11)                1.4086         estimate D2E/DX2                !
 ! R22   R(10,13)                1.3687         estimate D2E/DX2                !
 ! R23   R(11,25)                1.3826         estimate D2E/DX2                !
 ! R24   R(12,13)                1.4859         estimate D2E/DX2                !
 ! R25   R(12,14)                1.5124         estimate D2E/DX2                !
 ! R26   R(12,70)                1.8116         estimate D2E/DX2                !
 ! R27   R(13,27)                1.406          estimate D2E/DX2                !
 ! R28   R(14,16)                1.3748         estimate D2E/DX2                !
 ! R29   R(14,29)                1.4535         estimate D2E/DX2                !
 ! R30   R(15,16)                1.4617         estimate D2E/DX2                !
 ! R31   R(15,18)                1.4112         estimate D2E/DX2                !
 ! R32   R(16,32)                1.4292         estimate D2E/DX2                !
 ! R33   R(17,18)                1.4165         estimate D2E/DX2                !
 ! R34   R(17,19)                1.4414         estimate D2E/DX2                !
 ! R35   R(18,33)                1.427          estimate D2E/DX2                !
 ! R36   R(19,21)                1.4583         estimate D2E/DX2                !
 ! R37   R(19,35)                1.4003         estimate D2E/DX2                !
 ! R38   R(20,21)                1.4279         estimate D2E/DX2                !
 ! R39   R(20,23)                1.5059         estimate D2E/DX2                !
 ! R40   R(21,38)                1.4193         estimate D2E/DX2                !
 ! R41   R(22,23)                1.5125         estimate D2E/DX2                !
 ! R42   R(22,24)                1.4103         estimate D2E/DX2                !
 ! R43   R(23,40)                1.4977         estimate D2E/DX2                !
 ! R44   R(23,71)                1.8269         estimate D2E/DX2                !
 ! R45   R(24,26)                1.3923         estimate D2E/DX2                !
 ! R46   R(24,41)                1.4458         estimate D2E/DX2                !
 ! R47   R(25,26)                1.4283         estimate D2E/DX2                !
 ! R48   R(25,28)                1.4299         estimate D2E/DX2                !
 ! R49   R(26,44)                1.426          estimate D2E/DX2                !
 ! R50   R(27,28)                1.3899         estimate D2E/DX2                !
 ! R51   R(27,30)                1.4461         estimate D2E/DX2                !
 ! R52   R(28,45)                1.4212         estimate D2E/DX2                !
 ! R53   R(29,30)                1.4504         estimate D2E/DX2                !
 ! R54   R(29,31)                1.402          estimate D2E/DX2                !
 ! R55   R(30,47)                1.4026         estimate D2E/DX2                !
 ! R56   R(31,34)                1.4301         estimate D2E/DX2                !
 ! R57   R(31,49)                1.4358         estimate D2E/DX2                !
 ! R58   R(32,33)                1.4366         estimate D2E/DX2                !
 ! R59   R(32,34)                1.3705         estimate D2E/DX2                !
 ! R60   R(33,36)                1.3716         estimate D2E/DX2                !
 ! R61   R(34,51)                1.4418         estimate D2E/DX2                !
 ! R62   R(35,36)                1.4462         estimate D2E/DX2                !
 ! R63   R(35,37)                1.4256         estimate D2E/DX2                !
 ! R64   R(36,52)                1.4377         estimate D2E/DX2                !
 ! R65   R(37,39)                1.3842         estimate D2E/DX2                !
 ! R66   R(37,53)                1.4373         estimate D2E/DX2                !
 ! R67   R(38,39)                1.4196         estimate D2E/DX2                !
 ! R68   R(38,42)                1.4526         estimate D2E/DX2                !
 ! R69   R(39,57)                1.4453         estimate D2E/DX2                !
 ! R70   R(40,41)                1.4165         estimate D2E/DX2                !
 ! R71   R(40,42)                1.3697         estimate D2E/DX2                !
 ! R72   R(41,43)                1.3912         estimate D2E/DX2                !
 ! R73   R(42,58)                1.4368         estimate D2E/DX2                !
 ! R74   R(43,46)                1.4354         estimate D2E/DX2                !
 ! R75   R(43,59)                1.4303         estimate D2E/DX2                !
 ! R76   R(44,45)                1.4429         estimate D2E/DX2                !
 ! R77   R(44,46)                1.3827         estimate D2E/DX2                !
 ! R78   R(45,48)                1.3726         estimate D2E/DX2                !
 ! R79   R(46,61)                1.4419         estimate D2E/DX2                !
 ! R80   R(47,48)                1.4385         estimate D2E/DX2                !
 ! R81   R(47,50)                1.4338         estimate D2E/DX2                !
 ! R82   R(48,62)                1.4406         estimate D2E/DX2                !
 ! R83   R(49,50)                1.3715         estimate D2E/DX2                !
 ! R84   R(49,54)                1.4444         estimate D2E/DX2                !
 ! R85   R(50,63)                1.4417         estimate D2E/DX2                !
 ! R86   R(51,52)                1.3867         estimate D2E/DX2                !
 ! R87   R(51,54)                1.4328         estimate D2E/DX2                !
 ! R88   R(52,53)                1.4357         estimate D2E/DX2                !
 ! R89   R(53,55)                1.3845         estimate D2E/DX2                !
 ! R90   R(54,56)                1.3855         estimate D2E/DX2                !
 ! R91   R(55,56)                1.4378         estimate D2E/DX2                !
 ! R92   R(55,60)                1.4411         estimate D2E/DX2                !
 ! R93   R(56,64)                1.4385         estimate D2E/DX2                !
 ! R94   R(57,58)                1.4349         estimate D2E/DX2                !
 ! R95   R(57,60)                1.3831         estimate D2E/DX2                !
 ! R96   R(58,59)                1.3873         estimate D2E/DX2                !
 ! R97   R(59,65)                1.4419         estimate D2E/DX2                !
 ! R98   R(60,66)                1.4422         estimate D2E/DX2                !
 ! R99   R(61,62)                1.3873         estimate D2E/DX2                !
 ! R100  R(61,65)                1.4401         estimate D2E/DX2                !
 ! R101  R(62,63)                1.4301         estimate D2E/DX2                !
 ! R102  R(63,64)                1.386          estimate D2E/DX2                !
 ! R103  R(64,66)                1.4383         estimate D2E/DX2                !
 ! R104  R(65,66)                1.3846         estimate D2E/DX2                !
 ! A1    A(2,1,4)              102.4554         estimate D2E/DX2                !
 ! A2    A(2,1,7)              117.4346         estimate D2E/DX2                !
 ! A3    A(2,1,67)             111.3513         estimate D2E/DX2                !
 ! A4    A(4,1,7)               99.0621         estimate D2E/DX2                !
 ! A5    A(4,1,67)             113.2552         estimate D2E/DX2                !
 ! A6    A(7,1,67)             112.2618         estimate D2E/DX2                !
 ! A7    A(1,2,3)              108.7486         estimate D2E/DX2                !
 ! A8    A(1,2,10)             108.9641         estimate D2E/DX2                !
 ! A9    A(1,2,68)             113.9538         estimate D2E/DX2                !
 ! A10   A(3,2,10)             102.7292         estimate D2E/DX2                !
 ! A11   A(3,2,68)             113.4556         estimate D2E/DX2                !
 ! A12   A(10,2,68)            108.3227         estimate D2E/DX2                !
 ! A13   A(2,3,5)              100.5301         estimate D2E/DX2                !
 ! A14   A(2,3,12)             106.8749         estimate D2E/DX2                !
 ! A15   A(2,3,69)             114.7154         estimate D2E/DX2                !
 ! A16   A(5,3,12)             110.815          estimate D2E/DX2                !
 ! A17   A(5,3,69)             110.2938         estimate D2E/DX2                !
 ! A18   A(12,3,69)            112.9165         estimate D2E/DX2                !
 ! A19   A(1,4,5)              112.2458         estimate D2E/DX2                !
 ! A20   A(1,4,6)              113.3483         estimate D2E/DX2                !
 ! A21   A(5,4,6)              121.5734         estimate D2E/DX2                !
 ! A22   A(3,5,4)              113.8236         estimate D2E/DX2                !
 ! A23   A(3,5,15)             123.4464         estimate D2E/DX2                !
 ! A24   A(4,5,15)             117.2946         estimate D2E/DX2                !
 ! A25   A(4,6,8)              107.2147         estimate D2E/DX2                !
 ! A26   A(4,6,17)             121.7088         estimate D2E/DX2                !
 ! A27   A(8,6,17)             120.7507         estimate D2E/DX2                !
 ! A28   A(1,7,8)              110.9427         estimate D2E/DX2                !
 ! A29   A(1,7,9)              123.6194         estimate D2E/DX2                !
 ! A30   A(8,7,9)              115.1797         estimate D2E/DX2                !
 ! A31   A(6,8,7)              106.5516         estimate D2E/DX2                !
 ! A32   A(6,8,20)             119.4876         estimate D2E/DX2                !
 ! A33   A(7,8,20)             125.7143         estimate D2E/DX2                !
 ! A34   A(7,9,11)             116.0531         estimate D2E/DX2                !
 ! A35   A(7,9,22)             117.4005         estimate D2E/DX2                !
 ! A36   A(11,9,22)            118.1057         estimate D2E/DX2                !
 ! A37   A(2,10,11)            124.4316         estimate D2E/DX2                !
 ! A38   A(2,10,13)            112.1891         estimate D2E/DX2                !
 ! A39   A(11,10,13)           121.8783         estimate D2E/DX2                !
 ! A40   A(9,11,10)            117.9463         estimate D2E/DX2                !
 ! A41   A(9,11,25)            118.9199         estimate D2E/DX2                !
 ! A42   A(10,11,25)           114.4817         estimate D2E/DX2                !
 ! A43   A(3,12,13)            102.0978         estimate D2E/DX2                !
 ! A44   A(3,12,14)            116.5786         estimate D2E/DX2                !
 ! A45   A(3,12,70)            111.4561         estimate D2E/DX2                !
 ! A46   A(13,12,14)           109.1463         estimate D2E/DX2                !
 ! A47   A(13,12,70)           109.991          estimate D2E/DX2                !
 ! A48   A(14,12,70)           107.4069         estimate D2E/DX2                !
 ! A49   A(10,13,12)           113.5881         estimate D2E/DX2                !
 ! A50   A(10,13,27)           122.8458         estimate D2E/DX2                !
 ! A51   A(12,13,27)           121.3849         estimate D2E/DX2                !
 ! A52   A(12,14,16)           121.0381         estimate D2E/DX2                !
 ! A53   A(12,14,29)           118.1817         estimate D2E/DX2                !
 ! A54   A(16,14,29)           118.119          estimate D2E/DX2                !
 ! A55   A(5,15,16)            120.4568         estimate D2E/DX2                !
 ! A56   A(5,15,18)            120.8506         estimate D2E/DX2                !
 ! A57   A(16,15,18)           108.3921         estimate D2E/DX2                !
 ! A58   A(14,16,15)           118.0733         estimate D2E/DX2                !
 ! A59   A(14,16,32)           122.5634         estimate D2E/DX2                !
 ! A60   A(15,16,32)           105.7627         estimate D2E/DX2                !
 ! A61   A(6,17,18)            114.3158         estimate D2E/DX2                !
 ! A62   A(6,17,19)            119.5422         estimate D2E/DX2                !
 ! A63   A(18,17,19)           119.9769         estimate D2E/DX2                !
 ! A64   A(15,18,17)           121.4077         estimate D2E/DX2                !
 ! A65   A(15,18,33)           107.2474         estimate D2E/DX2                !
 ! A66   A(17,18,33)           121.0362         estimate D2E/DX2                !
 ! A67   A(17,19,21)           118.719          estimate D2E/DX2                !
 ! A68   A(17,19,35)           116.7015         estimate D2E/DX2                !
 ! A69   A(21,19,35)           119.5123         estimate D2E/DX2                !
 ! A70   A(8,20,21)            120.9981         estimate D2E/DX2                !
 ! A71   A(8,20,23)            115.3621         estimate D2E/DX2                !
 ! A72   A(21,20,23)           121.2389         estimate D2E/DX2                !
 ! A73   A(19,21,20)           119.4468         estimate D2E/DX2                !
 ! A74   A(19,21,38)           117.1436         estimate D2E/DX2                !
 ! A75   A(20,21,38)           119.2006         estimate D2E/DX2                !
 ! A76   A(9,22,23)            124.4516         estimate D2E/DX2                !
 ! A77   A(9,22,24)            120.7956         estimate D2E/DX2                !
 ! A78   A(23,22,24)           109.1919         estimate D2E/DX2                !
 ! A79   A(20,23,22)           108.7444         estimate D2E/DX2                !
 ! A80   A(20,23,40)           113.6589         estimate D2E/DX2                !
 ! A81   A(20,23,71)           107.443          estimate D2E/DX2                !
 ! A82   A(22,23,40)           101.5891         estimate D2E/DX2                !
 ! A83   A(22,23,71)           112.8812         estimate D2E/DX2                !
 ! A84   A(40,23,71)           112.5208         estimate D2E/DX2                !
 ! A85   A(22,24,26)           120.9536         estimate D2E/DX2                !
 ! A86   A(22,24,41)           110.2774         estimate D2E/DX2                !
 ! A87   A(26,24,41)           118.7831         estimate D2E/DX2                !
 ! A88   A(11,25,26)           122.0471         estimate D2E/DX2                !
 ! A89   A(11,25,28)           122.1464         estimate D2E/DX2                !
 ! A90   A(26,25,28)           107.623          estimate D2E/DX2                !
 ! A91   A(24,26,25)           117.9181         estimate D2E/DX2                !
 ! A92   A(24,26,44)           120.8508         estimate D2E/DX2                !
 ! A93   A(25,26,44)           108.8517         estimate D2E/DX2                !
 ! A94   A(13,27,28)           114.6164         estimate D2E/DX2                !
 ! A95   A(13,27,30)           119.3832         estimate D2E/DX2                !
 ! A96   A(28,27,30)           120.8441         estimate D2E/DX2                !
 ! A97   A(25,28,27)           120.7434         estimate D2E/DX2                !
 ! A98   A(25,28,45)           107.9841         estimate D2E/DX2                !
 ! A99   A(27,28,45)           122.1313         estimate D2E/DX2                !
 ! A100  A(14,29,30)           119.3944         estimate D2E/DX2                !
 ! A101  A(14,29,31)           117.423          estimate D2E/DX2                !
 ! A102  A(30,29,31)           117.3246         estimate D2E/DX2                !
 ! A103  A(27,30,29)           118.8151         estimate D2E/DX2                !
 ! A104  A(27,30,47)           115.7186         estimate D2E/DX2                !
 ! A105  A(29,30,47)           119.2802         estimate D2E/DX2                !
 ! A106  A(29,31,34)           122.6423         estimate D2E/DX2                !
 ! A107  A(29,31,49)           122.482          estimate D2E/DX2                !
 ! A108  A(34,31,49)           105.8896         estimate D2E/DX2                !
 ! A109  A(16,32,33)           108.2708         estimate D2E/DX2                !
 ! A110  A(16,32,34)           119.7384         estimate D2E/DX2                !
 ! A111  A(33,32,34)           119.0956         estimate D2E/DX2                !
 ! A112  A(18,33,32)           108.1857         estimate D2E/DX2                !
 ! A113  A(18,33,36)           119.0137         estimate D2E/DX2                !
 ! A114  A(32,33,36)           120.6498         estimate D2E/DX2                !
 ! A115  A(31,34,32)           117.9807         estimate D2E/DX2                !
 ! A116  A(31,34,51)           109.4696         estimate D2E/DX2                !
 ! A117  A(32,34,51)           120.4177         estimate D2E/DX2                !
 ! A118  A(19,35,36)           121.9376         estimate D2E/DX2                !
 ! A119  A(19,35,37)           121.8926         estimate D2E/DX2                !
 ! A120  A(36,35,37)           106.6631         estimate D2E/DX2                !
 ! A121  A(33,36,35)           119.9492         estimate D2E/DX2                !
 ! A122  A(33,36,52)           119.8334         estimate D2E/DX2                !
 ! A123  A(35,36,52)           108.9577         estimate D2E/DX2                !
 ! A124  A(35,37,39)           118.7735         estimate D2E/DX2                !
 ! A125  A(35,37,53)           108.809          estimate D2E/DX2                !
 ! A126  A(39,37,53)           121.225          estimate D2E/DX2                !
 ! A127  A(21,38,39)           121.5477         estimate D2E/DX2                !
 ! A128  A(21,38,42)           120.438          estimate D2E/DX2                !
 ! A129  A(39,38,42)           107.1986         estimate D2E/DX2                !
 ! A130  A(37,39,38)           120.8018         estimate D2E/DX2                !
 ! A131  A(37,39,57)           119.1823         estimate D2E/DX2                !
 ! A132  A(38,39,57)           109.2436         estimate D2E/DX2                !
 ! A133  A(23,40,41)           111.6053         estimate D2E/DX2                !
 ! A134  A(23,40,42)           121.3243         estimate D2E/DX2                !
 ! A135  A(41,40,42)           119.1668         estimate D2E/DX2                !
 ! A136  A(24,41,40)           106.229          estimate D2E/DX2                !
 ! A137  A(24,41,43)           119.9178         estimate D2E/DX2                !
 ! A138  A(40,41,43)           121.4328         estimate D2E/DX2                !
 ! A139  A(38,42,40)           120.636          estimate D2E/DX2                !
 ! A140  A(38,42,58)           107.8393         estimate D2E/DX2                !
 ! A141  A(40,42,58)           120.1364         estimate D2E/DX2                !
 ! A142  A(41,43,46)           120.5774         estimate D2E/DX2                !
 ! A143  A(41,43,59)           119.5595         estimate D2E/DX2                !
 ! A144  A(46,43,59)           107.5795         estimate D2E/DX2                !
 ! A145  A(26,44,45)           106.838          estimate D2E/DX2                !
 ! A146  A(26,44,46)           120.5346         estimate D2E/DX2                !
 ! A147  A(45,44,46)           119.3249         estimate D2E/DX2                !
 ! A148  A(28,45,44)           108.488          estimate D2E/DX2                !
 ! A149  A(28,45,48)           117.9939         estimate D2E/DX2                !
 ! A150  A(44,45,48)           121.6233         estimate D2E/DX2                !
 ! A151  A(43,46,44)           119.3132         estimate D2E/DX2                !
 ! A152  A(43,46,61)           108.9591         estimate D2E/DX2                !
 ! A153  A(44,46,61)           119.2692         estimate D2E/DX2                !
 ! A154  A(30,47,48)           122.4192         estimate D2E/DX2                !
 ! A155  A(30,47,50)           121.8351         estimate D2E/DX2                !
 ! A156  A(48,47,50)           106.3835         estimate D2E/DX2                !
 ! A157  A(45,48,47)           120.5898         estimate D2E/DX2                !
 ! A158  A(45,48,62)           119.0676         estimate D2E/DX2                !
 ! A159  A(47,48,62)           109.2738         estimate D2E/DX2                !
 ! A160  A(31,49,50)           119.8054         estimate D2E/DX2                !
 ! A161  A(31,49,54)           109.6698         estimate D2E/DX2                !
 ! A162  A(50,49,54)           119.6652         estimate D2E/DX2                !
 ! A163  A(47,50,49)           119.0638         estimate D2E/DX2                !
 ! A164  A(47,50,63)           108.995          estimate D2E/DX2                !
 ! A165  A(49,50,63)           120.7458         estimate D2E/DX2                !
 ! A166  A(34,51,52)           119.5133         estimate D2E/DX2                !
 ! A167  A(34,51,54)           107.4354         estimate D2E/DX2                !
 ! A168  A(52,51,54)           119.8532         estimate D2E/DX2                !
 ! A169  A(36,52,51)           119.3856         estimate D2E/DX2                !
 ! A170  A(36,52,53)           106.8569         estimate D2E/DX2                !
 ! A171  A(51,52,53)           120.1649         estimate D2E/DX2                !
 ! A172  A(37,53,52)           108.2582         estimate D2E/DX2                !
 ! A173  A(37,53,55)           119.4073         estimate D2E/DX2                !
 ! A174  A(52,53,55)           119.8596         estimate D2E/DX2                !
 ! A175  A(49,54,51)           106.9197         estimate D2E/DX2                !
 ! A176  A(49,54,56)           119.7008         estimate D2E/DX2                !
 ! A177  A(51,54,56)           119.9785         estimate D2E/DX2                !
 ! A178  A(53,55,56)           119.8576         estimate D2E/DX2                !
 ! A179  A(53,55,60)           119.5235         estimate D2E/DX2                !
 ! A180  A(56,55,60)           108.4653         estimate D2E/DX2                !
 ! A181  A(54,56,55)           120.073          estimate D2E/DX2                !
 ! A182  A(54,56,64)           120.268          estimate D2E/DX2                !
 ! A183  A(55,56,64)           107.6147         estimate D2E/DX2                !
 ! A184  A(39,57,58)           107.0765         estimate D2E/DX2                !
 ! A185  A(39,57,60)           119.4475         estimate D2E/DX2                !
 ! A186  A(58,57,60)           120.5803         estimate D2E/DX2                !
 ! A187  A(42,58,57)           108.3479         estimate D2E/DX2                !
 ! A188  A(42,58,59)           120.7644         estimate D2E/DX2                !
 ! A189  A(57,58,59)           119.4329         estimate D2E/DX2                !
 ! A190  A(43,59,58)           118.727          estimate D2E/DX2                !
 ! A191  A(43,59,65)           108.235          estimate D2E/DX2                !
 ! A192  A(58,59,65)           120.2573         estimate D2E/DX2                !
 ! A193  A(55,60,57)           120.9267         estimate D2E/DX2                !
 ! A194  A(55,60,66)           107.5703         estimate D2E/DX2                !
 ! A195  A(57,60,66)           119.9079         estimate D2E/DX2                !
 ! A196  A(46,61,62)           120.8723         estimate D2E/DX2                !
 ! A197  A(46,61,65)           106.894          estimate D2E/DX2                !
 ! A198  A(62,61,65)           119.8024         estimate D2E/DX2                !
 ! A199  A(48,62,61)           119.6315         estimate D2E/DX2                !
 ! A200  A(48,62,63)           107.2736         estimate D2E/DX2                !
 ! A201  A(61,62,63)           120.4355         estimate D2E/DX2                !
 ! A202  A(50,63,62)           107.8484         estimate D2E/DX2                !
 ! A203  A(50,63,64)           119.5793         estimate D2E/DX2                !
 ! A204  A(62,63,64)           119.8269         estimate D2E/DX2                !
 ! A205  A(56,64,63)           119.6895         estimate D2E/DX2                !
 ! A206  A(56,64,66)           108.3307         estimate D2E/DX2                !
 ! A207  A(63,64,66)           119.9106         estimate D2E/DX2                !
 ! A208  A(59,65,61)           108.2891         estimate D2E/DX2                !
 ! A209  A(59,65,66)           119.9244         estimate D2E/DX2                !
 ! A210  A(61,65,66)           119.6503         estimate D2E/DX2                !
 ! A211  A(60,66,64)           107.9424         estimate D2E/DX2                !
 ! A212  A(60,66,65)           119.7868         estimate D2E/DX2                !
 ! A213  A(64,66,65)           120.276          estimate D2E/DX2                !
 ! D1    D(4,1,2,3)             13.4496         estimate D2E/DX2                !
 ! D2    D(4,1,2,10)           -97.8154         estimate D2E/DX2                !
 ! D3    D(4,1,2,68)           141.0935         estimate D2E/DX2                !
 ! D4    D(7,1,2,3)            120.6911         estimate D2E/DX2                !
 ! D5    D(7,1,2,10)             9.4261         estimate D2E/DX2                !
 ! D6    D(7,1,2,68)          -111.665          estimate D2E/DX2                !
 ! D7    D(67,1,2,3)          -107.9152         estimate D2E/DX2                !
 ! D8    D(67,1,2,10)          140.8198         estimate D2E/DX2                !
 ! D9    D(67,1,2,68)           19.7287         estimate D2E/DX2                !
 ! D10   D(2,1,4,5)             -6.8551         estimate D2E/DX2                !
 ! D11   D(2,1,4,6)            135.5849         estimate D2E/DX2                !
 ! D12   D(7,1,4,5)           -127.7212         estimate D2E/DX2                !
 ! D13   D(7,1,4,6)             14.7189         estimate D2E/DX2                !
 ! D14   D(67,1,4,5)           113.1946         estimate D2E/DX2                !
 ! D15   D(67,1,4,6)          -104.3653         estimate D2E/DX2                !
 ! D16   D(2,1,7,8)           -126.0981         estimate D2E/DX2                !
 ! D17   D(2,1,7,9)             17.1774         estimate D2E/DX2                !
 ! D18   D(4,1,7,8)            -16.8975         estimate D2E/DX2                !
 ! D19   D(4,1,7,9)            126.378          estimate D2E/DX2                !
 ! D20   D(67,1,7,8)           102.9246         estimate D2E/DX2                !
 ! D21   D(67,1,7,9)          -113.7999         estimate D2E/DX2                !
 ! D22   D(1,2,3,5)            -14.6498         estimate D2E/DX2                !
 ! D23   D(1,2,3,12)          -130.3772         estimate D2E/DX2                !
 ! D24   D(1,2,3,69)           103.6384         estimate D2E/DX2                !
 ! D25   D(10,2,3,5)           100.7231         estimate D2E/DX2                !
 ! D26   D(10,2,3,12)          -15.0042         estimate D2E/DX2                !
 ! D27   D(10,2,3,69)         -140.9887         estimate D2E/DX2                !
 ! D28   D(68,2,3,5)          -142.5759         estimate D2E/DX2                !
 ! D29   D(68,2,3,12)          101.6968         estimate D2E/DX2                !
 ! D30   D(68,2,3,69)          -24.2877         estimate D2E/DX2                !
 ! D31   D(1,2,10,11)          -35.361          estimate D2E/DX2                !
 ! D32   D(1,2,10,13)          130.8336         estimate D2E/DX2                !
 ! D33   D(3,2,10,11)         -150.5782         estimate D2E/DX2                !
 ! D34   D(3,2,10,13)           15.6164         estimate D2E/DX2                !
 ! D35   D(68,2,10,11)          89.1125         estimate D2E/DX2                !
 ! D36   D(68,2,10,13)        -104.6929         estimate D2E/DX2                !
 ! D37   D(2,3,5,4)             10.8497         estimate D2E/DX2                !
 ! D38   D(2,3,5,15)          -142.3295         estimate D2E/DX2                !
 ! D39   D(12,3,5,4)           123.589          estimate D2E/DX2                !
 ! D40   D(12,3,5,15)          -29.5903         estimate D2E/DX2                !
 ! D41   D(69,3,5,4)          -110.6272         estimate D2E/DX2                !
 ! D42   D(69,3,5,15)           96.1936         estimate D2E/DX2                !
 ! D43   D(2,3,12,13)            9.6366         estimate D2E/DX2                !
 ! D44   D(2,3,12,14)          128.4724         estimate D2E/DX2                !
 ! D45   D(2,3,12,70)         -107.745          estimate D2E/DX2                !
 ! D46   D(5,3,12,13)          -99.004          estimate D2E/DX2                !
 ! D47   D(5,3,12,14)           19.8318         estimate D2E/DX2                !
 ! D48   D(5,3,12,70)          143.6144         estimate D2E/DX2                !
 ! D49   D(69,3,12,13)         136.6933         estimate D2E/DX2                !
 ! D50   D(69,3,12,14)        -104.4709         estimate D2E/DX2                !
 ! D51   D(69,3,12,70)          19.3117         estimate D2E/DX2                !
 ! D52   D(1,4,5,3)             -2.8122         estimate D2E/DX2                !
 ! D53   D(1,4,5,15)           152.1224         estimate D2E/DX2                !
 ! D54   D(6,4,5,3)           -141.7471         estimate D2E/DX2                !
 ! D55   D(6,4,5,15)            13.1875         estimate D2E/DX2                !
 ! D56   D(1,4,6,8)             -7.4612         estimate D2E/DX2                !
 ! D57   D(1,4,6,17)          -152.6087         estimate D2E/DX2                !
 ! D58   D(5,4,6,8)            131.0671         estimate D2E/DX2                !
 ! D59   D(5,4,6,17)           -14.0805         estimate D2E/DX2                !
 ! D60   D(3,5,15,16)           12.1053         estimate D2E/DX2                !
 ! D61   D(3,5,15,18)          153.1458         estimate D2E/DX2                !
 ! D62   D(4,5,15,16)         -140.2188         estimate D2E/DX2                !
 ! D63   D(4,5,15,18)            0.8217         estimate D2E/DX2                !
 ! D64   D(4,6,8,7)             -3.9227         estimate D2E/DX2                !
 ! D65   D(4,6,8,20)          -154.1108         estimate D2E/DX2                !
 ! D66   D(17,6,8,7)           141.6264         estimate D2E/DX2                !
 ! D67   D(17,6,8,20)           -8.5617         estimate D2E/DX2                !
 ! D68   D(4,6,17,18)            0.413          estimate D2E/DX2                !
 ! D69   D(4,6,17,19)          152.8259         estimate D2E/DX2                !
 ! D70   D(8,6,17,18)         -140.1544         estimate D2E/DX2                !
 ! D71   D(8,6,17,19)           12.2585         estimate D2E/DX2                !
 ! D72   D(1,7,8,6)             13.7818         estimate D2E/DX2                !
 ! D73   D(1,7,8,20)           161.5741         estimate D2E/DX2                !
 ! D74   D(9,7,8,6)           -132.8353         estimate D2E/DX2                !
 ! D75   D(9,7,8,20)            14.957          estimate D2E/DX2                !
 ! D76   D(1,7,9,11)           -20.6363         estimate D2E/DX2                !
 ! D77   D(1,7,9,22)          -168.208          estimate D2E/DX2                !
 ! D78   D(8,7,9,11)           121.2588         estimate D2E/DX2                !
 ! D79   D(8,7,9,22)           -26.3129         estimate D2E/DX2                !
 ! D80   D(6,8,20,21)           -0.3623         estimate D2E/DX2                !
 ! D81   D(6,8,20,23)          162.2578         estimate D2E/DX2                !
 ! D82   D(7,8,20,21)         -144.4225         estimate D2E/DX2                !
 ! D83   D(7,8,20,23)           18.1975         estimate D2E/DX2                !
 ! D84   D(7,9,11,10)           -3.7453         estimate D2E/DX2                !
 ! D85   D(7,9,11,25)         -149.7452         estimate D2E/DX2                !
 ! D86   D(22,9,11,10)         143.5896         estimate D2E/DX2                !
 ! D87   D(22,9,11,25)          -2.4103         estimate D2E/DX2                !
 ! D88   D(7,9,22,23)            5.7052         estimate D2E/DX2                !
 ! D89   D(7,9,22,24)          156.5124         estimate D2E/DX2                !
 ! D90   D(11,9,22,23)        -141.191          estimate D2E/DX2                !
 ! D91   D(11,9,22,24)           9.6161         estimate D2E/DX2                !
 ! D92   D(2,10,11,9)           34.3636         estimate D2E/DX2                !
 ! D93   D(2,10,11,25)        -178.1713         estimate D2E/DX2                !
 ! D94   D(13,10,11,9)        -130.5545         estimate D2E/DX2                !
 ! D95   D(13,10,11,25)         16.9106         estimate D2E/DX2                !
 ! D96   D(2,10,13,12)         -10.2914         estimate D2E/DX2                !
 ! D97   D(2,10,13,27)        -173.6846         estimate D2E/DX2                !
 ! D98   D(11,10,13,12)        156.3069         estimate D2E/DX2                !
 ! D99   D(11,10,13,27)         -7.0863         estimate D2E/DX2                !
 ! D100  D(9,11,25,26)          -7.8847         estimate D2E/DX2                !
 ! D101  D(9,11,25,28)         136.7285         estimate D2E/DX2                !
 ! D102  D(10,11,25,26)       -155.0113         estimate D2E/DX2                !
 ! D103  D(10,11,25,28)        -10.3981         estimate D2E/DX2                !
 ! D104  D(3,12,13,10)          -0.1985         estimate D2E/DX2                !
 ! D105  D(3,12,13,27)         163.4658         estimate D2E/DX2                !
 ! D106  D(14,12,13,10)       -124.1712         estimate D2E/DX2                !
 ! D107  D(14,12,13,27)         39.4932         estimate D2E/DX2                !
 ! D108  D(70,12,13,10)        118.2298         estimate D2E/DX2                !
 ! D109  D(70,12,13,27)        -78.1059         estimate D2E/DX2                !
 ! D110  D(3,12,14,16)           6.3299         estimate D2E/DX2                !
 ! D111  D(3,12,14,29)        -154.8354         estimate D2E/DX2                !
 ! D112  D(13,12,14,16)        121.2759         estimate D2E/DX2                !
 ! D113  D(13,12,14,29)        -39.8894         estimate D2E/DX2                !
 ! D114  D(70,12,14,16)       -119.5078         estimate D2E/DX2                !
 ! D115  D(70,12,14,29)         79.3269         estimate D2E/DX2                !
 ! D116  D(10,13,27,28)         -9.7724         estimate D2E/DX2                !
 ! D117  D(10,13,27,30)        145.0795         estimate D2E/DX2                !
 ! D118  D(12,13,27,28)       -171.9052         estimate D2E/DX2                !
 ! D119  D(12,13,27,30)        -17.0533         estimate D2E/DX2                !
 ! D120  D(12,14,16,15)        -26.0072         estimate D2E/DX2                !
 ! D121  D(12,14,16,32)       -160.9107         estimate D2E/DX2                !
 ! D122  D(29,14,16,15)        135.1696         estimate D2E/DX2                !
 ! D123  D(29,14,16,32)          0.2661         estimate D2E/DX2                !
 ! D124  D(12,14,29,30)         19.4304         estimate D2E/DX2                !
 ! D125  D(12,14,29,31)        171.7868         estimate D2E/DX2                !
 ! D126  D(16,14,29,30)       -142.2912         estimate D2E/DX2                !
 ! D127  D(16,14,29,31)         10.0652         estimate D2E/DX2                !
 ! D128  D(5,15,16,14)          17.748          estimate D2E/DX2                !
 ! D129  D(5,15,16,32)         159.4118         estimate D2E/DX2                !
 ! D130  D(18,15,16,14)       -127.5811         estimate D2E/DX2                !
 ! D131  D(18,15,16,32)         14.0827         estimate D2E/DX2                !
 ! D132  D(5,15,18,17)         -14.596          estimate D2E/DX2                !
 ! D133  D(5,15,18,33)        -159.8911         estimate D2E/DX2                !
 ! D134  D(16,15,18,17)        130.5711         estimate D2E/DX2                !
 ! D135  D(16,15,18,33)        -14.724          estimate D2E/DX2                !
 ! D136  D(14,16,32,33)        131.5522         estimate D2E/DX2                !
 ! D137  D(14,16,32,34)         -9.5589         estimate D2E/DX2                !
 ! D138  D(15,16,32,33)         -7.9527         estimate D2E/DX2                !
 ! D139  D(15,16,32,34)       -149.0639         estimate D2E/DX2                !
 ! D140  D(6,17,18,15)          13.4203         estimate D2E/DX2                !
 ! D141  D(6,17,18,33)         154.0302         estimate D2E/DX2                !
 ! D142  D(19,17,18,15)       -138.8624         estimate D2E/DX2                !
 ! D143  D(19,17,18,33)          1.7475         estimate D2E/DX2                !
 ! D144  D(6,17,19,21)          -7.1407         estimate D2E/DX2                !
 ! D145  D(6,17,19,35)        -161.8766         estimate D2E/DX2                !
 ! D146  D(18,17,19,21)        143.7034         estimate D2E/DX2                !
 ! D147  D(18,17,19,35)        -11.0325         estimate D2E/DX2                !
 ! D148  D(15,18,33,32)          9.6786         estimate D2E/DX2                !
 ! D149  D(15,18,33,36)        152.4089         estimate D2E/DX2                !
 ! D150  D(17,18,33,32)       -135.772          estimate D2E/DX2                !
 ! D151  D(17,18,33,36)          6.9583         estimate D2E/DX2                !
 ! D152  D(17,19,21,20)         -1.5124         estimate D2E/DX2                !
 ! D153  D(17,19,21,38)       -158.2957         estimate D2E/DX2                !
 ! D154  D(35,19,21,20)        152.5033         estimate D2E/DX2                !
 ! D155  D(35,19,21,38)         -4.28           estimate D2E/DX2                !
 ! D156  D(17,19,35,36)         12.2067         estimate D2E/DX2                !
 ! D157  D(17,19,35,37)        154.0073         estimate D2E/DX2                !
 ! D158  D(21,19,35,36)       -142.3196         estimate D2E/DX2                !
 ! D159  D(21,19,35,37)         -0.519          estimate D2E/DX2                !
 ! D160  D(8,20,21,19)           5.2562         estimate D2E/DX2                !
 ! D161  D(8,20,21,38)         161.5615         estimate D2E/DX2                !
 ! D162  D(23,20,21,19)       -156.3414         estimate D2E/DX2                !
 ! D163  D(23,20,21,38)         -0.0361         estimate D2E/DX2                !
 ! D164  D(8,20,23,22)         -35.2133         estimate D2E/DX2                !
 ! D165  D(8,20,23,40)        -147.5645         estimate D2E/DX2                !
 ! D166  D(8,20,23,71)          87.2673         estimate D2E/DX2                !
 ! D167  D(21,20,23,22)        127.3612         estimate D2E/DX2                !
 ! D168  D(21,20,23,40)         15.01           estimate D2E/DX2                !
 ! D169  D(21,20,23,71)       -110.1582         estimate D2E/DX2                !
 ! D170  D(19,21,38,39)          6.7498         estimate D2E/DX2                !
 ! D171  D(19,21,38,42)        146.4947         estimate D2E/DX2                !
 ! D172  D(20,21,38,39)       -150.0927         estimate D2E/DX2                !
 ! D173  D(20,21,38,42)        -10.3479         estimate D2E/DX2                !
 ! D174  D(9,22,23,20)          25.4356         estimate D2E/DX2                !
 ! D175  D(9,22,23,40)         145.5796         estimate D2E/DX2                !
 ! D176  D(9,22,23,71)         -93.6946         estimate D2E/DX2                !
 ! D177  D(24,22,23,20)       -128.2285         estimate D2E/DX2                !
 ! D178  D(24,22,23,40)         -8.0844         estimate D2E/DX2                !
 ! D179  D(24,22,23,71)        112.6414         estimate D2E/DX2                !
 ! D180  D(9,22,24,26)          -6.7046         estimate D2E/DX2                !
 ! D181  D(9,22,24,41)        -151.8033         estimate D2E/DX2                !
 ! D182  D(23,22,24,26)        148.0897         estimate D2E/DX2                !
 ! D183  D(23,22,24,41)          2.991          estimate D2E/DX2                !
 ! D184  D(20,23,40,41)        127.3979         estimate D2E/DX2                !
 ! D185  D(20,23,40,42)        -21.3228         estimate D2E/DX2                !
 ! D186  D(22,23,40,41)         10.7837         estimate D2E/DX2                !
 ! D187  D(22,23,40,42)       -137.937          estimate D2E/DX2                !
 ! D188  D(71,23,40,41)       -110.1944         estimate D2E/DX2                !
 ! D189  D(71,23,40,42)        101.0849         estimate D2E/DX2                !
 ! D190  D(22,24,26,25)         -3.4763         estimate D2E/DX2                !
 ! D191  D(22,24,26,44)       -141.4171         estimate D2E/DX2                !
 ! D192  D(41,24,26,25)        138.7632         estimate D2E/DX2                !
 ! D193  D(41,24,26,44)          0.8223         estimate D2E/DX2                !
 ! D194  D(22,24,41,40)          3.8689         estimate D2E/DX2                !
 ! D195  D(22,24,41,43)        146.4434         estimate D2E/DX2                !
 ! D196  D(26,24,41,40)       -142.0857         estimate D2E/DX2                !
 ! D197  D(26,24,41,43)          0.4887         estimate D2E/DX2                !
 ! D198  D(11,25,26,24)         10.8915         estimate D2E/DX2                !
 ! D199  D(11,25,26,44)        153.4674         estimate D2E/DX2                !
 ! D200  D(28,25,26,24)       -138.1472         estimate D2E/DX2                !
 ! D201  D(28,25,26,44)          4.4287         estimate D2E/DX2                !
 ! D202  D(11,25,28,27)         -6.1526         estimate D2E/DX2                !
 ! D203  D(11,25,28,45)       -153.6844         estimate D2E/DX2                !
 ! D204  D(26,25,28,27)        142.8488         estimate D2E/DX2                !
 ! D205  D(26,25,28,45)         -4.6831         estimate D2E/DX2                !
 ! D206  D(24,26,44,45)        138.8343         estimate D2E/DX2                !
 ! D207  D(24,26,44,46)         -1.7538         estimate D2E/DX2                !
 ! D208  D(25,26,44,45)         -2.4478         estimate D2E/DX2                !
 ! D209  D(25,26,44,46)       -143.0359         estimate D2E/DX2                !
 ! D210  D(13,27,28,25)         15.9892         estimate D2E/DX2                !
 ! D211  D(13,27,28,45)        158.9073         estimate D2E/DX2                !
 ! D212  D(30,27,28,25)       -138.4613         estimate D2E/DX2                !
 ! D213  D(30,27,28,45)          4.4568         estimate D2E/DX2                !
 ! D214  D(13,27,30,29)         -7.6958         estimate D2E/DX2                !
 ! D215  D(13,27,30,47)       -159.8906         estimate D2E/DX2                !
 ! D216  D(28,27,30,29)        145.5618         estimate D2E/DX2                !
 ! D217  D(28,27,30,47)         -6.633          estimate D2E/DX2                !
 ! D218  D(25,28,45,44)          3.2001         estimate D2E/DX2                !
 ! D219  D(25,28,45,48)        146.7006         estimate D2E/DX2                !
 ! D220  D(27,28,45,44)       -143.7862         estimate D2E/DX2                !
 ! D221  D(27,28,45,48)         -0.2857         estimate D2E/DX2                !
 ! D222  D(14,29,30,27)          5.9933         estimate D2E/DX2                !
 ! D223  D(14,29,30,47)        157.1893         estimate D2E/DX2                !
 ! D224  D(31,29,30,27)       -146.3898         estimate D2E/DX2                !
 ! D225  D(31,29,30,47)          4.8063         estimate D2E/DX2                !
 ! D226  D(14,29,31,34)        -11.9524         estimate D2E/DX2                !
 ! D227  D(14,29,31,49)       -154.4417         estimate D2E/DX2                !
 ! D228  D(30,29,31,34)        140.982          estimate D2E/DX2                !
 ! D229  D(30,29,31,49)         -1.5073         estimate D2E/DX2                !
 ! D230  D(27,30,47,48)          5.0829         estimate D2E/DX2                !
 ! D231  D(27,30,47,50)        147.0465         estimate D2E/DX2                !
 ! D232  D(29,30,47,48)       -146.9752         estimate D2E/DX2                !
 ! D233  D(29,30,47,50)         -5.0117         estimate D2E/DX2                !
 ! D234  D(29,31,34,32)          2.9693         estimate D2E/DX2                !
 ! D235  D(29,31,34,51)       -139.7718         estimate D2E/DX2                !
 ! D236  D(49,31,34,32)        150.6893         estimate D2E/DX2                !
 ! D237  D(49,31,34,51)          7.9482         estimate D2E/DX2                !
 ! D238  D(29,31,49,50)         -1.8147         estimate D2E/DX2                !
 ! D239  D(29,31,49,54)        142.3291         estimate D2E/DX2                !
 ! D240  D(34,31,49,50)       -149.5993         estimate D2E/DX2                !
 ! D241  D(34,31,49,54)         -5.4554         estimate D2E/DX2                !
 ! D242  D(16,32,33,18)         -0.8439         estimate D2E/DX2                !
 ! D243  D(16,32,33,36)       -142.8508         estimate D2E/DX2                !
 ! D244  D(34,32,33,18)        140.5581         estimate D2E/DX2                !
 ! D245  D(34,32,33,36)         -1.4488         estimate D2E/DX2                !
 ! D246  D(16,32,34,31)          7.7837         estimate D2E/DX2                !
 ! D247  D(16,32,34,51)        146.3384         estimate D2E/DX2                !
 ! D248  D(33,32,34,31)       -129.1962         estimate D2E/DX2                !
 ! D249  D(33,32,34,51)          9.3585         estimate D2E/DX2                !
 ! D250  D(18,33,36,35)         -5.96           estimate D2E/DX2                !
 ! D251  D(18,33,36,52)       -145.6571         estimate D2E/DX2                !
 ! D252  D(32,33,36,35)        132.0698         estimate D2E/DX2                !
 ! D253  D(32,33,36,52)         -7.6273         estimate D2E/DX2                !
 ! D254  D(31,34,51,52)        133.5008         estimate D2E/DX2                !
 ! D255  D(31,34,51,54)         -7.5161         estimate D2E/DX2                !
 ! D256  D(32,34,51,52)         -8.1843         estimate D2E/DX2                !
 ! D257  D(32,34,51,54)       -149.2012         estimate D2E/DX2                !
 ! D258  D(19,35,36,33)         -3.8486         estimate D2E/DX2                !
 ! D259  D(19,35,36,52)        139.7607         estimate D2E/DX2                !
 ! D260  D(37,35,36,33)       -150.6145         estimate D2E/DX2                !
 ! D261  D(37,35,36,52)         -7.0053         estimate D2E/DX2                !
 ! D262  D(19,35,37,39)          3.0514         estimate D2E/DX2                !
 ! D263  D(19,35,37,53)       -141.2237         estimate D2E/DX2                !
 ! D264  D(36,35,37,39)        149.8357         estimate D2E/DX2                !
 ! D265  D(36,35,37,53)          5.5606         estimate D2E/DX2                !
 ! D266  D(33,36,52,51)          8.7465         estimate D2E/DX2                !
 ! D267  D(33,36,52,53)        149.3898         estimate D2E/DX2                !
 ! D268  D(35,36,52,51)       -134.9117         estimate D2E/DX2                !
 ! D269  D(35,36,52,53)          5.7315         estimate D2E/DX2                !
 ! D270  D(35,37,39,38)         -0.6244         estimate D2E/DX2                !
 ! D271  D(35,37,39,57)       -141.1976         estimate D2E/DX2                !
 ! D272  D(53,37,39,38)        139.1091         estimate D2E/DX2                !
 ! D273  D(53,37,39,57)         -1.464          estimate D2E/DX2                !
 ! D274  D(35,37,53,52)         -2.1039         estimate D2E/DX2                !
 ! D275  D(35,37,53,55)        139.8731         estimate D2E/DX2                !
 ! D276  D(39,37,53,52)       -145.3414         estimate D2E/DX2                !
 ! D277  D(39,37,53,55)         -3.3644         estimate D2E/DX2                !
 ! D278  D(21,38,39,37)         -4.4099         estimate D2E/DX2                !
 ! D279  D(21,38,39,57)        139.6246         estimate D2E/DX2                !
 ! D280  D(42,38,39,37)       -148.7333         estimate D2E/DX2                !
 ! D281  D(42,38,39,57)         -4.6987         estimate D2E/DX2                !
 ! D282  D(21,38,42,40)          4.2691         estimate D2E/DX2                !
 ! D283  D(21,38,42,58)       -139.2038         estimate D2E/DX2                !
 ! D284  D(39,38,42,40)        149.0669         estimate D2E/DX2                !
 ! D285  D(39,38,42,58)          5.5939         estimate D2E/DX2                !
 ! D286  D(37,39,57,58)        146.719          estimate D2E/DX2                !
 ! D287  D(37,39,57,60)          5.0357         estimate D2E/DX2                !
 ! D288  D(38,39,57,58)          2.0145         estimate D2E/DX2                !
 ! D289  D(38,39,57,60)       -139.6689         estimate D2E/DX2                !
 ! D290  D(23,40,41,24)         -9.4429         estimate D2E/DX2                !
 ! D291  D(23,40,41,43)       -151.3209         estimate D2E/DX2                !
 ! D292  D(42,40,41,24)        140.0309         estimate D2E/DX2                !
 ! D293  D(42,40,41,43)         -1.8471         estimate D2E/DX2                !
 ! D294  D(23,40,42,38)         12.447          estimate D2E/DX2                !
 ! D295  D(23,40,42,58)        151.5169         estimate D2E/DX2                !
 ! D296  D(41,40,42,38)       -133.9918         estimate D2E/DX2                !
 ! D297  D(41,40,42,58)          5.0781         estimate D2E/DX2                !
 ! D298  D(24,41,43,46)         -0.9033         estimate D2E/DX2                !
 ! D299  D(24,41,43,59)       -138.4995         estimate D2E/DX2                !
 ! D300  D(40,41,43,46)        135.9499         estimate D2E/DX2                !
 ! D301  D(40,41,43,59)         -1.6463         estimate D2E/DX2                !
 ! D302  D(38,42,58,57)         -4.4006         estimate D2E/DX2                !
 ! D303  D(38,42,58,59)        138.723          estimate D2E/DX2                !
 ! D304  D(40,42,58,57)       -148.0897         estimate D2E/DX2                !
 ! D305  D(40,42,58,59)         -4.9661         estimate D2E/DX2                !
 ! D306  D(41,43,46,44)         -0.0062         estimate D2E/DX2                !
 ! D307  D(41,43,46,61)       -141.7968         estimate D2E/DX2                !
 ! D308  D(59,43,46,44)        142.0188         estimate D2E/DX2                !
 ! D309  D(59,43,46,61)          0.2283         estimate D2E/DX2                !
 ! D310  D(41,43,59,58)          1.7911         estimate D2E/DX2                !
 ! D311  D(41,43,59,65)        143.564          estimate D2E/DX2                !
 ! D312  D(46,43,59,58)       -140.6902         estimate D2E/DX2                !
 ! D313  D(46,43,59,65)          1.0827         estimate D2E/DX2                !
 ! D314  D(26,44,45,28)         -0.4743         estimate D2E/DX2                !
 ! D315  D(26,44,45,48)       -142.3909         estimate D2E/DX2                !
 ! D316  D(46,44,45,28)        140.6804         estimate D2E/DX2                !
 ! D317  D(46,44,45,48)         -1.2362         estimate D2E/DX2                !
 ! D318  D(26,44,46,43)          1.3236         estimate D2E/DX2                !
 ! D319  D(26,44,46,61)        139.2104         estimate D2E/DX2                !
 ! D320  D(45,44,46,43)       -134.4907         estimate D2E/DX2                !
 ! D321  D(45,44,46,61)          3.3961         estimate D2E/DX2                !
 ! D322  D(28,45,48,47)         -1.3608         estimate D2E/DX2                !
 ! D323  D(28,45,48,62)       -141.4726         estimate D2E/DX2                !
 ! D324  D(44,45,48,47)        137.1493         estimate D2E/DX2                !
 ! D325  D(44,45,48,62)         -2.9625         estimate D2E/DX2                !
 ! D326  D(43,46,61,62)        140.44           estimate D2E/DX2                !
 ! D327  D(43,46,61,65)         -1.4417         estimate D2E/DX2                !
 ! D328  D(44,46,61,62)         -1.3699         estimate D2E/DX2                !
 ! D329  D(44,46,61,65)       -143.2517         estimate D2E/DX2                !
 ! D330  D(30,47,48,45)         -1.2155         estimate D2E/DX2                !
 ! D331  D(30,47,48,62)        142.3573         estimate D2E/DX2                !
 ! D332  D(50,47,48,45)       -148.1479         estimate D2E/DX2                !
 ! D333  D(50,47,48,62)         -4.5751         estimate D2E/DX2                !
 ! D334  D(30,47,50,49)          1.6554         estimate D2E/DX2                !
 ! D335  D(30,47,50,63)       -142.428          estimate D2E/DX2                !
 ! D336  D(48,47,50,49)        148.8256         estimate D2E/DX2                !
 ! D337  D(48,47,50,63)          4.7421         estimate D2E/DX2                !
 ! D338  D(45,48,62,61)          4.9668         estimate D2E/DX2                !
 ! D339  D(45,48,62,63)        146.89           estimate D2E/DX2                !
 ! D340  D(47,48,62,61)       -139.2427         estimate D2E/DX2                !
 ! D341  D(47,48,62,63)          2.6805         estimate D2E/DX2                !
 ! D342  D(31,49,50,47)          1.7713         estimate D2E/DX2                !
 ! D343  D(31,49,50,63)        141.5775         estimate D2E/DX2                !
 ! D344  D(54,49,50,47)       -138.8257         estimate D2E/DX2                !
 ! D345  D(54,49,50,63)          0.9805         estimate D2E/DX2                !
 ! D346  D(31,49,54,51)          0.9461         estimate D2E/DX2                !
 ! D347  D(31,49,54,56)       -139.8401         estimate D2E/DX2                !
 ! D348  D(50,49,54,51)        145.1478         estimate D2E/DX2                !
 ! D349  D(50,49,54,56)          4.3615         estimate D2E/DX2                !
 ! D350  D(47,50,63,62)         -3.172          estimate D2E/DX2                !
 ! D351  D(47,50,63,64)        138.4195         estimate D2E/DX2                !
 ! D352  D(49,50,63,62)       -146.5455         estimate D2E/DX2                !
 ! D353  D(49,50,63,64)         -4.9541         estimate D2E/DX2                !
 ! D354  D(34,51,52,36)         -0.9376         estimate D2E/DX2                !
 ! D355  D(34,51,52,53)       -136.3535         estimate D2E/DX2                !
 ! D356  D(54,51,52,36)        135.2724         estimate D2E/DX2                !
 ! D357  D(54,51,52,53)         -0.1435         estimate D2E/DX2                !
 ! D358  D(34,51,54,49)          3.9487         estimate D2E/DX2                !
 ! D359  D(34,51,54,56)        144.6047         estimate D2E/DX2                !
 ! D360  D(52,51,54,49)       -136.911          estimate D2E/DX2                !
 ! D361  D(52,51,54,56)          3.745          estimate D2E/DX2                !
 ! D362  D(36,52,53,37)         -2.2444         estimate D2E/DX2                !
 ! D363  D(36,52,53,55)       -144.0195         estimate D2E/DX2                !
 ! D364  D(51,52,53,37)        138.0308         estimate D2E/DX2                !
 ! D365  D(51,52,53,55)         -3.7443         estimate D2E/DX2                !
 ! D366  D(37,53,55,56)       -133.5695         estimate D2E/DX2                !
 ! D367  D(37,53,55,60)          4.5717         estimate D2E/DX2                !
 ! D368  D(52,53,55,56)          4.0146         estimate D2E/DX2                !
 ! D369  D(52,53,55,60)        142.1557         estimate D2E/DX2                !
 ! D370  D(49,54,56,55)        132.2409         estimate D2E/DX2                !
 ! D371  D(49,54,56,64)         -5.7308         estimate D2E/DX2                !
 ! D372  D(51,54,56,55)         -3.4709         estimate D2E/DX2                !
 ! D373  D(51,54,56,64)       -141.4427         estimate D2E/DX2                !
 ! D374  D(53,55,56,54)         -0.4214         estimate D2E/DX2                !
 ! D375  D(53,55,56,64)        142.2292         estimate D2E/DX2                !
 ! D376  D(60,55,56,54)       -142.6749         estimate D2E/DX2                !
 ! D377  D(60,55,56,64)         -0.0243         estimate D2E/DX2                !
 ! D378  D(53,55,60,57)         -0.991          estimate D2E/DX2                !
 ! D379  D(53,55,60,66)       -144.0638         estimate D2E/DX2                !
 ! D380  D(56,55,60,57)        141.4096         estimate D2E/DX2                !
 ! D381  D(56,55,60,66)         -1.6632         estimate D2E/DX2                !
 ! D382  D(54,56,64,63)          1.7565         estimate D2E/DX2                !
 ! D383  D(54,56,64,66)        144.2782         estimate D2E/DX2                !
 ! D384  D(55,56,64,63)       -140.8074         estimate D2E/DX2                !
 ! D385  D(55,56,64,66)          1.7143         estimate D2E/DX2                !
 ! D386  D(39,57,58,42)          1.5215         estimate D2E/DX2                !
 ! D387  D(39,57,58,59)       -142.1751         estimate D2E/DX2                !
 ! D388  D(60,57,58,42)        142.6829         estimate D2E/DX2                !
 ! D389  D(60,57,58,59)         -1.0137         estimate D2E/DX2                !
 ! D390  D(39,57,60,55)         -3.8457         estimate D2E/DX2                !
 ! D391  D(39,57,60,66)        134.7959         estimate D2E/DX2                !
 ! D392  D(58,57,60,55)       -140.3405         estimate D2E/DX2                !
 ! D393  D(58,57,60,66)         -1.6989         estimate D2E/DX2                !
 ! D394  D(42,58,59,43)          1.4315         estimate D2E/DX2                !
 ! D395  D(42,58,59,65)       -135.694          estimate D2E/DX2                !
 ! D396  D(57,58,59,43)        140.5882         estimate D2E/DX2                !
 ! D397  D(57,58,59,65)          3.4627         estimate D2E/DX2                !
 ! D398  D(43,59,65,61)         -1.9911         estimate D2E/DX2                !
 ! D399  D(43,59,65,66)       -144.3083         estimate D2E/DX2                !
 ! D400  D(58,59,65,61)        139.0914         estimate D2E/DX2                !
 ! D401  D(58,59,65,66)         -3.2258         estimate D2E/DX2                !
 ! D402  D(55,60,66,64)          2.7122         estimate D2E/DX2                !
 ! D403  D(55,60,66,65)        145.4584         estimate D2E/DX2                !
 ! D404  D(57,60,66,64)       -140.8065         estimate D2E/DX2                !
 ! D405  D(57,60,66,65)          1.9397         estimate D2E/DX2                !
 ! D406  D(46,61,62,48)         -2.8389         estimate D2E/DX2                !
 ! D407  D(46,61,62,63)       -139.7586         estimate D2E/DX2                !
 ! D408  D(65,61,62,48)        134.2652         estimate D2E/DX2                !
 ! D409  D(65,61,62,63)         -2.6545         estimate D2E/DX2                !
 ! D410  D(46,61,65,59)          2.0993         estimate D2E/DX2                !
 ! D411  D(46,61,65,66)        144.5374         estimate D2E/DX2                !
 ! D412  D(62,61,65,59)       -140.2694         estimate D2E/DX2                !
 ! D413  D(62,61,65,66)          2.1687         estimate D2E/DX2                !
 ! D414  D(48,62,63,50)          0.2956         estimate D2E/DX2                !
 ! D415  D(48,62,63,64)       -141.1837         estimate D2E/DX2                !
 ! D416  D(61,62,63,50)        141.8522         estimate D2E/DX2                !
 ! D417  D(61,62,63,64)          0.373          estimate D2E/DX2                !
 ! D418  D(50,63,64,56)          3.5645         estimate D2E/DX2                !
 ! D419  D(50,63,64,66)       -134.6503         estimate D2E/DX2                !
 ! D420  D(62,63,64,56)        140.5908         estimate D2E/DX2                !
 ! D421  D(62,63,64,66)          2.376          estimate D2E/DX2                !
 ! D422  D(56,64,66,60)         -2.749          estimate D2E/DX2                !
 ! D423  D(56,64,66,65)       -145.2794         estimate D2E/DX2                !
 ! D424  D(63,64,66,60)        139.6754         estimate D2E/DX2                !
 ! D425  D(63,64,66,65)         -2.8549         estimate D2E/DX2                !
 ! D426  D(59,65,66,60)          0.4951         estimate D2E/DX2                !
 ! D427  D(59,65,66,64)        138.6697         estimate D2E/DX2                !
 ! D428  D(61,65,66,60)       -137.6029         estimate D2E/DX2                !
 ! D429  D(61,65,66,64)          0.5718         estimate D2E/DX2                !
 --------------------------------------------------------------------------------
 Trust Radius=3.00D-01 FncErr=1.00D-07 GrdErr=1.00D-06 EigMax=2.50D+02 EigMin=1.00D-04
 Number of steps in this run=    426 maximum allowed number of steps=    426.
 GradGradGradGradGradGradGradGradGradGradGradGradGradGradGradGradGradGrad

 Leave Link  103 at Sat Jul 16 18:38:16 2022, MaxMem=  1342177280 cpu:               1.4 elap:               0.0
 (Enter /home/mkliu/g16/l202.exe)
 Stoichiometry    C66Cl5(2)
 Framework group  C1[X(C66Cl5)]
 Deg. of freedom   207
 Full point group                 C1      NOp   1
 Largest Abelian subgroup         C1      NOp   1
 Largest concise Abelian subgroup C1      NOp   1
                         Standard orientation:                         
 ---------------------------------------------------------------------
 Center     Atomic      Atomic             Coordinates (Angstroms)
 Number     Number       Type             X           Y           Z
 ---------------------------------------------------------------------
      1          6           0        3.377452    1.491992   -0.525791
      2          6           0        3.679282    0.369778    0.503486
      3          6           0        3.656035   -1.017153   -0.239126
      4          6           0        2.871360    0.728988   -1.691443
      5          6           0        2.991618   -0.631269   -1.516057
      6          6           0        1.736238    1.292162   -2.269055
      7          6           0        2.182033    2.356421   -0.272834
      8          6           0        1.311700    2.372831   -1.411162
[...]
     9 C(13)  Bbb     0.0512     6.872     2.452     2.292 -0.5914  0.6653 -0.4556
              Bcc     0.0699     9.381     3.347     3.129 -0.5733  0.0504  0.8178
 
              Baa    -0.0185    -2.488    -0.888    -0.830  0.6607  0.1843  0.7277
    10 C(13)  Bbb     0.0055     0.741     0.264     0.247  0.7504 -0.1870 -0.6340
              Bcc     0.0130     1.747     0.624     0.583  0.0192  0.9649 -0.2618
 
              Baa    -0.0425    -5.708    -2.037    -1.904 -0.6168  0.7534  0.2281
    11 C(13)  Bbb    -0.0391    -5.250    -1.873    -1.751 -0.4548 -0.5776  0.6779
              Bcc     0.0817    10.958     3.910     3.655  0.6424  0.3144  0.6989
 
              Baa    -0.0013    -0.177    -0.063    -0.059  0.6004  0.1781  0.7796
    12 C(13)  Bbb    -0.0003    -0.038    -0.014    -0.013  0.7804  0.0826 -0.6198
              Bcc     0.0016     0.215     0.077     0.072 -0.1748  0.9805 -0.0894
 
              Baa    -0.0117    -1.572    -0.561    -0.524  0.7278 -0.1033 -0.6780
    13 C(13)  Bbb    -0.0099    -1.333    -0.476    -0.445  0.3713  0.8905  0.2629
              Bcc     0.0216     2.905     1.037     0.969  0.5766 -0.4430  0.6865
 
              Baa    -0.0112    -1.503    -0.536    -0.501 -0.4737  0.8677 -0.1508
    14 C(13)  Bbb     0.0050     0.677     0.242     0.226 -0.5489 -0.1570  0.8210
              Bcc     0.0062     0.826     0.295     0.275  0.6887  0.4717  0.5506
 
              Baa    -0.0348    -4.664    -1.664    -1.556 -0.5972  0.4255  0.6800
    15 C(13)  Bbb     0.0169     2.266     0.809     0.756 -0.2438  0.7113 -0.6592
              Bcc     0.0179     2.398     0.856     0.800  0.7642  0.5594  0.3210
 
              Baa    -0.0033    -0.440    -0.157    -0.147 -0.1666 -0.3623  0.9171
    16 C(13)  Bbb    -0.0015    -0.205    -0.073    -0.069  0.8035  0.4892  0.3392
              Bcc     0.0048     0.646     0.230     0.215 -0.5715  0.7934  0.2097
 
              Baa    -0.0272    -3.653    -1.303    -1.218 -0.2389 -0.2728  0.9319
    17 C(13)  Bbb     0.0125     1.678     0.599     0.560  0.8917 -0.4415  0.0993
              Bcc     0.0147     1.975     0.705     0.659  0.3843  0.8548  0.3488
 
              Baa    -0.0127    -1.709    -0.610    -0.570  0.7991 -0.4093  0.4402
    18 C(13)  Bbb    -0.0096    -1.283    -0.458    -0.428  0.4042  0.9080  0.1105
              Bcc     0.0223     2.993     1.068     0.998 -0.4450  0.0897  0.8911
 
              Baa    -0.0262    -3.517    -1.255    -1.173  0.9155 -0.3941 -0.0814
    19 C(13)  Bbb    -0.0251    -3.372    -1.203    -1.125  0.3945  0.8394  0.3739
              Bcc     0.0513     6.889     2.458     2.298 -0.0790 -0.3744  0.9239
 
              Baa    -0.1166   -15.640    -5.581    -5.217  0.9277 -0.2591 -0.2688
    20 C(13)  Bbb    -0.1112   -14.921    -5.324    -4.977  0.3612  0.4411  0.8216
              Bcc     0.2277    30.561    10.905    10.194  0.0943  0.8593 -0.5028
 
              Baa    -0.0468    -6.283    -2.242    -2.096  0.0067 -0.6587  0.7523
    21 C(13)  Bbb     0.0195     2.621     0.935     0.874  0.6590 -0.5630 -0.4988
              Bcc     0.0273     3.662     1.307     1.221  0.7521  0.4991  0.4303
 
              Baa    -0.1275   -17.111    -6.106    -5.708  0.8857 -0.3994  0.2368
    22 C(13)  Bbb    -0.1200   -16.107    -5.747    -5.373 -0.2944 -0.0888  0.9515
              Bcc     0.2475    33.218    11.853    11.080  0.3590  0.9125  0.1962
 
              Baa    -0.0080    -1.072    -0.383    -0.358  0.5567  0.8078 -0.1935
    23 C(13)  Bbb     0.0023     0.311     0.111     0.104  0.2080  0.0900  0.9740
              Bcc     0.0057     0.761     0.272     0.254  0.8043 -0.5825 -0.1179
 
              Baa    -0.0484    -6.494    -2.317    -2.166  0.1041  0.7663  0.6339
    24 C(13)  Bbb     0.0153     2.052     0.732     0.685  0.8657 -0.3837  0.3216
              Bcc     0.0331     4.441     1.585     1.481 -0.4897 -0.5153  0.7033
 
              Baa    -0.0483    -6.477    -2.311    -2.160  0.4713  0.2816  0.8358
    25 C(13)  Bbb     0.0236     3.161     1.128     1.054 -0.1274  0.9594 -0.2515
              Bcc     0.0247     3.316     1.183     1.106  0.8728 -0.0121 -0.4880
 
              Baa    -0.0664    -8.914    -3.181    -2.973 -0.6806  0.6937 -0.2357
    26 C(13)  Bbb    -0.0625    -8.393    -2.995    -2.800  0.7048  0.5321 -0.4691
              Bcc     0.1290    17.307     6.176     5.773  0.2000  0.4854  0.8511
 
              Baa    -0.0143    -1.917    -0.684    -0.639  0.5365 -0.3941  0.7462
    27 C(13)  Bbb     0.0066     0.879     0.314     0.293 -0.4954  0.5688  0.6566
              Bcc     0.0077     1.038     0.370     0.346  0.6832  0.7219 -0.1099
 
              Baa    -0.0053    -0.712    -0.254    -0.237 -0.2500  0.8525  0.4590
    28 C(13)  Bbb    -0.0047    -0.625    -0.223    -0.208  0.8547  0.4171 -0.3091
              Bcc     0.0100     1.337     0.477     0.446  0.4549 -0.3150  0.8329
 
              Baa    -0.0026    -0.345    -0.123    -0.115 -0.4287  0.7372 -0.5223
    29 C(13)  Bbb     0.0009     0.120     0.043     0.040  0.7210 -0.0692 -0.6895
              Bcc     0.0017     0.225     0.080     0.075  0.5445  0.6721  0.5018
 
              Baa    -0.0029    -0.395    -0.141    -0.132 -0.4745  0.4447  0.7597
    30 C(13)  Bbb    -0.0025    -0.331    -0.118    -0.110  0.8439  0.4752  0.2489
              Bcc     0.0054     0.725     0.259     0.242 -0.2503  0.7592 -0.6008
 
              Baa    -0.0011    -0.154    -0.055    -0.051 -0.6251  0.6599 -0.4170
    31 C(13)  Bbb     0.0002     0.020     0.007     0.007 -0.5400  0.0201  0.8414
              Bcc     0.0010     0.133     0.048     0.044  0.5636  0.7511  0.3438
 
              Baa    -0.0013    -0.176    -0.063    -0.059  0.7693 -0.4588  0.4446
    32 C(13)  Bbb    -0.0011    -0.152    -0.054    -0.051  0.6331  0.4540 -0.6270
              Bcc     0.0024     0.329     0.117     0.110  0.0858  0.7638  0.6397
 
              Baa    -0.0123    -1.655    -0.591    -0.552 -0.2577  0.3462  0.9021
    33 C(13)  Bbb     0.0055     0.738     0.263     0.246 -0.6196  0.6571 -0.4292
              Bcc     0.0068     0.918     0.327     0.306  0.7414  0.6696 -0.0451
 
              Baa    -0.0022    -0.301    -0.107    -0.100 -0.1260  0.9352  0.3309
    34 C(13)  Bbb     0.0010     0.129     0.046     0.043  0.2761 -0.2873  0.9172
              Bcc     0.0013     0.172     0.061     0.057  0.9528  0.2069 -0.2221
 
              Baa    -0.0398    -5.335    -1.904    -1.780  0.0741 -0.2321  0.9699
    35 C(13)  Bbb     0.0187     2.504     0.893     0.835  0.7081 -0.6726 -0.2150
              Bcc     0.0211     2.832     1.010     0.944  0.7023  0.7027  0.1145
 
              Baa    -0.0068    -0.908    -0.324    -0.303 -0.5972  0.7878 -0.1509
    36 C(13)  Bbb    -0.0055    -0.739    -0.264    -0.246  0.7993  0.5686 -0.1945
              Bcc     0.0123     1.647     0.588     0.549  0.0674  0.2368  0.9692
 
              Baa    -0.0285    -3.831    -1.367    -1.278  0.7719 -0.4466 -0.4524
    37 C(13)  Bbb    -0.0257    -3.446    -1.230    -1.149  0.4603  0.8835 -0.0868
              Bcc     0.0542     7.277     2.597     2.427  0.4384 -0.1413  0.8876
 
              Baa    -0.0543    -7.280    -2.598    -2.428  0.6835 -0.3971 -0.6125
    38 C(13)  Bbb    -0.0506    -6.790    -2.423    -2.265  0.7000  0.5946  0.3957
              Bcc     0.1049    14.071     5.021     4.693 -0.2071  0.6992 -0.6843
 
              Baa    -0.0275    -3.686    -1.315    -1.229  0.5232 -0.4597  0.7176
    39 C(13)  Bbb     0.0109     1.468     0.524     0.490  0.7065 -0.2369 -0.6669
              Bcc     0.0165     2.218     0.791     0.740  0.4766  0.8559  0.2008
 
              Baa    -0.0138    -1.853    -0.661    -0.618  0.0274  0.0516  0.9983
    40 C(13)  Bbb    -0.0078    -1.040    -0.371    -0.347  0.9964  0.0792 -0.0314
              Bcc     0.0216     2.893     1.032     0.965 -0.0806  0.9955 -0.0492
 
              Baa    -0.0197    -2.641    -0.942    -0.881  0.6762 -0.1283  0.7255
    41 C(13)  Bbb    -0.0163    -2.191    -0.782    -0.731  0.6992  0.4220 -0.5770
              Bcc     0.0360     4.831     1.724     1.612 -0.2321  0.8975  0.3751
 
              Baa    -0.0133    -1.779    -0.635    -0.593 -0.2848  0.8935 -0.3471
    42 C(13)  Bbb     0.0056     0.754     0.269     0.251  0.9055  0.1320 -0.4033
              Bcc     0.0076     1.025     0.366     0.342  0.3146  0.4291  0.8467
 
              Baa    -0.0167    -2.235    -0.798    -0.746 -0.4338  0.7474  0.5033
    43 C(13)  Bbb     0.0068     0.915     0.327     0.305  0.7760  0.0260  0.6302
              Bcc     0.0098     1.320     0.471     0.440  0.4579  0.6639 -0.5912
 
              Baa    -0.0260    -3.485    -1.243    -1.162 -0.1341  0.3452  0.9289
    44 C(13)  Bbb     0.0103     1.386     0.495     0.462 -0.3794  0.8481 -0.3700
              Bcc     0.0156     2.099     0.749     0.700  0.9155  0.4020 -0.0172
 
              Baa    -0.0040    -0.537    -0.192    -0.179 -0.5444  0.8212  0.1708
    45 C(13)  Bbb    -0.0029    -0.390    -0.139    -0.130  0.8376  0.5213  0.1635
              Bcc     0.0069     0.927     0.331     0.309 -0.0453 -0.2321  0.9716
 
              Baa    -0.0381    -5.112    -1.824    -1.705  0.6698 -0.4610  0.5822
    46 C(13)  Bbb    -0.0355    -4.762    -1.699    -1.588  0.5821  0.8127 -0.0261
              Bcc     0.0736     9.873     3.523     3.293 -0.4611  0.3563  0.8127
 
              Baa    -0.0058    -0.775    -0.277    -0.259  0.1078 -0.6989  0.7071
    47 C(13)  Bbb     0.0027     0.358     0.128     0.120  0.0039  0.7115  0.7027
              Bcc     0.0031     0.417     0.149     0.139  0.9942  0.0730 -0.0794
 
              Baa    -0.0051    -0.691    -0.246    -0.230 -0.3405 -0.2272  0.9124
    48 C(13)  Bbb     0.0019     0.251     0.090     0.084  0.1278  0.9502  0.2843
              Bcc     0.0033     0.440     0.157     0.147  0.9315 -0.2134  0.2945
 
              Baa    -0.0054    -0.723    -0.258    -0.241  0.1891  0.9646 -0.1838
    49 C(13)  Bbb     0.0025     0.339     0.121     0.113 -0.6680  0.2636  0.6959
              Bcc     0.0029     0.383     0.137     0.128  0.7197 -0.0088  0.6942
 
              Baa    -0.0017    -0.235    -0.084    -0.078 -0.3656  0.4907  0.7909
    50 C(13)  Bbb    -0.0017    -0.227    -0.081    -0.076  0.8828 -0.0864  0.4617
              Bcc     0.0034     0.462     0.165     0.154  0.2949  0.8670 -0.4016
 
              Baa    -0.0021    -0.276    -0.099    -0.092  0.4145  0.6750  0.6104
    51 C(13)  Bbb     0.0009     0.117     0.042     0.039  0.7499 -0.6333  0.1911
              Bcc     0.0012     0.159     0.057     0.053 -0.5156 -0.3785  0.7687
 
              Baa    -0.0017    -0.235    -0.084    -0.078  0.7257 -0.6864  0.0475
    52 C(13)  Bbb    -0.0009    -0.122    -0.044    -0.041 -0.5348 -0.5192  0.6667
              Bcc     0.0027     0.357     0.127     0.119  0.4329  0.5092  0.7438
 
              Baa    -0.0169    -2.272    -0.811    -0.758  0.6715  0.1448  0.7267
    53 C(13)  Bbb     0.0074     0.991     0.354     0.331 -0.5495  0.7552  0.3573
              Bcc     0.0095     1.281     0.457     0.427  0.4971  0.6393 -0.5867
 
              Baa    -0.0050    -0.670    -0.239    -0.223  0.6388 -0.4051  0.6541
    54 C(13)  Bbb    -0.0048    -0.643    -0.229    -0.214 -0.6373  0.1977  0.7448
              Bcc     0.0098     1.312     0.468     0.438  0.4310  0.8927  0.1319
 
              Baa    -0.0187    -2.505    -0.894    -0.836 -0.5431  0.4925  0.6801
    55 C(13)  Bbb    -0.0175    -2.348    -0.838    -0.783 -0.0260  0.7996 -0.5999
              Bcc     0.0362     4.854     1.732     1.619  0.8393  0.3435  0.4214
 
              Baa    -0.0040    -0.537    -0.192    -0.179  0.8396  0.5393  0.0655
    56 C(13)  Bbb     0.0018     0.237     0.085     0.079 -0.5171  0.7564  0.4007
              Bcc     0.0022     0.300     0.107     0.100  0.1665 -0.3703  0.9139
 
              Baa    -0.0090    -1.206    -0.430    -0.402 -0.3862  0.0686  0.9199
    57 C(13)  Bbb    -0.0083    -1.119    -0.399    -0.373  0.2706  0.9618  0.0419
              Bcc     0.0173     2.324     0.829     0.775  0.8818 -0.2651  0.3900
 
              Baa    -0.0034    -0.457    -0.163    -0.152 -0.5352  0.6918 -0.4848
    58 C(13)  Bbb     0.0012     0.168     0.060     0.056  0.3478  0.7035  0.6198
              Bcc     0.0022     0.289     0.103     0.096  0.7698  0.1631 -0.6171
 
              Baa    -0.0025    -0.331    -0.118    -0.111  0.1773  0.3908  0.9032
    59 C(13)  Bbb    -0.0015    -0.200    -0.071    -0.067  0.3111  0.8485 -0.4282
              Bcc     0.0040     0.531     0.190     0.177  0.9337 -0.3569 -0.0289
 
              Baa    -0.0114    -1.528    -0.545    -0.510  0.9388  0.0147  0.3440
    60 C(13)  Bbb     0.0051     0.679     0.242     0.227 -0.3317 -0.2296  0.9150
              Bcc     0.0063     0.849     0.303     0.283 -0.0925  0.9732  0.2106
 
              Baa    -0.0134    -1.803    -0.643    -0.602 -0.5957  0.0919  0.7980
    61 C(13)  Bbb     0.0050     0.671     0.240     0.224  0.7113 -0.4012  0.5772
              Bcc     0.0084     1.132     0.404     0.378  0.3731  0.9114  0.1736
 
              Baa    -0.0182    -2.442    -0.871    -0.815  0.7225 -0.6629  0.1960
    62 C(13)  Bbb    -0.0168    -2.257    -0.805    -0.753  0.4527  0.6680  0.5907
              Bcc     0.0350     4.699     1.677     1.568 -0.5225 -0.3380  0.7827
 
              Baa    -0.0082    -1.103    -0.394    -0.368  0.6465  0.5363 -0.5426
    63 C(13)  Bbb     0.0031     0.423     0.151     0.141 -0.6246  0.7805  0.0273
              Bcc     0.0051     0.681     0.243     0.227  0.4382  0.3213  0.8395
 
              Baa    -0.0135    -1.807    -0.645    -0.603 -0.5492  0.7712 -0.3220
    64 C(13)  Bbb    -0.0126    -1.697    -0.606    -0.566  0.0306  0.4036  0.9144
              Bcc     0.0261     3.504     1.250     1.169  0.8351  0.4924 -0.2452
 
              Baa    -0.0021    -0.278    -0.099    -0.093 -0.5211  0.7877 -0.3286
    65 C(13)  Bbb    -0.0008    -0.107    -0.038    -0.036  0.2976  0.5286  0.7950
              Bcc     0.0029     0.385     0.137     0.128  0.7999  0.3164 -0.5099
 
              Baa    -0.0041    -0.548    -0.195    -0.183  0.9693  0.1763 -0.1715
    66 C(13)  Bbb     0.0014     0.192     0.068     0.064  0.1732  0.0056  0.9849
              Bcc     0.0027     0.356     0.127     0.119 -0.1746  0.9843  0.0251
 
              Baa    -0.1776    -9.295    -3.317    -3.100  0.0312  0.9925  0.1185
    67 Cl(35) Bbb    -0.1495    -7.826    -2.792    -2.610  0.2432 -0.1226  0.9622
              Bcc     0.3271    17.121     6.109     5.711  0.9695 -0.0012 -0.2451
 
              Baa    -0.0163    -0.854    -0.305    -0.285  0.9341  0.3283 -0.1401
    68 Cl(35) Bbb     0.0017     0.090     0.032     0.030 -0.2441  0.8739  0.4203
              Bcc     0.0146     0.765     0.273     0.255  0.2604 -0.3585  0.8965
 
              Baa    -0.0062    -0.324    -0.115    -0.108 -0.4021 -0.0757  0.9125
    69 Cl(35) Bbb    -0.0044    -0.232    -0.083    -0.077  0.3989  0.8826  0.2490
              Bcc     0.0106     0.555     0.198     0.185  0.8242 -0.4641  0.3247
 
              Baa    -0.0123    -0.642    -0.229    -0.214  0.5568  0.3017  0.7740
    70 Cl(35) Bbb    -0.0065    -0.342    -0.122    -0.114  0.6859  0.3585 -0.6332
              Bcc     0.0188     0.984     0.351     0.328 -0.4685  0.8834 -0.0073
 
              Baa    -0.2463   -12.889    -4.599    -4.299  0.9487 -0.1582 -0.2736
    71 Cl(35) Bbb    -0.2315   -12.117    -4.324    -4.042  0.2939  0.1234  0.9478
              Bcc     0.4778    25.007     8.923     8.341  0.1162  0.9797 -0.1635
 

 ---------------------------------------------------------------------------------

 No NMR shielding tensors so no spin-rotation constants.
 Leave Link  601 at Sat Jul 16 20:51:40 2022, MaxMem=  1342177280 cpu:              98.9 elap:               2.3
 (Enter /home/mkliu/g16/l9999.exe)
 1\1\GINC-NODE01\FOpt\UB3LYP\6-311G(d,p)\C66Cl5(2)\MKLIU\16-Jul-2022\0\
 \#P opt b3lyp/6-311G(d, p) empiricaldispersion=GD3\\force\\0,2\C,-1.32
 6951668,1.8730292877,-3.9148717137\C,0.2113758666,2.2315131083,-3.9903
 405198\C,0.9863738278,0.887896624,-4.395123882\C,-1.3130050817,0.38077
 43693,-3.9245367809\C,-0.0640941393,-0.1530751945,-4.1480556334\C,-2.1
 946541541,-0.1693192894,-2.982771388\C,-2.0171237913,2.1296378517,-2.5
 869212291\C,-2.6888222754,0.9171165243,-2.1599724993\C,-1.4719584553,2
 .9576071135,-1.565177555\C,0.7244182552,2.5044488416,-2.6168235245\C,-
 0.0260542814,3.1862395463,-1.6062360659\C,2.1912881283,0.749969737,-3.
 3288634171\C,1.8574277968,1.7973622118,-2.3147971212\C,2.3187333622,-0
 .5936697366,-2.5953732167\C,0.2175553068,-1.3897485286,-3.6107154601\C
 ,1.5112045824,-1.6606862381,-2.9665973237\C,-1.9633706051,-1.449423062
 8,-2.4365538385\C,-0.779122691,-2.1125941582,-2.8966332083\C,-2.476094
 6303,-1.7425800526,-1.1056030572\C,-3.1103077154,0.6895498131,-0.86332
 34727\C,-3.0805909695,-0.6555829098,-0.3184117505\C,-2.0908132705,2.91
 94322099,-0.3132867018\C,-3.1975167815,1.9195805052,0.0231902768\C,-1.
 3961809562,3.2636095425,0.8757314848\C,0.6581450537,3.4234469952,-0.41
 46432668\C,-0.0333017359,3.5696452372,0.8401142457\C,2.4441101439,1.81
 84009944,-1.0176033825\C,1.9291189555,2.7870781018,-0.1401913749\C,2.9
 558415361,-0.6204905428,-1.284821121\C,3.0943864317,0.6241749614,-0.50
 24147134\C,2.9303209673,-1.8363389845,-0.5582886526\C,1.3118623584,-2.
 784457936,-2.1011487542\C,-0.1105626251,-3.0682852173,-2.0562838084\C,
 2.0673210149,-2.9218104669,-0.9546351133\C,-1.9245989503,-2.8498230497
 ,-0.4189555663\C,-0.6957703194,-3.4856771606,-0.8848350265\C,-1.914311
 1526,-2.9186244124,1.0065377664\C,-3.1456741977,-0.8073357921,1.086386
 5962\C,-2.5270554183,-1.910907644,1.7466323157\C,-2.9261063527,1.62550
 15881,1.4793504947\C,-1.9350872351,2.5195430746,1.9962880139\C,-3.0191
 128106,0.3543735978,1.9801123099\C,-1.1072965231,2.1392936385,3.054391
 3184\C,0.8309697628,3.1172184103,1.9012158173\C,2.055332179,2.64653392
 01,1.2814823097\C,0.312957836,2.4420910844,3.0026863903\C,3.2674866446
 ,0.5455678828,0.8936382629\C,2.7253561978,1.5503013538,1.7895389836\C,
 3.021389352,-1.8789276676,0.8855675421\C,3.2091938219,-0.7160056351,1.
 5994876863\C,1.4902622052,-3.5134766464,0.2360491104\C,0.1216496816,-3
 .7965749269,0.269320094\C,-0.649522208,-3.4822816215,1.4487548739\C,2.
 1185843621,-2.9026853152,1.3829975445\C,-0.025887165,-2.97226063,2.583
 9739562\C,1.3924768529,-2.6735140787,2.5494909497\C,-1.9169426073,-1.4
 459659774,2.9815928216\C,-2.2171998474,-0.0400290735,3.1165400663\C,-1
 .26333002,0.8335490265,3.6428337288\C,-0.6791235904,-1.9441005222,3.37
 46638782\C,1.0308048252,1.3172178421,3.5636697229\C,2.2312644148,0.894
 309881,2.9852838666\C,2.5270143657,-0.5120484421,2.8653987334\C,1.6115
 204005,-1.4614907457,3.3181372547\C,0.0546680777,0.3293172174,3.987427
 2989\C,0.3394207323,-1.0281827123,3.8598393452\Cl,-2.3424599498,2.5488
 413333,-5.2782646869\Cl,0.6092124863,3.671237835,-5.0043246871\Cl,1.49
 10224013,0.7864208102,-6.120192684\Cl,3.8393859364,1.1235631489,-4.062
 4395849\Cl,-4.8975169671,2.6984168778,-0.1668495147\\Version=ES64L-G16
 RevA.03\State=2-A\HF=-4816.5262567\S2=0.791968\S2-1=0.\S2A=0.751478\RM
 SD=9.311e-09\RMSF=4.459e-05\Dipole=0.3458069,-1.0197857,1.4711325\Quad
 rupole=-4.0239511,6.2880883,-2.2641373,3.706533,3.4325834,4.6460326\PG
 =C01 [X(C66Cl5)]\\@


 ERWIN WITH HIS PSI CAN DO
 CALCULATIONS QUITE A FEW.
 BUT ONE THING HAS NOT BEEN SEEN
 JUST WHAT DOES PSI REALLY MEAN.
 -- WALTER HUCKEL, TRANS. BY FELIX BLOCH
 Job cpu time:       4 days 10 hours 28 minutes 25.9 seconds.
 Elapsed time:       0 days  2 hours 13 minutes 17.7 seconds.
 File lengths (MBytes):  RWF=   1887 Int=      0 D2E=      0 Chk=    170 Scr=      1
 Normal termination of Gaussian 16 at Sat Jul 16 20:51:41 2022.
