 Entering Gaussian System, Link 0=g16
 Input=elkioyieymi9s_addon_5.gjf
 Output=elkioyieymi9s_addon_5.log
 Initial command:
 /home/mkliu/g16/l1.exe "/data/scratch/Gau-150536.inp" -scrdir="/data/scratch/"
 Entering Link 1 = /home/mkliu/g16/l1.exe PID=    150537.
  
 Copyright (c) 1988,1990,1992,1993,1995,1998,2003,2009,2016,
            Gaussian, Inc.  All Rights Reserved.
  
 This is part of the Gaussian(R) 16 program.  It is based on
 the Gaussian(R) 09 system (copyright 2009, Gaussian, Inc.),
 the Gaussian(R) 03 system (copyright 2003, Gaussian, Inc.),
 the Gaussian(R) 98 system (copyright 1998, Gaussian, Inc.),
 the Gaussian(R) 94 system (copyright 1995, Gaussian, Inc.),
 the Gaussian 92(TM) system (copyright 1992, Gaussian, Inc.),
 the Gaussian 90(TM) system (copyright 1990, Gaussian, Inc.),
 the Gaussian 88(TM) system (copyright 1988, Gaussian, Inc.),
 the Gaussian 86(TM) system (copyright 1986, Carnegie Mellon
 University), and the Gaussian 82(TM) system (copyright 1983,
 Carnegie Mellon University). Gaussian is a federally registered
 trademark of Gaussian, Inc.
  
 This software contains proprietary and confidential information,
 including trade secrets, belonging to Gaussian, Inc.
  
 This software is provided under written license and may be
 used, copied, transmitted, or stored only in accord with that
 written license.
  
 The following legend is applicable only to US Government
 contracts under FAR:
  
                    RESTRICTED RIGHTS LEGEND
  
 Use, reproduction and disclosure by the US Government is
 subject to restrictions as set forth in subparagraphs (a)
 and (c) of the Commercial Computer Software - Restricted
 Rights clause in FAR 52.227-19.
  
 Gaussian, Inc.
 340 Quinnipiac St., Bldg. 40, Wallingford CT 06492
  
  
 ---------------------------------------------------------------
 Warning -- This program may not be used in any manner that
 competes with the business of Gaussian, Inc. or will provide
 assistance to any competitor of Gaussian, Inc.  The licensee
 of this program is prohibited from giving any competitor of
 Gaussian, Inc. access to this program.  By using this program,
 the user acknowledges that Gaussian, Inc. is engaged in the
 business of creating and licensing software in the field of
 computational chemistry and represents and warrants to the
 licensee that it is not a competitor of Gaussian, Inc. and that
 it will not use this program in any manner prohibited above.
 ---------------------------------------------------------------
  

 Cite this work as:
 Gaussian 16, Revision A.03,
 M. J. Frisch, G. W. Trucks, H. B. Schlegel, G. E. Scuseria, 
 M. A. Robb, J. R. Cheeseman, G. Scalmani, V. Barone, 
 G. A. Petersson, H. Nakatsuji, X. Li, M. Caricato, A. V. Marenich, 
 J. Bloino, B. G. Janesko, R. Gomperts, B. Mennucci, H. P. Hratchian, 
 J. V. Ortiz, A. F. Izmaylov, J. L. Sonnenberg, D. Williams-Young, 
 F. Ding, F. Lipparini, F. Egidi, J. Goings, B. Peng, A. Petrone, 
 T. Henderson, D. Ranasinghe, V. G. Zakrzewski, J. Gao, N. Rega, 
 G. Zheng, W. Liang, M. Hada, M. Ehara, K. Toyota, R. Fukuda, 
 J. Hasegawa, M. Ishida, T. Nakajima, Y. Honda, O. Kitao, H. Nakai, 
 T. Vreven, K. Throssell, J. A. Montgomery, Jr., J. E. Peralta, 
 F. Ogliaro, M. J. Bearpark, J. J. Heyd, E. N. Brothers, K. N. Kudin, 
 V. N. Staroverov, T. A. Keith, R. Kobayashi, J. Normand, 
 K. Raghavachari, A. P. Rendell, J. C. Burant, S. S. Iyengar, 
 J. Tomasi, M. Cossi, J. M. Millam, M. Klene, C. Adamo, R. Cammi, 
 J. W. Ochterski, R. L. Martin, K. Morokuma, O. Farkas, 
 J. B. Foresman, and D. J. Fox, Gaussian, Inc., Wallingford CT, 2016.
 
 ******************************************
 Gaussian 16:  ES64L-G16RevA.03 25-Dec-2016
                14-Jul-2022 
 ******************************************
 %mem=10GB
 %chk=elkioyieymi9s_addon_5.chk
 %nprocshared=48
 Will use up to   48 processors via shared memory.
 -------------------------------------------------
 #P opt b3lyp/6-311G(d, p) empiricaldispersion=GD3
 -------------------------------------------------
 1/18=20,19=15,26=3,38=1/1,3;
 2/9=110,12=2,17=6,18=5,40=1/2;
 3/5=4,6=6,7=101,11=2,25=1,30=1,71=1,74=-5,124=31/1,2,3;
 4//1;
 5/5=2,38=5/2;
 6/7=2,8=2,9=2,10=2,28=1/1;
 7//1,2,3,16;
 1/18=20,19=15,26=3/3(2);
 2/9=110/2;
 99//99;
 2/9=110/2;
 3/5=4,6=6,7=101,11=2,25=1,30=1,71=1,74=-5,124=31/1,2,3;
 4/5=5,16=3,69=1/1;
 5/5=2,38=5/2;
 7//1,2,3,16;
 1/18=20,19=15,26=3/3(-5);
 2/9=110/2;
 6/7=2,8=2,9=2,10=2,19=2,28=1/1;
 99/9=1/99;
 Leave Link    1 at Thu Jul 14 15:23:53 2022, MaxMem=  1342177280 cpu:               2.1 elap:               0.1
 (Enter /home/mkliu/g16/l101.exe)
 -----
 force
 -----
 Symbolic Z-matrix:
 Charge =  0 Multiplicity = 2
 C                    -1.33625   1.88728  -3.92962 
 C                     0.19985   2.21369  -3.98183 
 C                     0.96111   0.8898   -4.264 
 C                    -1.46339   0.35731  -4.14146 
 C                    -0.07789  -0.14941  -4.10325 
 C                    -2.20674  -0.16789  -2.95337 
 C                    -1.92666   2.06877  -2.56864 
 C                    -2.60135   0.89244  -2.13954 
 C                    -1.43279   2.92211  -1.58872 
 C                     0.73574   2.60771  -2.64461 
 C                    -0.00829   3.21973  -1.63308 
 C                     1.90766   0.68544  -3.10014 
 C                     1.84237   1.83393  -2.27156 
 C                     2.25064  -0.52065  -2.5558 
 C                     0.21027  -1.34142  -3.57803 
 C                     1.60579  -1.76174  -3.15752 
 C                    -1.95692  -1.42139  -2.39066 
 C                    -0.78276  -2.08357  -2.84617 
 C                    -2.47696  -1.71848  -1.06328 
 C                    -3.06373   0.67271  -0.8191 
 C                    -3.0846   -0.66543  -0.28907 
 C                    -2.05183   2.83966  -0.32208 
 C                    -2.92251   1.77252   0.03297 
 C                    -1.38937   3.26192   0.87024 
 C                     0.65745   3.42335  -0.41134 
 C                    -0.04136   3.55364   0.83032 
 C                     2.42738   1.84149  -1.00108 
 C                     1.90611   2.80167  -0.12472 
 C                     2.89984  -0.58316  -1.25811 
 C                     3.03171   0.63327  -0.4944 
 C                     2.90153  -1.79976  -0.56838 
 C                     1.29318  -2.79413  -2.12316 
 C                    -0.12873  -3.03268  -2.04532 
 C                     2.01703  -2.8961   -0.98349 
 C                    -1.91699  -2.8183   -0.3972 
 C                    -0.71511  -3.4486   -0.85536 
 C                    -1.91842  -2.90372   1.03608 
 C                    -3.13386  -0.80162   1.11334 
 C                    -2.52676  -1.91541   1.77705 
 C                    -2.87512   1.60341   1.45466 
 C                    -1.92706   2.5318    1.99511 
 C                    -3.0063    0.33495   1.98319 
 C                    -1.10681   2.13611   3.03319 
 C                     0.81854   3.12121   1.90415 
 C                     2.02739   2.65004   1.29076 
 C                     0.30371   2.43785   2.98753 
 C                     3.22766   0.55416   0.8955 
 C                     2.69969   1.55361   1.78936 
 C                     2.99147  -1.85788   0.84815 
 C                     3.17692  -0.69639   1.58002 
 C                     1.45373  -3.47723   0.21412 
 C                     0.09849  -3.76905   0.27121 
 C                    -0.66302  -3.46694   1.45431 
 C                     2.09247  -2.87402   1.34263 
 C                    -0.0263   -2.94517   2.56665 
 C                     1.38197  -2.64128   2.51131 
 C                    -1.91553  -1.44694   2.99194 
 C                    -2.2132   -0.04817   3.11849 
 C                    -1.25927   0.82825   3.61219 
 C                    -0.66992  -1.93016   3.35408 
 C                     1.0177    1.31474   3.53415 
 C                     2.21402   0.89946   2.9709 
 C                     2.50996  -0.50063   2.83812 
 C                     1.59935  -1.44312   3.27687 
 C                     0.05052   0.33201   3.95073 
 C                     0.33816  -1.01642   3.82169 
 Cl                   -2.27408   2.84193  -5.10726 
 Cl                    0.57337   3.50375  -5.148 
 Cl                    1.76625   0.75299  -5.84726 
 Cl                    2.64305  -2.39866  -4.49212 
 Cl                   -2.23258  -0.13497  -5.69311 
 
 ITRead=  0  0  0  0  0  0  0  0  0  0  0  0  0  0  0  0  0  0  0  0
 ITRead=  0  0  0  0  0  0  0  0  0  0  0  0  0  0  0  0  0  0  0  0
 ITRead=  0  0  0  0  0  0  0  0  0  0  0  0  0  0  0  0  0  0  0  0
 ITRead=  0  0  0  0  0  0  0  0  0  0  0
 MicOpt= -1 -1 -1 -1 -1 -1 -1 -1 -1 -1 -1 -1 -1 -1 -1 -1 -1 -1 -1 -1
 MicOpt= -1 -1 -1 -1 -1 -1 -1 -1 -1 -1 -1 -1 -1 -1 -1 -1 -1 -1 -1 -1
 MicOpt= -1 -1 -1 -1 -1 -1 -1 -1 -1 -1 -1 -1 -1 -1 -1 -1 -1 -1 -1 -1
 MicOpt= -1 -1 -1 -1 -1 -1 -1 -1 -1 -1 -1
 NAtoms=     71 NQM=       71 NQMF=       0 NMMI=      0 NMMIF=      0
                NMic=       0 NMicF=      0.
                    Isotopes and Nuclear Properties:
 (Nuclear quadrupole moments (NQMom) in fm**2, nuclear magnetic moments (NMagM)
  in nuclear magnetons)

  Atom         1           2           3           4           5           6           7           8           9          10
 IAtWgt=          12          12          12          12          12          12          12          12          12          12
 AtmWgt=  12.0000000  12.0000000  12.0000000  12.0000000  12.0000000  12.0000000  12.0000000  12.0000000  12.0000000  12.0000000
 NucSpn=           0           0           0           0           0           0           0           0           0           0
 AtZEff=  -0.0000000  -0.0000000  -0.0000000  -0.0000000  -0.0000000  -0.0000000  -0.0000000  -0.0000000  -0.0000000  -0.0000000
 NQMom=    0.0000000   0.0000000   0.0000000   0.0000000   0.0000000   0.0000000   0.0000000   0.0000000   0.0000000   0.0000000
 NMagM=    0.0000000   0.0000000   0.0000000   0.0000000   0.0000000   0.0000000   0.0000000   0.0000000   0.0000000   0.0000000
 AtZNuc=   6.0000000   6.0000000   6.0000000   6.0000000   6.0000000   6.0000000   6.0000000   6.0000000   6.0000000   6.0000000

  Atom        11          12          13          14          15          16          17          18          19          20
 IAtWgt=          12          12          12          12          12          12          12          12          12          12
 AtmWgt=  12.0000000  12.0000000  12.0000000  12.0000000  12.0000000  12.0000000  12.0000000  12.0000000  12.0000000  12.0000000
 NucSpn=           0           0           0           0           0           0           0           0           0           0
 AtZEff=  -0.0000000  -0.0000000  -0.0000000  -0.0000000  -0.0000000  -0.0000000  -0.0000000  -0.0000000  -0.0000000  -0.0000000
 NQMom=    0.0000000   0.0000000   0.0000000   0.0000000   0.0000000   0.0000000   0.0000000   0.0000000   0.0000000   0.0000000
 NMagM=    0.0000000   0.0000000   0.0000000   0.0000000   0.0000000   0.0000000   0.0000000   0.0000000   0.0000000   0.0000000
 AtZNuc=   6.0000000   6.0000000   6.0000000   6.0000000   6.0000000   6.0000000   6.0000000   6.0000000   6.0000000   6.0000000

  Atom        21          22          23          24          25          26          27          28          29          30
 IAtWgt=          12          12          12          12          12          12          12          12          12          12
 AtmWgt=  12.0000000  12.0000000  12.0000000  12.0000000  12.0000000  12.0000000  12.0000000  12.0000000  12.0000000  12.0000000
 NucSpn=           0           0           0           0           0           0           0           0           0           0
 AtZEff=  -0.0000000  -0.0000000  -0.0000000  -0.0000000  -0.0000000  -0.0000000  -0.0000000  -0.0000000  -0.0000000  -0.0000000
 NQMom=    0.0000000   0.0000000   0.0000000   0.0000000   0.0000000   0.0000000   0.0000000   0.0000000   0.0000000   0.0000000
 NMagM=    0.0000000   0.0000000   0.0000000   0.0000000   0.0000000   0.0000000   0.0000000   0.0000000   0.0000000   0.0000000
 AtZNuc=   6.0000000   6.0000000   6.0000000   6.0000000   6.0000000   6.0000000   6.0000000   6.0000000   6.0000000   6.0000000

  Atom        31          32          33          34          35          36          37          38          39          40
 IAtWgt=          12          12          12          12          12          12          12          12          12          12
 AtmWgt=  12.0000000  12.0000000  12.0000000  12.0000000  12.0000000  12.0000000  12.0000000  12.0000000  12.0000000  12.0000000
 NucSpn=           0           0           0           0           0           0           0           0           0           0
 AtZEff=  -0.0000000  -0.0000000  -0.0000000  -0.0000000  -0.0000000  -0.0000000  -0.0000000  -0.0000000  -0.0000000  -0.0000000
 NQMom=    0.0000000   0.0000000   0.0000000   0.0000000   0.0000000   0.0000000   0.0000000   0.0000000   0.0000000   0.0000000
 NMagM=    0.0000000   0.0000000   0.0000000   0.0000000   0.0000000   0.0000000   0.0000000   0.0000000   0.0000000   0.0000000
 AtZNuc=   6.0000000   6.0000000   6.0000000   6.0000000   6.0000000   6.0000000   6.0000000   6.0000000   6.0000000   6.0000000

  Atom        41          42          43          44          45          46          47          48          49          50
 IAtWgt=          12          12          12          12          12          12          12          12          12          12
 AtmWgt=  12.0000000  12.0000000  12.0000000  12.0000000  12.0000000  12.0000000  12.0000000  12.0000000  12.0000000  12.0000000
 NucSpn=           0           0           0           0           0           0           0           0           0           0
 AtZEff=  -0.0000000  -0.0000000  -0.0000000  -0.0000000  -0.0000000  -0.0000000  -0.0000000  -0.0000000  -0.0000000  -0.0000000
 NQMom=    0.0000000   0.0000000   0.0000000   0.0000000   0.0000000   0.0000000   0.0000000   0.0000000   0.0000000   0.0000000
 NMagM=    0.0000000   0.0000000   0.0000000   0.0000000   0.0000000   0.0000000   0.0000000   0.0000000   0.0000000   0.0000000
 AtZNuc=   6.0000000   6.0000000   6.0000000   6.0000000   6.0000000   6.0000000   6.0000000   6.0000000   6.0000000   6.0000000

  Atom        51          52          53          54          55          56          57          58          59          60
 IAtWgt=          12          12          12          12          12          12          12          12          12          12
 AtmWgt=  12.0000000  12.0000000  12.0000000  12.0000000  12.0000000  12.0000000  12.0000000  12.0000000  12.0000000  12.0000000
 NucSpn=           0           0           0           0           0           0           0           0           0           0
 AtZEff=  -0.0000000  -0.0000000  -0.0000000  -0.0000000  -0.0000000  -0.0000000  -0.0000000  -0.0000000  -0.0000000  -0.0000000
 NQMom=    0.0000000   0.0000000   0.0000000   0.0000000   0.0000000   0.0000000   0.0000000   0.0000000   0.0000000   0.0000000
 NMagM=    0.0000000   0.0000000   0.0000000   0.0000000   0.0000000   0.0000000   0.0000000   0.0000000   0.0000000   0.0000000
 AtZNuc=   6.0000000   6.0000000   6.0000000   6.0000000   6.0000000   6.0000000   6.0000000   6.0000000   6.0000000   6.0000000

  Atom        61          62          63          64          65          66          67          68          69          70
 IAtWgt=          12          12          12          12          12          12          35          35          35          35
 AtmWgt=  12.0000000  12.0000000  12.0000000  12.0000000  12.0000000  12.0000000  34.9688527  34.9688527  34.9688527  34.9688527
 NucSpn=           0           0           0           0           0           0           3           3           3           3
 AtZEff=  -0.0000000  -0.0000000  -0.0000000  -0.0000000  -0.0000000  -0.0000000  -0.0000000  -0.0000000  -0.0000000  -0.0000000
 NQMom=    0.0000000   0.0000000   0.0000000   0.0000000   0.0000000   0.0000000  -8.1650000  -8.1650000  -8.1650000  -8.1650000
 NMagM=    0.0000000   0.0000000   0.0000000   0.0000000   0.0000000   0.0000000   0.8218740   0.8218740   0.8218740   0.8218740
 AtZNuc=   6.0000000   6.0000000   6.0000000   6.0000000   6.0000000   6.0000000  17.0000000  17.0000000  17.0000000  17.0000000

  Atom        71
 IAtWgt=          35
 AtmWgt=  34.9688527
 NucSpn=           3
 AtZEff=  -0.0000000
 NQMom=   -8.1650000
 NMagM=    0.8218740
 AtZNuc=  17.0000000
 Leave Link  101 at Thu Jul 14 15:23:53 2022, MaxMem=  1342177280 cpu:              12.9 elap:               0.3
 (Enter /home/mkliu/g16/l103.exe)

 GradGradGradGradGradGradGradGradGradGradGradGradGradGradGradGradGradGrad
 Berny optimization.
 Initialization pass.
                           ----------------------------
                           !    Initial Parameters    !
                           ! (Angstroms and Degrees)  !
 --------------------------                            --------------------------
 ! Name  Definition              Value          Derivative Info.                !
 --------------------------------------------------------------------------------
 ! R1    R(1,2)                  1.5713         estimate D2E/DX2                !
 ! R2    R(1,4)                  1.5498         estimate D2E/DX2                !
 ! R3    R(1,7)                  1.4946         estimate D2E/DX2                !
 ! R4    R(1,67)                 1.7826         estimate D2E/DX2                !
 ! R5    R(2,3)                  1.553          estimate D2E/DX2                !
 ! R6    R(2,10)                 1.4935         estimate D2E/DX2                !
 ! R7    R(2,68)                 1.7787         estimate D2E/DX2                !
 ! R8    R(3,5)                  1.4783         estimate D2E/DX2                !
 ! R9    R(3,12)                 1.514          estimate D2E/DX2                !
 ! R10   R(3,69)                 1.7815         estimate D2E/DX2                !
 ! R11   R(4,5)                  1.4757         estimate D2E/DX2                !
 ! R12   R(4,6)                  1.4967         estimate D2E/DX2                !
 ! R13   R(4,71)                 1.8005         estimate D2E/DX2                !
 ! R14   R(5,15)                 1.3341         estimate D2E/DX2                !
 ! R15   R(6,8)                  1.3937         estimate D2E/DX2                !
 ! R16   R(6,17)                 1.3965         estimate D2E/DX2                !
 ! R17   R(7,8)                  1.4224         estimate D2E/DX2                !
 ! R18   R(7,9)                  1.3901         estimate D2E/DX2                !
 ! R19   R(8,20)                 1.4162         estimate D2E/DX2                !
 ! R20   R(9,11)                 1.4559         estimate D2E/DX2                !
 ! R21   R(9,22)                 1.4122         estimate D2E/DX2                !
 ! R22   R(10,11)                1.3969         estimate D2E/DX2                !
 ! R23   R(10,13)                1.4009         estimate D2E/DX2                !
 ! R24   R(11,25)                1.4062         estimate D2E/DX2                !
 ! R25   R(12,13)                1.4177         estimate D2E/DX2                !
 ! R26   R(12,14)                1.367          estimate D2E/DX2                !
 ! R27   R(13,27)                1.3987         estimate D2E/DX2                !
 ! R28   R(14,16)                1.5226         estimate D2E/DX2                !
 ! R29   R(14,29)                1.4524         estimate D2E/DX2                !
 ! R30   R(15,16)                1.5169         estimate D2E/DX2                !
 ! R31   R(15,18)                1.4396         estimate D2E/DX2                !
 ! R32   R(16,32)                1.4945         estimate D2E/DX2                !
 ! R33   R(16,70)                1.8063         estimate D2E/DX2                !
 ! R34   R(17,18)                1.4229         estimate D2E/DX2                !
 ! R35   R(17,19)                1.4562         estimate D2E/DX2                !
 ! R36   R(18,33)                1.4035         estimate D2E/DX2                !
 ! R37   R(19,21)                1.4414         estimate D2E/DX2                !
 ! R38   R(19,35)                1.4024         estimate D2E/DX2                !
 ! R39   R(20,21)                1.4394         estimate D2E/DX2                !
 ! R40   R(20,23)                1.3984         estimate D2E/DX2                !
 ! R41   R(21,38)                1.4099         estimate D2E/DX2                !
 ! R42   R(22,23)                1.4223         estimate D2E/DX2                !
 ! R43   R(22,24)                1.4279         estimate D2E/DX2                !
 ! R44   R(23,40)                1.4325         estimate D2E/DX2                !
 ! R45   R(24,26)                1.3798         estimate D2E/DX2                !
 ! R46   R(24,41)                1.4448         estimate D2E/DX2                !
 ! R47   R(25,26)                1.4307         estimate D2E/DX2                !
 ! R48   R(25,28)                1.424          estimate D2E/DX2                !
 ! R49   R(26,44)                1.4421         estimate D2E/DX2                !
 ! R50   R(27,28)                1.4006         estimate D2E/DX2                !
 ! R51   R(27,30)                1.4428         estimate D2E/DX2                !
 ! R52   R(28,45)                1.4287         estimate D2E/DX2                !
 ! R53   R(29,30)                1.4423         estimate D2E/DX2                !
 ! R54   R(29,31)                1.3985         estimate D2E/DX2                !
 ! R55   R(30,47)                1.4059         estimate D2E/DX2                !
 ! R56   R(31,34)                1.4685         estimate D2E/DX2                !
 ! R57   R(31,49)                1.4206         estimate D2E/DX2                !
 ! R58   R(32,33)                1.4439         estimate D2E/DX2                !
 ! R59   R(32,34)                1.354          estimate D2E/DX2                !
 ! R60   R(33,36)                1.3903         estimate D2E/DX2                !
 ! R61   R(34,51)                1.4454         estimate D2E/DX2                !
 ! R62   R(35,36)                1.4324         estimate D2E/DX2                !
 ! R63   R(35,37)                1.4358         estimate D2E/DX2                !
 ! R64   R(36,52)                1.4261         estimate D2E/DX2                !
 ! R65   R(37,39)                1.3769         estimate D2E/DX2                !
 ! R66   R(37,53)                1.4381         estimate D2E/DX2                !
 ! R67   R(38,39)                1.4316         estimate D2E/DX2                !
 ! R68   R(38,42)                1.4369         estimate D2E/DX2                !
 ! R69   R(39,57)                1.4384         estimate D2E/DX2                !
 ! R70   R(40,41)                1.4328         estimate D2E/DX2                !
 ! R71   R(40,42)                1.3804         estimate D2E/DX2                !
 ! R72   R(41,43)                1.3809         estimate D2E/DX2                !
 ! R73   R(42,58)                1.4369         estimate D2E/DX2                !
 ! R74   R(43,46)                1.4431         estimate D2E/DX2                !
 ! R75   R(43,59)                1.4384         estimate D2E/DX2                !
 ! R76   R(44,45)                1.4351         estimate D2E/DX2                !
 ! R77   R(44,46)                1.3805         estimate D2E/DX2                !
 ! R78   R(45,48)                1.3794         estimate D2E/DX2                !
 ! R79   R(46,61)                1.4387         estimate D2E/DX2                !
 ! R80   R(47,48)                1.441          estimate D2E/DX2                !
 ! R81   R(47,50)                1.4265         estimate D2E/DX2                !
 ! R82   R(48,62)                1.4352         estimate D2E/DX2                !
 ! R83   R(49,50)                1.3853         estimate D2E/DX2                !
 ! R84   R(49,54)                1.444          estimate D2E/DX2                !
 ! R85   R(50,63)                1.4373         estimate D2E/DX2                !
 ! R86   R(51,52)                1.3875         estimate D2E/DX2                !
 ! R87   R(51,54)                1.4302         estimate D2E/DX2                !
 ! R88   R(52,53)                1.4391         estimate D2E/DX2                !
 ! R89   R(53,55)                1.3838         estimate D2E/DX2                !
 ! R90   R(54,56)                1.3874         estimate D2E/DX2                !
 ! R91   R(55,56)                1.4417         estimate D2E/DX2                !
 ! R92   R(55,60)                1.4369         estimate D2E/DX2                !
 ! R93   R(56,64)                1.4384         estimate D2E/DX2                !
 ! R94   R(57,58)                1.4357         estimate D2E/DX2                !
 ! R95   R(57,60)                1.3843         estimate D2E/DX2                !
 ! R96   R(58,59)                1.3863         estimate D2E/DX2                !
 ! R97   R(59,65)                1.441          estimate D2E/DX2                !
 ! R98   R(60,66)                1.4387         estimate D2E/DX2                !
 ! R99   R(61,62)                1.386          estimate D2E/DX2                !
 ! R100  R(61,65)                1.4404         estimate D2E/DX2                !
 ! R101  R(62,63)                1.4372         estimate D2E/DX2                !
 ! R102  R(63,64)                1.382          estimate D2E/DX2                !
 ! R103  R(64,66)                1.4386         estimate D2E/DX2                !
 ! R104  R(65,66)                1.3848         estimate D2E/DX2                !
 ! A1    A(2,1,4)              106.3043         estimate D2E/DX2                !
 ! A2    A(2,1,7)              113.0307         estimate D2E/DX2                !
 ! A3    A(2,1,67)             112.4035         estimate D2E/DX2                !
 ! A4    A(4,1,7)              102.2362         estimate D2E/DX2                !
 ! A5    A(4,1,67)             113.28           estimate D2E/DX2                !
 ! A6    A(7,1,67)             109.1904         estimate D2E/DX2                !
 ! A7    A(1,2,3)              107.9485         estimate D2E/DX2                !
 ! A8    A(1,2,10)             112.0761         estimate D2E/DX2                !
 ! A9    A(1,2,68)             112.1944         estimate D2E/DX2                !
 ! A10   A(3,2,10)             102.2216         estimate D2E/DX2                !
 ! A11   A(3,2,68)             113.3427         estimate D2E/DX2                !
 ! A12   A(10,2,68)            108.6826         estimate D2E/DX2                !
 ! A13   A(2,3,5)              103.5914         estimate D2E/DX2                !
 ! A14   A(2,3,12)             106.3707         estimate D2E/DX2                !
 ! A15   A(2,3,69)             116.6459         estimate D2E/DX2                !
 ! A16   A(5,3,12)             105.1254         estimate D2E/DX2                !
 ! A17   A(5,3,69)             111.1192         estimate D2E/DX2                !
 ! A18   A(12,3,69)            112.9707         estimate D2E/DX2                !
 ! A19   A(1,4,5)              104.9761         estimate D2E/DX2                !
 ! A20   A(1,4,6)              106.1808         estimate D2E/DX2                !
 ! A21   A(1,4,71)             115.0096         estimate D2E/DX2                !
 ! A22   A(5,4,6)              108.981          estimate D2E/DX2                !
 ! A23   A(5,4,71)             109.2401         estimate D2E/DX2                !
 ! A24   A(6,4,71)             112.0859         estimate D2E/DX2                !
 ! A25   A(3,5,4)              114.561          estimate D2E/DX2                !
 ! A26   A(3,5,15)             121.273          estimate D2E/DX2                !
 ! A27   A(4,5,15)             121.318          estimate D2E/DX2                !
 ! A28   A(4,6,8)              109.7065         estimate D2E/DX2                !
 ! A29   A(4,6,17)             123.0924         estimate D2E/DX2                !
 ! A30   A(8,6,17)             119.8838         estimate D2E/DX2                !
 ! A31   A(1,7,8)              111.2027         estimate D2E/DX2                !
 ! A32   A(1,7,9)              125.1777         estimate D2E/DX2                !
 ! A33   A(8,7,9)              117.6165         estimate D2E/DX2                !
 ! A34   A(6,8,7)              108.587          estimate D2E/DX2                !
 ! A35   A(6,8,20)             121.2558         estimate D2E/DX2                !
 ! A36   A(7,8,20)             124.3658         estimate D2E/DX2                !
 ! A37   A(7,9,11)             116.8478         estimate D2E/DX2                !
 ! A38   A(7,9,22)             116.1475         estimate D2E/DX2                !
 ! A39   A(11,9,22)            117.9137         estimate D2E/DX2                !
 ! A40   A(2,10,11)            124.947          estimate D2E/DX2                !
 ! A41   A(2,10,13)            112.0954         estimate D2E/DX2                !
 ! A42   A(11,10,13)           118.0281         estimate D2E/DX2                !
 ! A43   A(9,11,10)            116.9766         estimate D2E/DX2                !
 ! A44   A(9,11,25)            117.7976         estimate D2E/DX2                !
 ! A45   A(10,11,25)           116.131          estimate D2E/DX2                !
 ! A46   A(3,12,13)            108.1282         estimate D2E/DX2                !
 ! A47   A(3,12,14)            125.5959         estimate D2E/DX2                !
 ! A48   A(13,12,14)           119.5767         estimate D2E/DX2                !
 ! A49   A(10,13,12)           109.1595         estimate D2E/DX2                !
 ! A50   A(10,13,27)           124.7003         estimate D2E/DX2                !
 ! A51   A(12,13,27)           121.0641         estimate D2E/DX2                !
 ! A52   A(12,14,16)           117.101          estimate D2E/DX2                !
 ! A53   A(12,14,29)           120.3931         estimate D2E/DX2                !
 ! A54   A(16,14,29)           120.4871         estimate D2E/DX2                !
 ! A55   A(5,15,16)            123.741          estimate D2E/DX2                !
 ! A56   A(5,15,18)            120.7814         estimate D2E/DX2                !
 ! A57   A(16,15,18)           110.5372         estimate D2E/DX2                !
 ! A58   A(14,16,15)           105.8623         estimate D2E/DX2                !
 ! A59   A(14,16,32)           112.2198         estimate D2E/DX2                !
 ! A60   A(14,16,70)           109.6464         estimate D2E/DX2                !
 ! A61   A(15,16,32)           101.0019         estimate D2E/DX2                !
 ! A62   A(15,16,70)           114.9092         estimate D2E/DX2                !
 ! A63   A(32,16,70)           112.8248         estimate D2E/DX2                !
 ! A64   A(6,17,18)            115.8698         estimate D2E/DX2                !
 ! A65   A(6,17,19)            119.112          estimate D2E/DX2                !
 ! A66   A(18,17,19)           119.442          estimate D2E/DX2                !
 ! A67   A(15,18,17)           119.475          estimate D2E/DX2                !
 ! A68   A(15,18,33)           108.4968         estimate D2E/DX2                !
 ! A69   A(17,18,33)           121.1021         estimate D2E/DX2                !
 ! A70   A(17,19,21)           119.4131         estimate D2E/DX2                !
 ! A71   A(17,19,35)           116.7642         estimate D2E/DX2                !
 ! A72   A(21,19,35)           119.0887         estimate D2E/DX2                !
 ! A73   A(8,20,21)            119.491          estimate D2E/DX2                !
 ! A74   A(8,20,23)            114.4004         estimate D2E/DX2                !
 ! A75   A(21,20,23)           120.546          estimate D2E/DX2                !
 ! A76   A(19,21,20)           118.3776         estimate D2E/DX2                !
 ! A77   A(19,21,38)           118.5841         estimate D2E/DX2                !
 ! A78   A(20,21,38)           117.1664         estimate D2E/DX2                !
 ! A79   A(9,22,23)            122.4147         estimate D2E/DX2                !
 ! A80   A(9,22,24)            121.8916         estimate D2E/DX2                !
 ! A81   A(23,22,24)           107.3044         estimate D2E/DX2                !
 ! A82   A(20,23,22)           119.987          estimate D2E/DX2                !
 ! A83   A(20,23,40)           121.0117         estimate D2E/DX2                !
 ! A84   A(22,23,40)           108.4258         estimate D2E/DX2                !
 ! A85   A(22,24,26)           119.448          estimate D2E/DX2                !
 ! A86   A(22,24,41)           109.1483         estimate D2E/DX2                !
 ! A87   A(26,24,41)           119.534          estimate D2E/DX2                !
 ! A88   A(11,25,26)           122.4089         estimate D2E/DX2                !
 ! A89   A(11,25,28)           121.7896         estimate D2E/DX2                !
 ! A90   A(26,25,28)           107.0599         estimate D2E/DX2                !
 ! A91   A(24,26,25)           118.8838         estimate D2E/DX2                !
 ! A92   A(24,26,44)           119.843          estimate D2E/DX2                !
 ! A93   A(25,26,44)           109.1278         estimate D2E/DX2                !
 ! A94   A(13,27,28)           114.6067         estimate D2E/DX2                !
 ! A95   A(13,27,30)           119.3163         estimate D2E/DX2                !
 ! A96   A(28,27,30)           120.6796         estimate D2E/DX2                !
 ! A97   A(25,28,27)           119.9801         estimate D2E/DX2                !
 ! A98   A(25,28,45)           108.6733         estimate D2E/DX2                !
 ! A99   A(27,28,45)           121.0343         estimate D2E/DX2                !
 ! A100  A(14,29,30)           118.5336         estimate D2E/DX2                !
 ! A101  A(14,29,31)           118.5969         estimate D2E/DX2                !
 ! A102  A(30,29,31)           118.1914         estimate D2E/DX2                !
 ! A103  A(27,30,29)           118.8161         estimate D2E/DX2                !
 ! A104  A(27,30,47)           116.9157         estimate D2E/DX2                !
 ! A105  A(29,30,47)           119.2598         estimate D2E/DX2                !
 ! A106  A(29,31,34)           120.6176         estimate D2E/DX2                !
 ! A107  A(29,31,49)           121.8335         estimate D2E/DX2                !
 ! A108  A(34,31,49)           106.8251         estimate D2E/DX2                !
 ! A109  A(16,32,33)           110.9431         estimate D2E/DX2                !
 ! A110  A(16,32,34)           121.5188         estimate D2E/DX2                !
 ! A111  A(33,32,34)           117.9473         estimate D2E/DX2                !
 ! A112  A(18,33,32)           108.4459         estimate D2E/DX2                !
 ! A113  A(18,33,36)           119.6131         estimate D2E/DX2                !
 ! A114  A(32,33,36)           120.7259         estimate D2E/DX2                !
 ! A115  A(31,34,32)           120.2453         estimate D2E/DX2                !
 ! A116  A(31,34,51)           107.4977         estimate D2E/DX2                !
 ! A117  A(32,34,51)           121.2885         estimate D2E/DX2                !
 ! A118  A(19,35,36)           121.8842         estimate D2E/DX2                !
 ! A119  A(19,35,37)           121.3562         estimate D2E/DX2                !
 ! A120  A(36,35,37)           107.0945         estimate D2E/DX2                !
 ! A121  A(33,36,35)           119.738          estimate D2E/DX2                !
 ! A122  A(33,36,52)           120.1813         estimate D2E/DX2                !
 ! A123  A(35,36,52)           108.9596         estimate D2E/DX2                !
 ! A124  A(35,37,39)           119.665          estimate D2E/DX2                !
 ! A125  A(35,37,53)           108.2239         estimate D2E/DX2                !
 ! A126  A(39,37,53)           120.683          estimate D2E/DX2                !
 ! A127  A(21,38,39)           121.4319         estimate D2E/DX2                !
 ! A128  A(21,38,42)           121.5101         estimate D2E/DX2                !
 ! A129  A(39,38,42)           107.282          estimate D2E/DX2                !
 ! A130  A(37,39,38)           119.7545         estimate D2E/DX2                !
 ! A131  A(37,39,57)           120.0363         estimate D2E/DX2                !
 ! A132  A(38,39,57)           108.5648         estimate D2E/DX2                !
 ! A133  A(23,40,41)           108.648          estimate D2E/DX2                !
 ! A134  A(23,40,42)           119.0337         estimate D2E/DX2                !
 ! A135  A(41,40,42)           120.9223         estimate D2E/DX2                !
 ! A136  A(24,41,40)           106.2613         estimate D2E/DX2                !
 ! A137  A(24,41,43)           120.5972         estimate D2E/DX2                !
 ! A138  A(40,41,43)           119.4013         estimate D2E/DX2                !
 ! A139  A(38,42,40)           120.2313         estimate D2E/DX2                !
 ! A140  A(38,42,58)           108.445          estimate D2E/DX2                !
 ! A141  A(40,42,58)           119.6743         estimate D2E/DX2                !
 ! A142  A(41,43,46)           119.7919         estimate D2E/DX2                !
 ! A143  A(41,43,59)           120.0108         estimate D2E/DX2                !
 ! A144  A(46,43,59)           107.8455         estimate D2E/DX2                !
 ! A145  A(26,44,45)           106.4075         estimate D2E/DX2                !
 ! A146  A(26,44,46)           120.6932         estimate D2E/DX2                !
 ! A147  A(45,44,46)           119.1464         estimate D2E/DX2                !
 ! A148  A(28,45,44)           108.4876         estimate D2E/DX2                !
 ! A149  A(28,45,48)           118.9362         estimate D2E/DX2                !
 ! A150  A(44,45,48)           121.1322         estimate D2E/DX2                !
 ! A151  A(43,46,44)           119.5271         estimate D2E/DX2                !
 ! A152  A(43,46,61)           108.0471         estimate D2E/DX2                !
 ! A153  A(44,46,61)           119.9675         estimate D2E/DX2                !
 ! A154  A(30,47,48)           121.5438         estimate D2E/DX2                !
 ! A155  A(30,47,50)           121.249          estimate D2E/DX2                !
 ! A156  A(48,47,50)           107.2965         estimate D2E/DX2                !
 ! A157  A(45,48,47)           120.3736         estimate D2E/DX2                !
 ! A158  A(45,48,62)           119.6651         estimate D2E/DX2                !
 ! A159  A(47,48,62)           108.5735         estimate D2E/DX2                !
 ! A160  A(31,49,50)           120.0647         estimate D2E/DX2                !
 ! A161  A(31,49,54)           109.319          estimate D2E/DX2                !
 ! A162  A(50,49,54)           119.4995         estimate D2E/DX2                !
 ! A163  A(47,50,49)           119.0946         estimate D2E/DX2                !
 ! A164  A(47,50,63)           108.4885         estimate D2E/DX2                !
 ! A165  A(49,50,63)           120.9643         estimate D2E/DX2                !
 ! A166  A(34,51,52)           119.9539         estimate D2E/DX2                !
 ! A167  A(34,51,54)           108.0686         estimate D2E/DX2                !
 ! A168  A(52,51,54)           119.504          estimate D2E/DX2                !
 ! A169  A(36,52,51)           118.5214         estimate D2E/DX2                !
 ! A170  A(36,52,53)           107.4806         estimate D2E/DX2                !
 ! A171  A(51,52,53)           120.4345         estimate D2E/DX2                !
 ! A172  A(37,53,52)           107.7624         estimate D2E/DX2                !
 ! A173  A(37,53,55)           119.1937         estimate D2E/DX2                !
 ! A174  A(52,53,55)           119.7698         estimate D2E/DX2                !
 ! A175  A(49,54,51)           107.7367         estimate D2E/DX2                !
 ! A176  A(49,54,56)           119.2901         estimate D2E/DX2                !
 ! A177  A(51,54,56)           120.446          estimate D2E/DX2                !
 ! A178  A(53,55,56)           119.8717         estimate D2E/DX2                !
 ! A179  A(53,55,60)           120.0501         estimate D2E/DX2                !
 ! A180  A(56,55,60)           108.0398         estimate D2E/DX2                !
 ! A181  A(54,56,55)           119.8148         estimate D2E/DX2                !
 ! A182  A(54,56,64)           120.7095         estimate D2E/DX2                !
 ! A183  A(55,56,64)           107.6238         estimate D2E/DX2                !
 ! A184  A(39,57,58)           107.6777         estimate D2E/DX2                !
 ! A185  A(39,57,60)           119.3166         estimate D2E/DX2                !
 ! A186  A(58,57,60)           120.2393         estimate D2E/DX2                !
 ! A187  A(42,58,57)           107.7324         estimate D2E/DX2                !
 ! A188  A(42,58,59)           119.5125         estimate D2E/DX2                !
 ! A189  A(57,58,59)           120.3096         estimate D2E/DX2                !
 ! A190  A(43,59,58)           120.2925         estimate D2E/DX2                !
 ! A191  A(43,59,65)           108.1402         estimate D2E/DX2                !
 ! A192  A(58,59,65)           119.4338         estimate D2E/DX2                !
 ! A193  A(55,60,57)           120.4176         estimate D2E/DX2                !
 ! A194  A(55,60,66)           108.2349         estimate D2E/DX2                !
 ! A195  A(57,60,66)           119.5928         estimate D2E/DX2                !
 ! A196  A(46,61,62)           120.5211         estimate D2E/DX2                !
 ! A197  A(46,61,65)           108.014          estimate D2E/DX2                !
 ! A198  A(62,61,65)           119.5181         estimate D2E/DX2                !
 ! A199  A(48,62,61)           119.3467         estimate D2E/DX2                !
 ! A200  A(48,62,63)           107.3546         estimate D2E/DX2                !
 ! A201  A(61,62,63)           120.4768         estimate D2E/DX2                !
 ! A202  A(50,63,62)           108.0052         estimate D2E/DX2                !
 ! A203  A(50,63,64)           119.3885         estimate D2E/DX2                !
 ! A204  A(62,63,64)           119.958          estimate D2E/DX2                !
 ! A205  A(56,64,63)           119.9132         estimate D2E/DX2                !
 ! A206  A(56,64,66)           108.4308         estimate D2E/DX2                !
 ! A207  A(63,64,66)           119.7087         estimate D2E/DX2                !
 ! A208  A(59,65,61)           107.9049         estimate D2E/DX2                !
 ! A209  A(59,65,66)           120.1482         estimate D2E/DX2                !
 ! A210  A(61,65,66)           119.8629         estimate D2E/DX2                !
 ! A211  A(60,66,64)           107.6264         estimate D2E/DX2                !
 ! A212  A(60,66,65)           120.2114         estimate D2E/DX2                !
 ! A213  A(64,66,65)           120.4122         estimate D2E/DX2                !
 ! D1    D(4,1,2,3)              1.6331         estimate D2E/DX2                !
 ! D2    D(4,1,2,10)          -110.1753         estimate D2E/DX2                !
 ! D3    D(4,1,2,68)           127.2232         estimate D2E/DX2                !
 ! D4    D(7,1,2,3)            112.997          estimate D2E/DX2                !
 ! D5    D(7,1,2,10)             1.1887         estimate D2E/DX2                !
 ! D6    D(7,1,2,68)          -121.4128         estimate D2E/DX2                !
 ! D7    D(67,1,2,3)          -122.8376         estimate D2E/DX2                !
 ! D8    D(67,1,2,10)          125.354          estimate D2E/DX2                !
 ! D9    D(67,1,2,68)            2.7525         estimate D2E/DX2                !
 ! D10   D(2,1,4,5)              7.9866         estimate D2E/DX2                !
 ! D11   D(2,1,4,6)            123.3398         estimate D2E/DX2                !
 ! D12   D(2,1,4,71)          -112.0928         estimate D2E/DX2                !
 ! D13   D(7,1,4,5)           -110.7332         estimate D2E/DX2                !
 ! D14   D(7,1,4,6)              4.62           estimate D2E/DX2                !
 ! D15   D(7,1,4,71)           129.1874         estimate D2E/DX2                !
 ! D16   D(67,1,4,5)           131.914          estimate D2E/DX2                !
 ! D17   D(67,1,4,6)          -112.7328         estimate D2E/DX2                !
 ! D18   D(67,1,4,71)           11.8346         estimate D2E/DX2                !
 ! D19   D(2,1,7,8)           -125.9789         estimate D2E/DX2                !
 ! D20   D(2,1,7,9)             25.873          estimate D2E/DX2                !
 ! D21   D(4,1,7,8)            -12.1294         estimate D2E/DX2                !
 ! D22   D(4,1,7,9)            139.7225         estimate D2E/DX2                !
 ! D23   D(67,1,7,8)           108.1149         estimate D2E/DX2                !
 ! D24   D(67,1,7,9)          -100.0332         estimate D2E/DX2                !
 ! D25   D(1,2,3,5)            -10.5106         estimate D2E/DX2                !
 ! D26   D(1,2,3,12)          -121.0478         estimate D2E/DX2                !
 ! D27   D(1,2,3,69)           111.9043         estimate D2E/DX2                !
 ! D28   D(10,2,3,5)           107.8089         estimate D2E/DX2                !
 ! D29   D(10,2,3,12)           -2.7283         estimate D2E/DX2                !
 ! D30   D(10,2,3,69)         -129.7761         estimate D2E/DX2                !
 ! D31   D(68,2,3,5)          -135.4188         estimate D2E/DX2                !
 ! D32   D(68,2,3,12)          114.044          estimate D2E/DX2                !
 ! D33   D(68,2,3,69)          -13.0038         estimate D2E/DX2                !
 ! D34   D(1,2,10,11)          -28.2618         estimate D2E/DX2                !
 ! D35   D(1,2,10,13)          126.2157         estimate D2E/DX2                !
 ! D36   D(3,2,10,11)         -143.609          estimate D2E/DX2                !
 ! D37   D(3,2,10,13)           10.8686         estimate D2E/DX2                !
 ! D38   D(68,2,10,11)          96.3108         estimate D2E/DX2                !
 ! D39   D(68,2,10,13)        -109.2116         estimate D2E/DX2                !
 ! D40   D(2,3,5,4)             16.8955         estimate D2E/DX2                !
 ! D41   D(2,3,5,15)          -144.2283         estimate D2E/DX2                !
 ! D42   D(12,3,5,4)           128.3478         estimate D2E/DX2                !
 ! D43   D(12,3,5,15)          -32.776          estimate D2E/DX2                !
 ! D44   D(69,3,5,4)          -109.1198         estimate D2E/DX2                !
 ! D45   D(69,3,5,15)           89.7564         estimate D2E/DX2                !
 ! D46   D(2,3,12,13)           -5.8632         estimate D2E/DX2                !
 ! D47   D(2,3,12,14)          144.9547         estimate D2E/DX2                !
 ! D48   D(5,3,12,13)         -115.3214         estimate D2E/DX2                !
 ! D49   D(5,3,12,14)           35.4966         estimate D2E/DX2                !
 ! D50   D(69,3,12,13)         123.3494         estimate D2E/DX2                !
 ! D51   D(69,3,12,14)         -85.8327         estimate D2E/DX2                !
 ! D52   D(1,4,5,3)            -16.091          estimate D2E/DX2                !
 ! D53   D(1,4,5,15)           145.0235         estimate D2E/DX2                !
 ! D54   D(6,4,5,3)           -129.4857         estimate D2E/DX2                !
 ! D55   D(6,4,5,15)            31.6288         estimate D2E/DX2                !
 ! D56   D(71,4,5,3)           107.7499         estimate D2E/DX2                !
 ! D57   D(71,4,5,15)          -91.1356         estimate D2E/DX2                !
 ! D58   D(1,4,6,8)              4.2596         estimate D2E/DX2                !
 ! D59   D(1,4,6,17)          -145.6385         estimate D2E/DX2                !
 ! D60   D(5,4,6,8)            116.863          estimate D2E/DX2                !
 ! D61   D(5,4,6,17)           -33.0351         estimate D2E/DX2                !
 ! D62   D(71,4,6,8)          -122.0969         estimate D2E/DX2                !
 ! D63   D(71,4,6,17)           88.005          estimate D2E/DX2                !
 ! D64   D(3,5,15,16)           -2.5989         estimate D2E/DX2                !
 ! D65   D(3,5,15,18)          150.1415         estimate D2E/DX2                !
 ! D66   D(4,5,15,16)         -162.4515         estimate D2E/DX2                !
 ! D67   D(4,5,15,18)           -9.7111         estimate D2E/DX2                !
 ! D68   D(4,6,8,7)            -12.0134         estimate D2E/DX2                !
 ! D69   D(4,6,8,20)          -166.2713         estimate D2E/DX2                !
 ! D70   D(17,6,8,7)           138.999          estimate D2E/DX2                !
 ! D71   D(17,6,8,20)          -15.2589         estimate D2E/DX2                !
 ! D72   D(4,6,17,18)           11.4202         estimate D2E/DX2                !
 ! D73   D(4,6,17,19)          164.9692         estimate D2E/DX2                !
 ! D74   D(8,6,17,18)         -135.5844         estimate D2E/DX2                !
 ! D75   D(8,6,17,19)           17.9646         estimate D2E/DX2                !
 ! D76   D(1,7,8,6)             15.5668         estimate D2E/DX2                !
 ! D77   D(1,7,8,20)           168.8362         estimate D2E/DX2                !
 ! D78   D(9,7,8,6)           -138.6368         estimate D2E/DX2                !
 ! D79   D(9,7,8,20)            14.6327         estimate D2E/DX2                !
 ! D80   D(1,7,9,11)           -27.0294         estimate D2E/DX2                !
 ! D81   D(1,7,9,22)          -173.4391         estimate D2E/DX2                !
 ! D82   D(8,7,9,11)           123.2105         estimate D2E/DX2                !
 ! D83   D(8,7,9,22)           -23.1992         estimate D2E/DX2                !
 ! D84   D(6,8,20,21)            2.1465         estimate D2E/DX2                !
 ! D85   D(6,8,20,23)          156.0046         estimate D2E/DX2                !
 ! D86   D(7,8,20,21)         -147.9383         estimate D2E/DX2                !
 ! D87   D(7,8,20,23)            5.9198         estimate D2E/DX2                !
 ! D88   D(7,9,11,10)           -0.8145         estimate D2E/DX2                !
 ! D89   D(7,9,11,25)         -146.6075         estimate D2E/DX2                !
 ! D90   D(22,9,11,10)         144.9897         estimate D2E/DX2                !
 ! D91   D(22,9,11,25)          -0.8033         estimate D2E/DX2                !
 ! D92   D(7,9,22,23)           13.0167         estimate D2E/DX2                !
 ! D93   D(7,9,22,24)          157.1223         estimate D2E/DX2                !
 ! D94   D(11,9,22,23)        -133.0238         estimate D2E/DX2                !
 ! D95   D(11,9,22,24)          11.0818         estimate D2E/DX2                !
 ! D96   D(2,10,11,9)           29.2162         estimate D2E/DX2                !
 ! D97   D(2,10,11,25)         175.5794         estimate D2E/DX2                !
 ! D98   D(13,10,11,9)        -123.8948         estimate D2E/DX2                !
 ! D99   D(13,10,11,25)         22.4684         estimate D2E/DX2                !
 ! D100  D(2,10,13,12)         -15.3655         estimate D2E/DX2                !
 ! D101  D(2,10,13,27)        -170.1906         estimate D2E/DX2                !
 ! D102  D(11,10,13,12)        141.0503         estimate D2E/DX2                !
 ! D103  D(11,10,13,27)        -13.7748         estimate D2E/DX2                !
 ! D104  D(9,11,25,26)          -9.9205         estimate D2E/DX2                !
 ! D105  D(9,11,25,28)         133.428          estimate D2E/DX2                !
 ! D106  D(10,11,25,26)       -155.9993         estimate D2E/DX2                !
 ! D107  D(10,11,25,28)        -12.6508         estimate D2E/DX2                !
 ! D108  D(3,12,13,10)          12.8498         estimate D2E/DX2                !
 ! D109  D(3,12,13,27)         168.7533         estimate D2E/DX2                !
 ! D110  D(14,12,13,10)       -140.0286         estimate D2E/DX2                !
 ! D111  D(14,12,13,27)         15.8749         estimate D2E/DX2                !
 ! D112  D(3,12,14,16)          -1.1211         estimate D2E/DX2                !
 ! D113  D(3,12,14,29)        -165.041          estimate D2E/DX2                !
 ! D114  D(13,12,14,16)        146.6833         estimate D2E/DX2                !
 ! D115  D(13,12,14,29)        -17.2366         estimate D2E/DX2                !
 ! D116  D(10,13,27,28)         -6.2259         estimate D2E/DX2                !
 ! D117  D(10,13,27,30)        148.0385         estimate D2E/DX2                !
 ! D118  D(12,13,27,28)       -158.2505         estimate D2E/DX2                !
 ! D119  D(12,13,27,30)         -3.9861         estimate D2E/DX2                !
 ! D120  D(12,14,16,15)        -33.963          estimate D2E/DX2                !
 ! D121  D(12,14,16,32)       -143.2551         estimate D2E/DX2                !
 ! D122  D(12,14,16,70)         90.5337         estimate D2E/DX2                !
 ! D123  D(29,14,16,15)        129.941          estimate D2E/DX2                !
 ! D124  D(29,14,16,32)         20.6489         estimate D2E/DX2                !
 ! D125  D(29,14,16,70)       -105.5624         estimate D2E/DX2                !
 ! D126  D(12,14,29,30)          7.0981         estimate D2E/DX2                !
 ! D127  D(12,14,29,31)        162.4453         estimate D2E/DX2                !
 ! D128  D(16,14,29,30)       -156.2756         estimate D2E/DX2                !
 ! D129  D(16,14,29,31)         -0.9283         estimate D2E/DX2                !
 ! D130  D(5,15,16,14)          37.6795         estimate D2E/DX2                !
 ! D131  D(5,15,16,32)         154.7916         estimate D2E/DX2                !
 ! D132  D(5,15,16,70)         -83.4734         estimate D2E/DX2                !
 ! D133  D(18,15,16,14)       -117.473          estimate D2E/DX2                !
 ! D134  D(18,15,16,32)         -0.3608         estimate D2E/DX2                !
 ! D135  D(18,15,16,70)        121.3741         estimate D2E/DX2                !
 ! D136  D(5,15,18,17)         -15.7546         estimate D2E/DX2                !
 ! D137  D(5,15,18,33)        -160.3184         estimate D2E/DX2                !
 ! D138  D(16,15,18,17)        140.2464         estimate D2E/DX2                !
 ! D139  D(16,15,18,33)         -4.3175         estimate D2E/DX2                !
 ! D140  D(14,16,32,33)        117.2061         estimate D2E/DX2                !
 ! D141  D(14,16,32,34)        -28.2168         estimate D2E/DX2                !
 ! D142  D(15,16,32,33)          4.8601         estimate D2E/DX2                !
 ! D143  D(15,16,32,34)       -140.5627         estimate D2E/DX2                !
 ! D144  D(70,16,32,33)       -118.3248         estimate D2E/DX2                !
 ! D145  D(70,16,32,34)         96.2524         estimate D2E/DX2                !
 ! D146  D(6,17,18,15)          14.3588         estimate D2E/DX2                !
 ! D147  D(6,17,18,33)         154.406          estimate D2E/DX2                !
 ! D148  D(19,17,18,15)       -139.098          estimate D2E/DX2                !
 ! D149  D(19,17,18,33)          0.9492         estimate D2E/DX2                !
 ! D150  D(6,17,19,21)          -7.9882         estimate D2E/DX2                !
 ! D151  D(6,17,19,35)        -163.4119         estimate D2E/DX2                !
 ! D152  D(18,17,19,21)        144.6098         estimate D2E/DX2                !
 ! D153  D(18,17,19,35)        -10.8139         estimate D2E/DX2                !
 ! D154  D(15,18,33,32)          7.3405         estimate D2E/DX2                !
 ! D155  D(15,18,33,36)        151.3492         estimate D2E/DX2                !
 ! D156  D(17,18,33,32)       -136.5384         estimate D2E/DX2                !
 ! D157  D(17,18,33,36)          7.4703         estimate D2E/DX2                !
 ! D158  D(17,19,21,20)         -4.6716         estimate D2E/DX2                !
 ! D159  D(17,19,21,38)       -156.9591         estimate D2E/DX2                !
 ! D160  D(35,19,21,20)        150.181          estimate D2E/DX2                !
 ! D161  D(35,19,21,38)         -2.1065         estimate D2E/DX2                !
 ! D162  D(17,19,35,36)         12.8086         estimate D2E/DX2                !
 ! D163  D(17,19,35,37)        154.4782         estimate D2E/DX2                !
 ! D164  D(21,19,35,36)       -142.6979         estimate D2E/DX2                !
 ! D165  D(21,19,35,37)         -1.0283         estimate D2E/DX2                !
 ! D166  D(8,20,21,19)           7.6193         estimate D2E/DX2                !
 ! D167  D(8,20,21,38)         160.2975         estimate D2E/DX2                !
 ! D168  D(23,20,21,19)       -144.6123         estimate D2E/DX2                !
 ! D169  D(23,20,21,38)          8.0659         estimate D2E/DX2                !
 ! D170  D(8,20,23,22)         -16.6998         estimate D2E/DX2                !
 ! D171  D(8,20,23,40)        -157.2943         estimate D2E/DX2                !
 ! D172  D(21,20,23,22)        136.8571         estimate D2E/DX2                !
 ! D173  D(21,20,23,40)         -3.7374         estimate D2E/DX2                !
 ! D174  D(19,21,38,39)          3.7687         estimate D2E/DX2                !
 ! D175  D(19,21,38,42)        145.3095         estimate D2E/DX2                !
 ! D176  D(20,21,38,39)       -148.8515         estimate D2E/DX2                !
 ! D177  D(20,21,38,42)         -7.3107         estimate D2E/DX2                !
 ! D178  D(9,22,23,20)           7.9116         estimate D2E/DX2                !
 ! D179  D(9,22,23,40)         152.9193         estimate D2E/DX2                !
 ! D180  D(24,22,23,20)       -140.6628         estimate D2E/DX2                !
 ! D181  D(24,22,23,40)          4.3449         estimate D2E/DX2                !
 ! D182  D(9,22,24,26)         -10.7916         estimate D2E/DX2                !
 ! D183  D(9,22,24,41)        -153.4719         estimate D2E/DX2                !
 ! D184  D(23,22,24,26)        137.9829         estimate D2E/DX2                !
 ! D185  D(23,22,24,41)         -4.6974         estimate D2E/DX2                !
 ! D186  D(20,23,40,41)        142.1856         estimate D2E/DX2                !
 ! D187  D(20,23,40,42)         -1.6784         estimate D2E/DX2                !
 ! D188  D(22,23,40,41)         -2.3963         estimate D2E/DX2                !
 ! D189  D(22,23,40,42)       -146.2603         estimate D2E/DX2                !
 ! D190  D(22,24,26,25)         -0.0234         estimate D2E/DX2                !
 ! D191  D(22,24,26,44)       -138.4349         estimate D2E/DX2                !
 ! D192  D(41,24,26,25)        138.8101         estimate D2E/DX2                !
 ! D193  D(41,24,26,44)          0.3986         estimate D2E/DX2                !
 ! D194  D(22,24,41,40)          3.2091         estimate D2E/DX2                !
 ! D195  D(22,24,41,43)        143.2574         estimate D2E/DX2                !
 ! D196  D(26,24,41,40)       -139.4341         estimate D2E/DX2                !
 ! D197  D(26,24,41,43)          0.6141         estimate D2E/DX2                !
 ! D198  D(11,25,26,24)         10.4759         estimate D2E/DX2                !
 ! D199  D(11,25,26,44)        152.9299         estimate D2E/DX2                !
 ! D200  D(28,25,26,24)       -137.4679         estimate D2E/DX2                !
 ! D201  D(28,25,26,44)          4.9861         estimate D2E/DX2                !
 ! D202  D(11,25,28,27)         -7.5058         estimate D2E/DX2                !
 ! D203  D(11,25,28,45)       -152.9149         estimate D2E/DX2                !
 ! D204  D(26,25,28,27)        140.6801         estimate D2E/DX2                !
 ! D205  D(26,25,28,45)         -4.7289         estimate D2E/DX2                !
 ! D206  D(24,26,44,45)        138.7231         estimate D2E/DX2                !
 ! D207  D(24,26,44,46)         -1.2035         estimate D2E/DX2                !
 ! D208  D(25,26,44,45)         -3.3129         estimate D2E/DX2                !
 ! D209  D(25,26,44,46)       -143.2395         estimate D2E/DX2                !
 ! D210  D(13,27,28,25)         16.4572         estimate D2E/DX2                !
 ! D211  D(13,27,28,45)        157.5783         estimate D2E/DX2                !
 ! D212  D(30,27,28,25)       -137.4246         estimate D2E/DX2                !
 ! D213  D(30,27,28,45)          3.6966         estimate D2E/DX2                !
 ! D214  D(13,27,30,29)         -6.0155         estimate D2E/DX2                !
 ! D215  D(13,27,30,47)       -160.8254         estimate D2E/DX2                !
 ! D216  D(28,27,30,29)        146.6596         estimate D2E/DX2                !
 ! D217  D(28,27,30,47)         -8.1503         estimate D2E/DX2                !
 ! D218  D(25,28,45,44)          2.7298         estimate D2E/DX2                !
 ! D219  D(25,28,45,48)        146.6077         estimate D2E/DX2                !
 ! D220  D(27,28,45,44)       -142.2474         estimate D2E/DX2                !
 ! D221  D(27,28,45,48)          1.6305         estimate D2E/DX2                !
 ! D222  D(14,29,30,27)          4.5917         estimate D2E/DX2                !
 ! D223  D(14,29,30,47)        158.8052         estimate D2E/DX2                !
 ! D224  D(31,29,30,27)       -150.8559         estimate D2E/DX2                !
 ! D225  D(31,29,30,47)          3.3576         estimate D2E/DX2                !
 ! D226  D(14,29,31,34)        -13.9142         estimate D2E/DX2                !
 ! D227  D(14,29,31,49)       -153.671          estimate D2E/DX2                !
 ! D228  D(30,29,31,34)        141.5176         estimate D2E/DX2                !
 ! D229  D(30,29,31,49)          1.7609         estimate D2E/DX2                !
 ! D230  D(27,30,47,48)          7.608          estimate D2E/DX2                !
 ! D231  D(27,30,47,50)        148.9186         estimate D2E/DX2                !
 ! D232  D(29,30,47,48)       -147.0857         estimate D2E/DX2                !
 ! D233  D(29,30,47,50)         -5.7752         estimate D2E/DX2                !
 ! D234  D(29,31,34,32)          7.042          estimate D2E/DX2                !
 ! D235  D(29,31,34,51)       -137.463          estimate D2E/DX2                !
 ! D236  D(49,31,34,32)        152.0539         estimate D2E/DX2                !
 ! D237  D(49,31,34,51)          7.5489         estimate D2E/DX2                !
 ! D238  D(29,31,49,50)         -4.6161         estimate D2E/DX2                !
 ! D239  D(29,31,49,54)        139.0755         estimate D2E/DX2                !
 ! D240  D(34,31,49,50)       -149.107          estimate D2E/DX2                !
 ! D241  D(34,31,49,54)         -5.4155         estimate D2E/DX2                !
 ! D242  D(16,32,33,18)         -7.8348         estimate D2E/DX2                !
 ! D243  D(16,32,33,36)       -151.3695         estimate D2E/DX2                !
 ! D244  D(34,32,33,18)        138.9588         estimate D2E/DX2                !
 ! D245  D(34,32,33,36)         -4.576          estimate D2E/DX2                !
 ! D246  D(16,32,34,31)         15.573          estimate D2E/DX2                !
 ! D247  D(16,32,34,51)        155.1812         estimate D2E/DX2                !
 ! D248  D(33,32,34,31)       -127.5574         estimate D2E/DX2                !
 ! D249  D(33,32,34,51)         12.0508         estimate D2E/DX2                !
 ! D250  D(18,33,36,35)         -5.6867         estimate D2E/DX2                !
 ! D251  D(18,33,36,52)       -145.6023         estimate D2E/DX2                !
 ! D252  D(32,33,36,35)        133.8842         estimate D2E/DX2                !
 ! D253  D(32,33,36,52)         -6.0313         estimate D2E/DX2                !
 ! D254  D(31,34,51,52)        134.9271         estimate D2E/DX2                !
 ! D255  D(31,34,51,54)         -6.877          estimate D2E/DX2                !
 ! D256  D(32,34,51,52)         -9.1312         estimate D2E/DX2                !
 ! D257  D(32,34,51,54)       -150.9353         estimate D2E/DX2                !
 ! D258  D(19,35,36,33)         -4.7813         estimate D2E/DX2                !
 ! D259  D(19,35,36,52)        139.164          estimate D2E/DX2                !
 ! D260  D(37,35,36,33)       -151.133          estimate D2E/DX2                !
 ! D261  D(37,35,36,52)         -7.1876         estimate D2E/DX2                !
 ! D262  D(19,35,37,39)          2.6071         estimate D2E/DX2                !
 ! D263  D(19,35,37,53)       -141.0806         estimate D2E/DX2                !
 ! D264  D(36,35,37,39)        149.1742         estimate D2E/DX2                !
 ! D265  D(36,35,37,53)          5.4865         estimate D2E/DX2                !
 ! D266  D(33,36,52,51)          9.0043         estimate D2E/DX2                !
 ! D267  D(33,36,52,53)        149.8617         estimate D2E/DX2                !
 ! D268  D(35,36,52,51)       -134.7544         estimate D2E/DX2                !
 ! D269  D(35,36,52,53)          6.103          estimate D2E/DX2                !
 ! D270  D(35,37,39,38)         -0.9693         estimate D2E/DX2                !
 ! D271  D(35,37,39,57)       -139.9195         estimate D2E/DX2                !
 ! D272  D(53,37,39,38)        138.1833         estimate D2E/DX2                !
 ! D273  D(53,37,39,57)         -0.7669         estimate D2E/DX2                !
 ! D274  D(35,37,53,52)         -1.7927         estimate D2E/DX2                !
 ! D275  D(35,37,53,55)        139.123          estimate D2E/DX2                !
 ! D276  D(39,37,53,52)       -145.042          estimate D2E/DX2                !
 ! D277  D(39,37,53,55)         -4.1262         estimate D2E/DX2                !
 ! D278  D(21,38,39,37)         -2.2397         estimate D2E/DX2                !
 ! D279  D(21,38,39,57)        140.9097         estimate D2E/DX2                !
 ! D280  D(42,38,39,37)       -148.507          estimate D2E/DX2                !
 ! D281  D(42,38,39,57)         -5.3576         estimate D2E/DX2                !
 ! D282  D(21,38,42,40)          2.144          estimate D2E/DX2                !
 ! D283  D(21,38,42,58)       -140.8327         estimate D2E/DX2                !
 ! D284  D(39,38,42,40)        148.3793         estimate D2E/DX2                !
 ! D285  D(39,38,42,58)          5.4026         estimate D2E/DX2                !
 ! D286  D(37,39,57,58)        146.3179         estimate D2E/DX2                !
 ! D287  D(37,39,57,60)          4.58           estimate D2E/DX2                !
 ! D288  D(38,39,57,58)          3.2902         estimate D2E/DX2                !
 ! D289  D(38,39,57,60)       -138.4477         estimate D2E/DX2                !
 ! D290  D(23,40,41,24)         -0.494          estimate D2E/DX2                !
 ! D291  D(23,40,41,43)       -141.1148         estimate D2E/DX2                !
 ! D292  D(42,40,41,24)        142.5626         estimate D2E/DX2                !
 ! D293  D(42,40,41,43)          1.9418         estimate D2E/DX2                !
 ! D294  D(23,40,42,38)          2.4926         estimate D2E/DX2                !
 ! D295  D(23,40,42,58)        141.3888         estimate D2E/DX2                !
 ! D296  D(41,40,42,38)       -136.8662         estimate D2E/DX2                !
 ! D297  D(41,40,42,58)          2.03           estimate D2E/DX2                !
 ! D298  D(24,41,43,46)         -0.838          estimate D2E/DX2                !
 ! D299  D(24,41,43,59)       -138.4404         estimate D2E/DX2                !
 ! D300  D(40,41,43,46)        134.1229         estimate D2E/DX2                !
 ! D301  D(40,41,43,59)         -3.4794         estimate D2E/DX2                !
 ! D302  D(38,42,58,57)         -3.4001         estimate D2E/DX2                !
 ! D303  D(38,42,58,59)        138.7714         estimate D2E/DX2                !
 ! D304  D(40,42,58,57)       -146.6178         estimate D2E/DX2                !
 ! D305  D(40,42,58,59)         -4.4463         estimate D2E/DX2                !
 ! D306  D(41,43,46,44)          0.0388         estimate D2E/DX2                !
 ! D307  D(41,43,46,61)       -141.9898         estimate D2E/DX2                !
 ! D308  D(59,43,46,44)        142.2041         estimate D2E/DX2                !
 ! D309  D(59,43,46,61)          0.1755         estimate D2E/DX2                !
 ! D310  D(41,43,59,58)          1.0524         estimate D2E/DX2                !
 ! D311  D(41,43,59,65)        143.2644         estimate D2E/DX2                !
 ! D312  D(46,43,59,58)       -141.015          estimate D2E/DX2                !
 ! D313  D(46,43,59,65)          1.197          estimate D2E/DX2                !
 ! D314  D(26,44,45,28)          0.3588         estimate D2E/DX2                !
 ! D315  D(26,44,45,48)       -142.5764         estimate D2E/DX2                !
 ! D316  D(46,44,45,28)        141.0246         estimate D2E/DX2                !
 ! D317  D(46,44,45,48)         -1.9106         estimate D2E/DX2                !
 ! D318  D(26,44,46,43)          0.9779         estimate D2E/DX2                !
 ! D319  D(26,44,46,61)        138.5022         estimate D2E/DX2                !
 ! D320  D(45,44,46,43)       -134.0239         estimate D2E/DX2                !
 ! D321  D(45,44,46,61)          3.5004         estimate D2E/DX2                !
 ! D322  D(28,45,48,47)         -2.2302         estimate D2E/DX2                !
 ! D323  D(28,45,48,62)       -141.5799         estimate D2E/DX2                !
 ! D324  D(44,45,48,47)        136.9901         estimate D2E/DX2                !
 ! D325  D(44,45,48,62)         -2.3597         estimate D2E/DX2                !
 ! D326  D(43,46,61,62)        140.9994         estimate D2E/DX2                !
 ! D327  D(43,46,61,65)         -1.4806         estimate D2E/DX2                !
 ! D328  D(44,46,61,62)         -0.8321         estimate D2E/DX2                !
 ! D329  D(44,46,61,65)       -143.3121         estimate D2E/DX2                !
 ! D330  D(30,47,48,45)         -2.5664         estimate D2E/DX2                !
 ! D331  D(30,47,48,62)        140.7667         estimate D2E/DX2                !
 ! D332  D(50,47,48,45)       -148.5299         estimate D2E/DX2                !
 ! D333  D(50,47,48,62)         -5.1967         estimate D2E/DX2                !
 ! D334  D(30,47,50,49)          2.9749         estimate D2E/DX2                !
 ! D335  D(30,47,50,63)       -140.8203         estimate D2E/DX2                !
 ! D336  D(48,47,50,49)        149.0596         estimate D2E/DX2                !
 ! D337  D(48,47,50,63)          5.2644         estimate D2E/DX2                !
 ! D338  D(45,48,62,61)          5.0111         estimate D2E/DX2                !
 ! D339  D(45,48,62,63)        146.7613         estimate D2E/DX2                !
 ! D340  D(47,48,62,61)       -138.6252         estimate D2E/DX2                !
 ! D341  D(47,48,62,63)          3.125          estimate D2E/DX2                !
 ! D342  D(31,49,50,47)          2.2037         estimate D2E/DX2                !
 ! D343  D(31,49,50,63)        141.4136         estimate D2E/DX2                !
 ! D344  D(54,49,50,47)       -137.8536         estimate D2E/DX2                !
 ! D345  D(54,49,50,63)          1.3564         estimate D2E/DX2                !
 ! D346  D(31,49,54,51)          1.2182         estimate D2E/DX2                !
 ! D347  D(31,49,54,56)       -140.913          estimate D2E/DX2                !
 ! D348  D(50,49,54,51)        145.1464         estimate D2E/DX2                !
 ! D349  D(50,49,54,56)          3.0152         estimate D2E/DX2                !
 ! D350  D(47,50,63,62)         -3.3784         estimate D2E/DX2                !
 ! D351  D(47,50,63,64)        138.4057         estimate D2E/DX2                !
 ! D352  D(49,50,63,62)       -146.3706         estimate D2E/DX2                !
 ! D353  D(49,50,63,64)         -4.5866         estimate D2E/DX2                !
 ! D354  D(34,51,52,36)         -1.7124         estimate D2E/DX2                !
 ! D355  D(34,51,52,53)       -137.4198         estimate D2E/DX2                !
 ! D356  D(54,51,52,36)        135.7984         estimate D2E/DX2                !
 ! D357  D(54,51,52,53)          0.091          estimate D2E/DX2                !
 ! D358  D(34,51,54,49)          3.5782         estimate D2E/DX2                !
 ! D359  D(34,51,54,56)        145.1884         estimate D2E/DX2                !
 ! D360  D(52,51,54,49)       -138.4273         estimate D2E/DX2                !
 ! D361  D(52,51,54,56)          3.1829         estimate D2E/DX2                !
 ! D362  D(36,52,53,37)         -2.6262         estimate D2E/DX2                !
 ! D363  D(36,52,53,55)       -143.2762         estimate D2E/DX2                !
 ! D364  D(51,52,53,37)        137.3368         estimate D2E/DX2                !
 ! D365  D(51,52,53,55)         -3.3131         estimate D2E/DX2                !
 ! D366  D(37,53,55,56)       -132.9762         estimate D2E/DX2                !
 ! D367  D(37,53,55,60)          5.171          estimate D2E/DX2                !
 ! D368  D(52,53,55,56)          3.2595         estimate D2E/DX2                !
 ! D369  D(52,53,55,60)        141.4068         estimate D2E/DX2                !
 ! D370  D(49,54,56,55)        134.0698         estimate D2E/DX2                !
 ! D371  D(49,54,56,64)         -4.1968         estimate D2E/DX2                !
 ! D372  D(51,54,56,55)         -3.2275         estimate D2E/DX2                !
 ! D373  D(51,54,56,64)       -141.4941         estimate D2E/DX2                !
 ! D374  D(53,55,56,54)         -0.0232         estimate D2E/DX2                !
 ! D375  D(53,55,56,64)        143.071          estimate D2E/DX2                !
 ! D376  D(60,55,56,54)       -142.6218         estimate D2E/DX2                !
 ! D377  D(60,55,56,64)          0.4724         estimate D2E/DX2                !
 ! D378  D(53,55,60,57)         -1.3752         estimate D2E/DX2                !
 ! D379  D(53,55,60,66)       -144.1591         estimate D2E/DX2                !
 ! D380  D(56,55,60,57)        141.1447         estimate D2E/DX2                !
 ! D381  D(56,55,60,66)         -1.6393         estimate D2E/DX2                !
 ! D382  D(54,56,64,63)          0.9738         estimate D2E/DX2                !
 ! D383  D(54,56,64,66)        143.5728         estimate D2E/DX2                !
 ! D384  D(55,56,64,63)       -141.7255         estimate D2E/DX2                !
 ! D385  D(55,56,64,66)          0.8735         estimate D2E/DX2                !
 ! D386  D(39,57,58,42)          0.0763         estimate D2E/DX2                !
 ! D387  D(39,57,58,59)       -141.7368         estimate D2E/DX2                !
 ! D388  D(60,57,58,42)        141.3946         estimate D2E/DX2                !
 ! D389  D(60,57,58,59)         -0.4184         estimate D2E/DX2                !
 ! D390  D(39,57,60,55)         -3.5237         estimate D2E/DX2                !
 ! D391  D(39,57,60,66)        135.1289         estimate D2E/DX2                !
 ! D392  D(58,57,60,55)       -140.4493         estimate D2E/DX2                !
 ! D393  D(58,57,60,66)         -1.7967         estimate D2E/DX2                !
 ! D394  D(42,58,59,43)          2.9201         estimate D2E/DX2                !
 ! D395  D(42,58,59,65)       -135.122          estimate D2E/DX2                !
 ! D396  D(57,58,59,43)        140.3375         estimate D2E/DX2                !
 ! D397  D(57,58,59,65)          2.2954         estimate D2E/DX2                !
 ! D398  D(43,59,65,61)         -2.1118         estimate D2E/DX2                !
 ! D399  D(43,59,65,66)       -144.5574         estimate D2E/DX2                !
 ! D400  D(58,59,65,61)        140.4799         estimate D2E/DX2                !
 ! D401  D(58,59,65,66)         -1.9656         estimate D2E/DX2                !
 ! D402  D(55,60,66,64)          2.1697         estimate D2E/DX2                !
 ! D403  D(55,60,66,65)        145.2659         estimate D2E/DX2                !
 ! D404  D(57,60,66,64)       -140.9736         estimate D2E/DX2                !
 ! D405  D(57,60,66,65)          2.1226         estimate D2E/DX2                !
 ! D406  D(46,61,62,48)         -3.4378         estimate D2E/DX2                !
 ! D407  D(46,61,62,63)       -140.1518         estimate D2E/DX2                !
 ! D408  D(65,61,62,48)        134.8357         estimate D2E/DX2                !
 ! D409  D(65,61,62,63)         -1.8783         estimate D2E/DX2                !
 ! D410  D(46,61,65,59)          2.2173         estimate D2E/DX2                !
 ! D411  D(46,61,65,66)        144.7892         estimate D2E/DX2                !
 ! D412  D(62,61,65,59)       -140.7042         estimate D2E/DX2                !
 ! D413  D(62,61,65,66)          1.8678         estimate D2E/DX2                !
 ! D414  D(48,62,63,50)          0.1361         estimate D2E/DX2                !
 ! D415  D(48,62,63,64)       -141.3913         estimate D2E/DX2                !
 ! D416  D(61,62,63,50)        141.369          estimate D2E/DX2                !
 ! D417  D(61,62,63,64)         -0.1584         estimate D2E/DX2                !
 ! D418  D(50,63,64,56)          3.3981         estimate D2E/DX2                !
 ! D419  D(50,63,64,66)       -135.0393         estimate D2E/DX2                !
 ! D420  D(62,63,64,56)        140.6278         estimate D2E/DX2                !
 ! D421  D(62,63,64,66)          2.1904         estimate D2E/DX2                !
 ! D422  D(56,64,66,60)         -1.88           estimate D2E/DX2                !
 ! D423  D(56,64,66,65)       -144.8879         estimate D2E/DX2                !
 ! D424  D(63,64,66,60)        140.8085         estimate D2E/DX2                !
 ! D425  D(63,64,66,65)         -2.1994         estimate D2E/DX2                !
 ! D426  D(59,65,66,60)         -0.241          estimate D2E/DX2                !
 ! D427  D(59,65,66,64)        138.1849         estimate D2E/DX2                !
 ! D428  D(61,65,66,60)       -138.2666         estimate D2E/DX2                !
 ! D429  D(61,65,66,64)          0.1593         estimate D2E/DX2                !
 --------------------------------------------------------------------------------
 Trust Radius=3.00D-01 FncErr=1.00D-07 GrdErr=1.00D-06 EigMax=2.50D+02 EigMin=1.00D-04
 Number of steps in this run=    426 maximum allowed number of steps=    426.
 GradGradGradGradGradGradGradGradGradGradGradGradGradGradGradGradGradGrad

 Leave Link  103 at Thu Jul 14 15:23:53 2022, MaxMem=  1342177280 cpu:               1.4 elap:               0.0
 (Enter /home/mkliu/g16/l202.exe)
 Stoichiometry    C66Cl5(2)
 Framework group  C1[X(C66Cl5)]
 Deg. of freedom   207
 Full point group                 C1      NOp   1
 Largest Abelian subgroup         C1      NOp   1
 Largest concise Abelian subgroup C1      NOp   1
                         Standard orientation:                         
 ---------------------------------------------------------------------
 Center     Atomic      Atomic             Coordinates (Angstroms)
 Number     Number       Type             X           Y           Z
 ---------------------------------------------------------------------
      1          6           0        3.358509   -1.490677    0.609668
      2          6           0        3.433496   -1.023991   -0.888813
      3          6           0        3.390579    0.528281   -0.909343
      4          6           0        3.229269   -0.201968    1.460772
      5          6           0        3.035905    0.884415    0.480871
      6          6           0        1.978235   -0.358479    2.267235
      7          6           0        2.091071   -2.213156    0.934354
      8          6           0        1.432964   -1.622230    2.048267
[...]
 
              Baa    -0.0772   -10.365    -3.698    -3.457 -0.5249  0.8493 -0.0553
     9 C(13)  Bbb     0.0342     4.585     1.636     1.529 -0.4117 -0.1965  0.8899
              Bcc     0.0431     5.780     2.062     1.928  0.7449  0.4899  0.4528
 
              Baa    -0.0257    -3.449    -1.231    -1.150 -0.5693  0.4627  0.6796
    10 C(13)  Bbb     0.0122     1.639     0.585     0.547  0.7858  0.5494  0.2841
              Bcc     0.0135     1.809     0.646     0.603 -0.2419  0.6957 -0.6764
 
              Baa    -0.0151    -2.027    -0.723    -0.676  0.4072  0.6972 -0.5900
    11 C(13)  Bbb    -0.0132    -1.772    -0.632    -0.591  0.7756  0.0771  0.6265
              Bcc     0.0283     3.799     1.355     1.267 -0.4823  0.7127  0.5093
 
              Baa    -0.0173    -2.319    -0.827    -0.773 -0.5777 -0.3738  0.7257
    12 C(13)  Bbb     0.0049     0.656     0.234     0.219 -0.1692  0.9245  0.3415
              Bcc     0.0124     1.662     0.593     0.555  0.7985 -0.0745  0.5973
 
              Baa    -0.0082    -1.099    -0.392    -0.366 -0.5254  0.7933 -0.3076
    13 C(13)  Bbb    -0.0067    -0.905    -0.323    -0.302  0.6686  0.6085  0.4274
              Bcc     0.0149     2.004     0.715     0.668 -0.5262 -0.0189  0.8501
 
              Baa    -0.0076    -1.014    -0.362    -0.338 -0.0921  0.7497  0.6553
    14 C(13)  Bbb    -0.0071    -0.956    -0.341    -0.319  0.9092 -0.2050  0.3623
              Bcc     0.0147     1.970     0.703     0.657 -0.4060 -0.6292  0.6628
 
              Baa    -0.0591    -7.931    -2.830    -2.645  0.6315  0.6385  0.4399
    15 C(13)  Bbb     0.0238     3.195     1.140     1.066 -0.2520  0.7056 -0.6623
              Bcc     0.0353     4.735     1.690     1.580  0.7333 -0.3074 -0.6065
 
              Baa    -0.0024    -0.324    -0.115    -0.108  0.4936  0.6854  0.5353
    16 C(13)  Bbb    -0.0004    -0.057    -0.020    -0.019  0.8590 -0.4805 -0.1769
              Bcc     0.0028     0.380     0.136     0.127 -0.1360 -0.5472  0.8259
 
              Baa    -0.1091   -14.645    -5.226    -4.885  0.4382  0.2172  0.8723
    17 C(13)  Bbb     0.0467     6.264     2.235     2.089  0.7741  0.4021 -0.4890
              Bcc     0.0625     8.382     2.991     2.796 -0.4569  0.8895  0.0081
 
              Baa    -0.1367   -18.348    -6.547    -6.120 -0.3733 -0.5453  0.7505
    18 C(13)  Bbb    -0.1290   -17.308    -6.176    -5.773  0.7478 -0.6557 -0.1044
              Bcc     0.2657    35.655    12.723    11.893  0.5490  0.5223  0.6525
 
              Baa    -0.0333    -4.474    -1.596    -1.492  0.1784  0.9788 -0.1003
    19 C(13)  Bbb    -0.0292    -3.921    -1.399    -1.308  0.9451 -0.1989 -0.2594
              Bcc     0.0626     8.395     2.995     2.800  0.2738  0.0485  0.9606
 
              Baa    -0.0298    -3.997    -1.426    -1.333 -0.2104  0.8291  0.5180
    20 C(13)  Bbb    -0.0274    -3.677    -1.312    -1.227  0.9603  0.2745 -0.0493
              Bcc     0.0572     7.674     2.738     2.560  0.1831 -0.4870  0.8540
 
              Baa    -0.0491    -6.590    -2.352    -2.198  0.1733 -0.2096  0.9623
    21 C(13)  Bbb     0.0211     2.836     1.012     0.946 -0.1617  0.9578  0.2377
              Bcc     0.0280     3.755     1.340     1.252  0.9715  0.1968 -0.1320
 
              Baa    -0.0932   -12.505    -4.462    -4.171 -0.5844 -0.0435  0.8103
    22 C(13)  Bbb    -0.0871   -11.690    -4.171    -3.899  0.7188  0.4356  0.5418
              Bcc     0.1803    24.195     8.633     8.071 -0.3765  0.8991 -0.2233
 
              Baa    -0.0611    -8.194    -2.924    -2.733 -0.2945  0.7622 -0.5764
    23 C(13)  Bbb     0.0289     3.879     1.384     1.294  0.7552  0.5552  0.3484
              Bcc     0.0322     4.316     1.540     1.439 -0.5856  0.3327  0.7392
 
              Baa    -0.0305    -4.089    -1.459    -1.364 -0.1686  0.9854  0.0239
    24 C(13)  Bbb     0.0106     1.422     0.507     0.474  0.7095  0.1381 -0.6910
              Bcc     0.0199     2.666     0.951     0.889  0.6842  0.0995  0.7224
 
              Baa    -0.0293    -3.930    -1.402    -1.311 -0.3297  0.6681  0.6670
    25 C(13)  Bbb     0.0142     1.912     0.682     0.638  0.9098  0.0361  0.4135
              Bcc     0.0150     2.018     0.720     0.673  0.2522  0.7432 -0.6197
 
              Baa    -0.0355    -4.765    -1.700    -1.590 -0.6068 -0.4176  0.6763
    26 C(13)  Bbb    -0.0318    -4.267    -1.523    -1.423  0.7880 -0.2043  0.5809
              Bcc     0.0673     9.032     3.223     3.013 -0.1044  0.8854  0.4530
 
              Baa    -0.0135    -1.816    -0.648    -0.606 -0.3920 -0.0412  0.9191
    27 C(13)  Bbb     0.0063     0.839     0.299     0.280 -0.2719  0.9596 -0.0729
              Bcc     0.0073     0.977     0.349     0.326  0.8789  0.2784  0.3873
 
              Baa    -0.0108    -1.451    -0.518    -0.484 -0.1402  0.9423 -0.3040
    28 C(13)  Bbb    -0.0104    -1.391    -0.496    -0.464  0.9433  0.2205  0.2483
              Bcc     0.0212     2.842     1.014     0.948 -0.3010  0.2519  0.9197
 
              Baa    -0.0180    -2.421    -0.864    -0.808 -0.3607 -0.5324  0.7658
    29 C(13)  Bbb     0.0088     1.180     0.421     0.394 -0.0117  0.8236  0.5671
              Bcc     0.0092     1.241     0.443     0.414  0.9326 -0.1956  0.3033
 
              Baa    -0.0058    -0.781    -0.279    -0.260  0.1428  0.9158  0.3755
    30 C(13)  Bbb    -0.0056    -0.749    -0.267    -0.250  0.9584 -0.2226  0.1786
              Bcc     0.0114     1.530     0.546     0.510 -0.2471 -0.3344  0.9095
 
              Baa    -0.0124    -1.658    -0.592    -0.553 -0.3783  0.6857  0.6219
    31 C(13)  Bbb    -0.0111    -1.485    -0.530    -0.495  0.9106  0.1547  0.3833
              Bcc     0.0234     3.144     1.122     1.049  0.1666  0.7113 -0.6828
 
              Baa    -0.0274    -3.675    -1.311    -1.226  0.5479 -0.1954  0.8134
    32 C(13)  Bbb    -0.0258    -3.459    -1.234    -1.154  0.7999 -0.1622 -0.5778
              Bcc     0.0532     7.134     2.546     2.380  0.2448  0.9672  0.0674
 
              Baa    -0.0676    -9.066    -3.235    -3.024  0.3576  0.7729  0.5242
    33 C(13)  Bbb     0.0276     3.706     1.322     1.236 -0.1702 -0.4979  0.8503
              Bcc     0.0399     5.360     1.913     1.788  0.9182 -0.3933 -0.0466
 
              Baa    -0.0470    -6.310    -2.251    -2.105  0.0774  0.9679 -0.2389
    34 C(13)  Bbb     0.0228     3.062     1.093     1.021 -0.2656  0.2510  0.9308
              Bcc     0.0242     3.248     1.159     1.083  0.9610 -0.0086  0.2765
 
              Baa    -0.0688    -9.236    -3.296    -3.081  0.1086  0.3226  0.9403
    35 C(13)  Bbb     0.0331     4.448     1.587     1.484  0.9844 -0.1663 -0.0567
              Bcc     0.0357     4.789     1.709     1.597  0.1381  0.9318 -0.3356
 
              Baa    -0.0881   -11.823    -4.219    -3.944 -0.4406 -0.6197  0.6495
    36 C(13)  Bbb    -0.0834   -11.198    -3.996    -3.735  0.8924 -0.3812  0.2416
              Bcc     0.1716    23.021     8.215     7.679  0.0979  0.6860  0.7210
 
              Baa    -0.0264    -3.539    -1.263    -1.181  0.8985  0.4043  0.1710
    37 C(13)  Bbb    -0.0242    -3.251    -1.160    -1.085 -0.3236  0.8733 -0.3643
              Bcc     0.0506     6.790     2.423     2.265 -0.2966  0.2720  0.9154
 
              Baa    -0.0507    -6.799    -2.426    -2.268  0.9401  0.2733  0.2038
    38 C(13)  Bbb    -0.0497    -6.676    -2.382    -2.227 -0.3185  0.9172  0.2393
              Bcc     0.1004    13.474     4.808     4.495 -0.1215 -0.2898  0.9493
 
              Baa    -0.0331    -4.442    -1.585    -1.482 -0.3253 -0.0408  0.9447
    39 C(13)  Bbb     0.0146     1.965     0.701     0.655  0.8162  0.4925  0.3023
              Bcc     0.0185     2.478     0.884     0.826 -0.4776  0.8694 -0.1269
 
              Baa    -0.0272    -3.650    -1.302    -1.217  0.9771 -0.2126  0.0046
    40 C(13)  Bbb    -0.0257    -3.455    -1.233    -1.152  0.1300  0.6141  0.7785
              Bcc     0.0529     7.105     2.535     2.370  0.1683  0.7601 -0.6277
 
              Baa    -0.0070    -0.941    -0.336    -0.314 -0.5940  0.1684  0.7866
    41 C(13)  Bbb    -0.0056    -0.753    -0.269    -0.251  0.7066 -0.3581  0.6103
              Bcc     0.0126     1.693     0.604     0.565  0.3845  0.9184  0.0938
 
              Baa    -0.0373    -5.003    -1.785    -1.669 -0.3045 -0.5422  0.7831
    42 C(13)  Bbb     0.0169     2.266     0.809     0.756  0.9475 -0.2570  0.1904
              Bcc     0.0204     2.737     0.977     0.913  0.0980  0.8000  0.5920
 
              Baa    -0.0046    -0.613    -0.219    -0.204 -0.4723  0.6303  0.6162
    43 C(13)  Bbb    -0.0024    -0.328    -0.117    -0.110  0.5870 -0.2966  0.7533
              Bcc     0.0070     0.941     0.336     0.314  0.6576  0.7174 -0.2299
 
              Baa    -0.0054    -0.720    -0.257    -0.240  0.2350  0.7769 -0.5841
    44 C(13)  Bbb    -0.0033    -0.441    -0.157    -0.147  0.8414 -0.4634 -0.2779
              Bcc     0.0087     1.161     0.414     0.387  0.4866  0.4262  0.7626
 
              Baa    -0.0055    -0.740    -0.264    -0.247 -0.1418  0.3207  0.9365
    45 C(13)  Bbb     0.0025     0.335     0.119     0.112  0.4303  0.8720 -0.2334
              Bcc     0.0030     0.406     0.145     0.135  0.8915 -0.3699  0.2617
 
              Baa    -0.0121    -1.627    -0.581    -0.543 -0.3518 -0.3448  0.8702
    46 C(13)  Bbb    -0.0111    -1.496    -0.534    -0.499  0.7523 -0.6574  0.0436
              Bcc     0.0233     3.123     1.114     1.042  0.5571  0.6700  0.4907
 
              Baa    -0.0173    -2.323    -0.829    -0.775  0.0280 -0.2669  0.9633
    47 C(13)  Bbb     0.0084     1.123     0.401     0.374  0.0255  0.9636  0.2662
              Bcc     0.0089     1.200     0.428     0.400  0.9993 -0.0171 -0.0338
 
              Baa    -0.0035    -0.467    -0.167    -0.156  0.2411  0.9613 -0.1335
    48 C(13)  Bbb    -0.0023    -0.309    -0.110    -0.103  0.9198 -0.2702 -0.2844
              Bcc     0.0058     0.777     0.277     0.259  0.3094  0.0542  0.9494
 
              Baa    -0.0096    -1.288    -0.460    -0.430 -0.0798  0.7602 -0.6447
    49 C(13)  Bbb     0.0045     0.604     0.216     0.202 -0.3990  0.5684  0.7196
              Bcc     0.0051     0.684     0.244     0.228  0.9135  0.3146  0.2580
 
              Baa    -0.0050    -0.668    -0.238    -0.223 -0.4175  0.6739  0.6096
    50 C(13)  Bbb    -0.0040    -0.535    -0.191    -0.178  0.8316  0.5537 -0.0425
              Bcc     0.0090     1.203     0.429     0.401  0.3662 -0.4892  0.7916
 
              Baa    -0.0399    -5.360    -1.912    -1.788 -0.6174 -0.1227  0.7771
    51 C(13)  Bbb    -0.0355    -4.766    -1.701    -1.590  0.7666  0.1279  0.6292
              Bcc     0.0755    10.126     3.613     3.378 -0.1766  0.9842  0.0150
 
              Baa    -0.0349    -4.690    -1.673    -1.564 -0.1313  0.8734  0.4690
    52 C(13)  Bbb     0.0133     1.785     0.637     0.595  0.6836  0.4224 -0.5952
              Bcc     0.0216     2.905     1.037     0.969  0.7180 -0.2424  0.6525
 
              Baa    -0.0048    -0.641    -0.229    -0.214 -0.5118 -0.5779  0.6357
    53 C(13)  Bbb    -0.0029    -0.389    -0.139    -0.130  0.6302  0.2504  0.7350
              Bcc     0.0077     1.030     0.368     0.344 -0.5839  0.7767  0.2361
 
              Baa    -0.0041    -0.546    -0.195    -0.182 -0.3177  0.5849  0.7463
    54 C(13)  Bbb    -0.0014    -0.192    -0.068    -0.064  0.6172  0.7251 -0.3055
              Bcc     0.0055     0.738     0.263     0.246  0.7199 -0.3635  0.5913
 
              Baa    -0.0048    -0.651    -0.232    -0.217  0.1421  0.9732 -0.1807
    55 C(13)  Bbb    -0.0024    -0.324    -0.116    -0.108  0.6120  0.0571  0.7888
              Bcc     0.0073     0.974     0.348     0.325  0.7780 -0.2227 -0.5875
 
              Baa    -0.0171    -2.295    -0.819    -0.765 -0.4096 -0.2866  0.8661
    56 C(13)  Bbb    -0.0159    -2.135    -0.762    -0.712  0.5399  0.6891  0.4834
              Bcc     0.0330     4.430     1.581     1.478  0.7354 -0.6655  0.1275
 
              Baa    -0.0017    -0.230    -0.082    -0.077  0.2097 -0.5121  0.8329
    57 C(13)  Bbb    -0.0012    -0.165    -0.059    -0.055  0.4806  0.7959  0.3683
              Bcc     0.0029     0.395     0.141     0.132  0.8515 -0.3231 -0.4130
 
              Baa    -0.0030    -0.401    -0.143    -0.134  0.3732 -0.1048  0.9218
    58 C(13)  Bbb    -0.0022    -0.292    -0.104    -0.097 -0.5084  0.8080  0.2977
              Bcc     0.0052     0.693     0.247     0.231  0.7760  0.5797 -0.2483
 
              Baa    -0.0108    -1.446    -0.516    -0.482  0.7596  0.6220 -0.1903
    59 C(13)  Bbb     0.0052     0.704     0.251     0.235  0.3784 -0.1846  0.9070
              Bcc     0.0055     0.743     0.265     0.248 -0.5290  0.7610  0.3756
 
              Baa    -0.0118    -1.584    -0.565    -0.528  0.9096 -0.2069 -0.3602
    60 C(13)  Bbb     0.0058     0.783     0.279     0.261  0.4081  0.2838  0.8677
              Bcc     0.0060     0.801     0.286     0.267  0.0773  0.9363 -0.3426
 
              Baa    -0.0016    -0.209    -0.074    -0.070 -0.4061  0.1223  0.9056
    61 C(13)  Bbb     0.0002     0.028     0.010     0.009  0.0768  0.9921 -0.0996
              Bcc     0.0013     0.181     0.065     0.060  0.9106 -0.0291  0.4122
 
              Baa    -0.0063    -0.846    -0.302    -0.282  0.7049  0.2838 -0.6500
    62 C(13)  Bbb    -0.0053    -0.706    -0.252    -0.235 -0.3069  0.9483  0.0813
              Bcc     0.0116     1.552     0.554     0.518  0.6395  0.1422  0.7556
 
              Baa    -0.0045    -0.597    -0.213    -0.199  0.7236  0.2822 -0.6299
    63 C(13)  Bbb    -0.0033    -0.449    -0.160    -0.150  0.0577  0.8847  0.4626
              Bcc     0.0078     1.046     0.373     0.349  0.6878 -0.3711  0.6239
 
              Baa    -0.0017    -0.222    -0.079    -0.074 -0.3282 -0.6032  0.7270
    64 C(13)  Bbb    -0.0001    -0.012    -0.004    -0.004 -0.4418  0.7782  0.4463
              Bcc     0.0017     0.235     0.084     0.078  0.8349  0.1747  0.5219
 
              Baa    -0.0024    -0.327    -0.117    -0.109  0.9222  0.3740  0.0985
    65 C(13)  Bbb     0.0008     0.106     0.038     0.035  0.0399 -0.3451  0.9377
              Bcc     0.0016     0.221     0.079     0.074 -0.3847  0.8608  0.3332
 
              Baa    -0.0021    -0.278    -0.099    -0.093 -0.2150  0.1709  0.9615
    66 C(13)  Bbb    -0.0013    -0.180    -0.064    -0.060 -0.0405  0.9822 -0.1837
              Bcc     0.0034     0.458     0.164     0.153  0.9758  0.0784  0.2043
 
              Baa    -0.0575    -3.011    -1.074    -1.004  0.0019 -0.3583  0.9336
    67 Cl(35) Bbb    -0.0503    -2.635    -0.940    -0.879 -0.0617  0.9318  0.3577
              Bcc     0.1079     5.646     2.015     1.883  0.9981  0.0583  0.0204
 
              Baa    -0.0188    -0.984    -0.351    -0.328  0.9966 -0.0757  0.0334
    68 Cl(35) Bbb     0.0059     0.310     0.111     0.103  0.0727  0.9937  0.0851
              Bcc     0.0129     0.674     0.241     0.225 -0.0397 -0.0824  0.9958
 
              Baa    -0.0482    -2.523    -0.900    -0.842  0.6470  0.2525  0.7194
    69 Cl(35) Bbb    -0.0421    -2.202    -0.786    -0.735 -0.3604  0.9328 -0.0032
              Bcc     0.0903     4.725     1.686     1.576 -0.6719 -0.2572  0.6945
 
              Baa    -0.0152    -0.794    -0.283    -0.265 -0.1334  0.7076 -0.6939
    70 Cl(35) Bbb    -0.0023    -0.122    -0.043    -0.041 -0.2167  0.6624  0.7171
              Bcc     0.0175     0.916     0.327     0.306  0.9671  0.2460  0.0649
 
              Baa    -0.1875    -9.815    -3.502    -3.274 -0.1891  0.8844  0.4267
    71 Cl(35) Bbb    -0.1634    -8.553    -3.052    -2.853 -0.3313 -0.4665  0.8201
              Bcc     0.3509    18.368     6.554     6.127  0.9244  0.0137  0.3812
 

 ---------------------------------------------------------------------------------

 No NMR shielding tensors so no spin-rotation constants.
 Leave Link  601 at Thu Jul 14 17:30:44 2022, MaxMem=  1342177280 cpu:             108.2 elap:               2.5
 (Enter /home/mkliu/g16/l9999.exe)
 1\1\GINC-NODE06\FOpt\UB3LYP\6-311G(d,p)\C66Cl5(2)\MKLIU\14-Jul-2022\0\
 \#P opt b3lyp/6-311G(d, p) empiricaldispersion=GD3\\force\\0,2\C,-1.34
 47067599,1.8872594965,-3.9436103782\C,0.2157986629,2.2227486876,-3.990
 5760032\C,0.9706435915,0.8571264467,-4.2938063418\C,-1.4806802975,0.33
 01658039,-4.2031842812\C,-0.0860655831,-0.182447539,-4.1805917116\C,-2
 .2439072523,-0.1923702164,-3.0081223334\C,-1.9233422164,2.042630571,-2
 .5613303177\C,-2.6255715434,0.880925775,-2.1718082473\C,-1.4346449742,
 2.9296128058,-1.5817981396\C,0.7596082303,2.6097026655,-2.6404798536\C
 ,0.007098234,3.2416826634,-1.6256686842\C,1.9316260143,0.6858863344,-3
 .1244591816\C,1.8967707925,1.8635817145,-2.3086054986\C,2.2745648875,-
 0.5206224427,-2.5793115547\C,0.1829416819,-1.3729112617,-3.6315704933\
 C,1.5857024667,-1.7615045695,-3.1648921158\C,-1.9961995201,-1.45833497
 9,-2.4373005036\C,-0.8100648938,-2.1207929384,-2.8891964059\C,-2.49500
 0693,-1.7505722585,-1.0937089566\C,-3.0759002961,0.6744461331,-0.83343
 34581\C,-3.0980745977,-0.6761937054,-0.2987555786\C,-2.0616041154,2.87
 29822867,-0.3215896156\C,-2.9410123185,1.7801208089,0.029794624\C,-1.3
 96390454,3.2961214541,0.89165407\C,0.6719801086,3.464723535,-0.4061565
 744\C,-0.0398413124,3.5920251934,0.8522385653\C,2.4625288998,1.8786255
 073,-1.0054394041\C,1.9384243754,2.845143527,-0.1210189279\C,2.9058741
 364,-0.5731997547,-1.2633367353\C,3.0614862897,0.6599460996,-0.4912548
 934\C,2.9220064504,-1.7999684144,-0.5654004724\C,1.2802022844,-2.79285
 31736,-2.1100264531\C,-0.1338011738,-3.0456298665,-2.0523337716\C,2.02
 78298737,-2.8976634487,-0.9758745022\C,-1.9393603278,-2.8540834685,-0.
 4047017044\C,-0.7242311459,-3.4859435663,-0.8684481821\C,-1.92737301,-
 2.9256203493,1.0340009266\C,-3.149643363,-0.8137042228,1.109759693\C,-
 2.5334343964,-1.930981521,1.7797491073\C,-2.8960811036,1.6061111421,1.
 453477562\C,-1.9337968275,2.5423721199,2.0028151554\C,-3.0173288829,0.
 3333992462,1.9835032517\C,-1.1139000386,2.1480652778,3.0549922238\C,0.
 8231619713,3.1439278007,1.9203977088\C,2.0513411278,2.6823590068,1.304
 7505236\C,0.3027307415,2.4576965055,3.0161734842\C,3.2553146435,0.5744
 416901,0.909215057\C,2.7166024906,1.582079119,1.8091968957\C,3.0077503
 116,-1.8471725009,0.8576116095\C,3.1978425589,-0.6802769603,1.59137442
 86\C,1.4639777611,-3.4827444284,0.2217431302\C,0.0991164956,-3.7920736
 626,0.2718084595\C,-0.6569061586,-3.4869248015,1.4630292493\C,2.102992
 907,-2.8752806625,1.3603165165\C,-0.0233712749,-2.9684015506,2.5898232
 032\C,1.3945809127,-2.6576122917,2.5384426543\C,-1.9222327311,-1.45952
 99842,3.0075121301\C,-2.2246084325,-0.0522230163,3.1365636059\C,-1.268
 5507404,0.8281928486,3.6407442831\C,-0.6732546537,-1.9482095011,3.3869
 963546\C,1.0218732738,1.329729245,3.5732594047\C,2.2247694882,0.916055
 0461,2.9987066881\C,2.5227482712,-0.4922447555,2.8630184864\C,1.615678
 0623,-1.4483758519,3.311415524\C,0.0502748909,0.3335466445,3.988621334
 7\C,0.3421718121,-1.0233540495,3.8599350424\Cl,-2.3647077409,2.9135856
 424,-5.0281549087\Cl,0.6477497114,3.576185199,-5.1099231923\Cl,1.85028
 03209,0.7747394191,-5.8852877557\Cl,2.5887043551,-2.5236466348,-4.5175
 030308\Cl,-2.3195201995,-0.1602724785,-5.7648256112\\Version=ES64L-G16
 RevA.03\State=2-A\HF=-4816.5327638\S2=0.800307\S2-1=0.\S2A=0.752377\RM
 SD=5.573e-09\RMSF=2.437e-05\Dipole=-0.2039387,-0.0191273,1.9730699\Qua
 drupole=4.0161268,4.5018394,-8.5179662,1.9035239,0.5644669,0.7380442\P
 G=C01 [X(C66Cl5)]\\@


 ABSOLUTISM, OBSOLETISM -- IF IT WORKS, IT'S OUT OF DATE

                          -- STAFFORD BEER
 Job cpu time:       4 days  4 hours 59 minutes 52.9 seconds.
 Elapsed time:       0 days  2 hours  6 minutes 27.0 seconds.
 File lengths (MBytes):  RWF=   1887 Int=      0 D2E=      0 Chk=    170 Scr=      1
 Normal termination of Gaussian 16 at Thu Jul 14 17:30:45 2022.
