 Entering Gaussian System, Link 0=g16
 Input=dqwu8zekdbs3k_addon_5.gjf
 Output=dqwu8zekdbs3k_addon_5.log
 Initial command:
 /home/mkliu/g16/l1.exe "/data/scratch/Gau-70380.inp" -scrdir="/data/scratch/"
 Entering Link 1 = /home/mkliu/g16/l1.exe PID=     70381.
  
 Copyright (c) 1988,1990,1992,1993,1995,1998,2003,2009,2016,
            Gaussian, Inc.  All Rights Reserved.
  
 This is part of the Gaussian(R) 16 program.  It is based on
 the Gaussian(R) 09 system (copyright 2009, Gaussian, Inc.),
 the Gaussian(R) 03 system (copyright 2003, Gaussian, Inc.),
 the Gaussian(R) 98 system (copyright 1998, Gaussian, Inc.),
 the Gaussian(R) 94 system (copyright 1995, Gaussian, Inc.),
 the Gaussian 92(TM) system (copyright 1992, Gaussian, Inc.),
 the Gaussian 90(TM) system (copyright 1990, Gaussian, Inc.),
 the Gaussian 88(TM) system (copyright 1988, Gaussian, Inc.),
 the Gaussian 86(TM) system (copyright 1986, Carnegie Mellon
 University), and the Gaussian 82(TM) system (copyright 1983,
 Carnegie Mellon University). Gaussian is a federally registered
 trademark of Gaussian, Inc.
  
 This software contains proprietary and confidential information,
 including trade secrets, belonging to Gaussian, Inc.
  
 This software is provided under written license and may be
 used, copied, transmitted, or stored only in accord with that
 written license.
  
 The following legend is applicable only to US Government
 contracts under FAR:
  
                    RESTRICTED RIGHTS LEGEND
  
 Use, reproduction and disclosure by the US Government is
 subject to restrictions as set forth in subparagraphs (a)
 and (c) of the Commercial Computer Software - Restricted
 Rights clause in FAR 52.227-19.
  
 Gaussian, Inc.
 340 Quinnipiac St., Bldg. 40, Wallingford CT 06492
  
  
 ---------------------------------------------------------------
 Warning -- This program may not be used in any manner that
 competes with the business of Gaussian, Inc. or will provide
 assistance to any competitor of Gaussian, Inc.  The licensee
 of this program is prohibited from giving any competitor of
 Gaussian, Inc. access to this program.  By using this program,
 the user acknowledges that Gaussian, Inc. is engaged in the
 business of creating and licensing software in the field of
 computational chemistry and represents and warrants to the
 licensee that it is not a competitor of Gaussian, Inc. and that
 it will not use this program in any manner prohibited above.
 ---------------------------------------------------------------
  

 Cite this work as:
 Gaussian 16, Revision A.03,
 M. J. Frisch, G. W. Trucks, H. B. Schlegel, G. E. Scuseria, 
 M. A. Robb, J. R. Cheeseman, G. Scalmani, V. Barone, 
 G. A. Petersson, H. Nakatsuji, X. Li, M. Caricato, A. V. Marenich, 
 J. Bloino, B. G. Janesko, R. Gomperts, B. Mennucci, H. P. Hratchian, 
 J. V. Ortiz, A. F. Izmaylov, J. L. Sonnenberg, D. Williams-Young, 
 F. Ding, F. Lipparini, F. Egidi, J. Goings, B. Peng, A. Petrone, 
 T. Henderson, D. Ranasinghe, V. G. Zakrzewski, J. Gao, N. Rega, 
 G. Zheng, W. Liang, M. Hada, M. Ehara, K. Toyota, R. Fukuda, 
 J. Hasegawa, M. Ishida, T. Nakajima, Y. Honda, O. Kitao, H. Nakai, 
 T. Vreven, K. Throssell, J. A. Montgomery, Jr., J. E. Peralta, 
 F. Ogliaro, M. J. Bearpark, J. J. Heyd, E. N. Brothers, K. N. Kudin, 
 V. N. Staroverov, T. A. Keith, R. Kobayashi, J. Normand, 
 K. Raghavachari, A. P. Rendell, J. C. Burant, S. S. Iyengar, 
 J. Tomasi, M. Cossi, J. M. Millam, M. Klene, C. Adamo, R. Cammi, 
 J. W. Ochterski, R. L. Martin, K. Morokuma, O. Farkas, 
 J. B. Foresman, and D. J. Fox, Gaussian, Inc., Wallingford CT, 2016.
 
 ******************************************
 Gaussian 16:  ES64L-G16RevA.03 25-Dec-2016
                16-Jul-2022 
 ******************************************
 %mem=10GB
 %chk=dqwu8zekdbs3k_addon_5.chk
 %nprocshared=48
 Will use up to   48 processors via shared memory.
 -------------------------------------------------
 #P opt b3lyp/6-311G(d, p) empiricaldispersion=GD3
 -------------------------------------------------
 1/18=20,19=15,26=3,38=1/1,3;
 2/9=110,12=2,17=6,18=5,40=1/2;
 3/5=4,6=6,7=101,11=2,25=1,30=1,71=1,74=-5,124=31/1,2,3;
 4//1;
 5/5=2,38=5/2;
 6/7=2,8=2,9=2,10=2,28=1/1;
 7//1,2,3,16;
 1/18=20,19=15,26=3/3(2);
 2/9=110/2;
 99//99;
 2/9=110/2;
 3/5=4,6=6,7=101,11=2,25=1,30=1,71=1,74=-5,124=31/1,2,3;
 4/5=5,16=3,69=1/1;
 5/5=2,38=5/2;
 7//1,2,3,16;
 1/18=20,19=15,26=3/3(-5);
 2/9=110/2;
 6/7=2,8=2,9=2,10=2,19=2,28=1/1;
 99/9=1/99;
 Leave Link    1 at Sat Jul 16 14:36:21 2022, MaxMem=  1342177280 cpu:               2.0 elap:               0.0
 (Enter /home/mkliu/g16/l101.exe)
 -----
 force
 -----
 Symbolic Z-matrix:
 Charge =  0 Multiplicity = 2
 C                    -1.35264   1.89203  -3.95123 
 C                     0.18052   2.2184   -3.98604 
 C                     0.97419   0.90362  -4.29642 
 C                    -1.27428   0.42186  -3.83403 
 C                    -0.0641   -0.14452  -4.11382 
 C                    -2.13337  -0.11351  -2.87374 
 C                    -2.20719   2.27434  -2.70323 
 C                    -2.69372   0.93733  -2.14375 
 C                    -1.45771   2.92439  -1.57402 
 C                     0.68048   2.52339  -2.62801 
 C                    -0.04877   3.15739  -1.61222 
 C                     1.89824   0.66873  -3.11714 
 C                     1.81717   1.80707  -2.27079 
 C                     2.24723  -0.54147  -2.57963 
 C                     0.21755  -1.38995  -3.59202 
 C                     1.61968  -1.79441  -3.17043 
 C                    -1.91403  -1.40174  -2.34865 
 C                    -0.74447  -2.05146  -2.81568 
 C                    -2.46326  -1.71368  -1.06572 
 C                    -3.09385   0.71382  -0.83277 
 C                    -3.06096  -0.64425  -0.30066 
 C                    -2.0603    2.87537  -0.33045 
 C                    -2.97608   1.81752   0.04837 
 C                    -1.38072   3.27428   0.87724 
 C                     0.64246   3.3853   -0.40643 
 C                    -0.03465   3.55016   0.83539 
 C                     2.41062   1.80813  -0.99792 
 C                     1.88961   2.76706  -0.12763 
 C                     2.89446  -0.6063   -1.27309 
 C                     3.02335   0.60316  -0.50709 
 C                     2.91338  -1.82101  -0.57468 
 C                     1.31202  -2.81491  -2.11915 
 C                    -0.09179  -3.03674  -2.01754 
 C                     2.046    -2.92468  -0.98007 
 C                    -1.90872  -2.82931  -0.39828 
 C                    -0.70302  -3.46294  -0.85645 
 C                    -1.9127   -2.90641   1.03077 
 C                    -3.12632  -0.78544   1.09096 
 C                    -2.51566  -1.90558   1.75845 
 C                    -2.89362   1.62301   1.44125 
 C                    -1.92337   2.54371   1.98687 
 C                    -3.00622   0.34234   1.97126 
 C                    -1.10463   2.13495   3.02378 
 C                     0.82762   3.11298   1.90055 
 C                     2.03217   2.6307    1.28399 
 C                     0.30797   2.43412   2.98355 
 C                     3.23027   0.53286   0.8867 
 C                     2.70812   1.53634   1.77901 
 C                     3.00187  -1.87243   0.84479 
 C                     3.18372  -0.7116    1.57499 
 C                     1.4688   -3.49386   0.20876 
 C                     0.11353  -3.78308   0.27442 
 C                    -0.65323  -3.46964   1.44601 
 C                     2.10387  -2.88573   1.34165 
 C                    -0.02019  -2.9507    2.56155 
 C                     1.38755  -2.65136   2.50462 
 C                    -1.91175  -1.44511   2.9782 
 C                    -2.21253  -0.0428    3.10319 
 C                    -1.25444   0.82451   3.60557 
 C                    -0.66728  -1.93101   3.34172 
 C                     1.02302   1.30827   3.5254 
 C                     2.21783   0.88909   2.96292 
 C                     2.51447  -0.51197   2.83351 
 C                     1.6039   -1.45151   3.27251 
 C                     0.05412   0.32672   3.94031 
 C                     0.34343  -1.02285   3.81512 
 Cl                   -2.11896   2.39702  -5.48627 
 Cl                    0.52432   3.61249  -5.04825 
 Cl                    1.81629   0.79935  -5.84973 
 Cl                    2.65267  -2.40944  -4.50995 
 Cl                   -3.63371   3.31075  -3.08654 
 
 ITRead=  0  0  0  0  0  0  0  0  0  0  0  0  0  0  0  0  0  0  0  0
 ITRead=  0  0  0  0  0  0  0  0  0  0  0  0  0  0  0  0  0  0  0  0
 ITRead=  0  0  0  0  0  0  0  0  0  0  0  0  0  0  0  0  0  0  0  0
 ITRead=  0  0  0  0  0  0  0  0  0  0  0
 MicOpt= -1 -1 -1 -1 -1 -1 -1 -1 -1 -1 -1 -1 -1 -1 -1 -1 -1 -1 -1 -1
 MicOpt= -1 -1 -1 -1 -1 -1 -1 -1 -1 -1 -1 -1 -1 -1 -1 -1 -1 -1 -1 -1
 MicOpt= -1 -1 -1 -1 -1 -1 -1 -1 -1 -1 -1 -1 -1 -1 -1 -1 -1 -1 -1 -1
 MicOpt= -1 -1 -1 -1 -1 -1 -1 -1 -1 -1 -1
 NAtoms=     71 NQM=       71 NQMF=       0 NMMI=      0 NMMIF=      0
                NMic=       0 NMicF=      0.
                    Isotopes and Nuclear Properties:
 (Nuclear quadrupole moments (NQMom) in fm**2, nuclear magnetic moments (NMagM)
  in nuclear magnetons)

  Atom         1           2           3           4           5           6           7           8           9          10
 IAtWgt=          12          12          12          12          12          12          12          12          12          12
 AtmWgt=  12.0000000  12.0000000  12.0000000  12.0000000  12.0000000  12.0000000  12.0000000  12.0000000  12.0000000  12.0000000
 NucSpn=           0           0           0           0           0           0           0           0           0           0
 AtZEff=  -0.0000000  -0.0000000  -0.0000000  -0.0000000  -0.0000000  -0.0000000  -0.0000000  -0.0000000  -0.0000000  -0.0000000
 NQMom=    0.0000000   0.0000000   0.0000000   0.0000000   0.0000000   0.0000000   0.0000000   0.0000000   0.0000000   0.0000000
 NMagM=    0.0000000   0.0000000   0.0000000   0.0000000   0.0000000   0.0000000   0.0000000   0.0000000   0.0000000   0.0000000
 AtZNuc=   6.0000000   6.0000000   6.0000000   6.0000000   6.0000000   6.0000000   6.0000000   6.0000000   6.0000000   6.0000000

  Atom        11          12          13          14          15          16          17          18          19          20
 IAtWgt=          12          12          12          12          12          12          12          12          12          12
 AtmWgt=  12.0000000  12.0000000  12.0000000  12.0000000  12.0000000  12.0000000  12.0000000  12.0000000  12.0000000  12.0000000
 NucSpn=           0           0           0           0           0           0           0           0           0           0
 AtZEff=  -0.0000000  -0.0000000  -0.0000000  -0.0000000  -0.0000000  -0.0000000  -0.0000000  -0.0000000  -0.0000000  -0.0000000
 NQMom=    0.0000000   0.0000000   0.0000000   0.0000000   0.0000000   0.0000000   0.0000000   0.0000000   0.0000000   0.0000000
 NMagM=    0.0000000   0.0000000   0.0000000   0.0000000   0.0000000   0.0000000   0.0000000   0.0000000   0.0000000   0.0000000
 AtZNuc=   6.0000000   6.0000000   6.0000000   6.0000000   6.0000000   6.0000000   6.0000000   6.0000000   6.0000000   6.0000000

  Atom        21          22          23          24          25          26          27          28          29          30
 IAtWgt=          12          12          12          12          12          12          12          12          12          12
 AtmWgt=  12.0000000  12.0000000  12.0000000  12.0000000  12.0000000  12.0000000  12.0000000  12.0000000  12.0000000  12.0000000
 NucSpn=           0           0           0           0           0           0           0           0           0           0
 AtZEff=  -0.0000000  -0.0000000  -0.0000000  -0.0000000  -0.0000000  -0.0000000  -0.0000000  -0.0000000  -0.0000000  -0.0000000
 NQMom=    0.0000000   0.0000000   0.0000000   0.0000000   0.0000000   0.0000000   0.0000000   0.0000000   0.0000000   0.0000000
 NMagM=    0.0000000   0.0000000   0.0000000   0.0000000   0.0000000   0.0000000   0.0000000   0.0000000   0.0000000   0.0000000
 AtZNuc=   6.0000000   6.0000000   6.0000000   6.0000000   6.0000000   6.0000000   6.0000000   6.0000000   6.0000000   6.0000000

  Atom        31          32          33          34          35          36          37          38          39          40
 IAtWgt=          12          12          12          12          12          12          12          12          12          12
 AtmWgt=  12.0000000  12.0000000  12.0000000  12.0000000  12.0000000  12.0000000  12.0000000  12.0000000  12.0000000  12.0000000
 NucSpn=           0           0           0           0           0           0           0           0           0           0
 AtZEff=  -0.0000000  -0.0000000  -0.0000000  -0.0000000  -0.0000000  -0.0000000  -0.0000000  -0.0000000  -0.0000000  -0.0000000
 NQMom=    0.0000000   0.0000000   0.0000000   0.0000000   0.0000000   0.0000000   0.0000000   0.0000000   0.0000000   0.0000000
 NMagM=    0.0000000   0.0000000   0.0000000   0.0000000   0.0000000   0.0000000   0.0000000   0.0000000   0.0000000   0.0000000
 AtZNuc=   6.0000000   6.0000000   6.0000000   6.0000000   6.0000000   6.0000000   6.0000000   6.0000000   6.0000000   6.0000000

  Atom        41          42          43          44          45          46          47          48          49          50
 IAtWgt=          12          12          12          12          12          12          12          12          12          12
 AtmWgt=  12.0000000  12.0000000  12.0000000  12.0000000  12.0000000  12.0000000  12.0000000  12.0000000  12.0000000  12.0000000
 NucSpn=           0           0           0           0           0           0           0           0           0           0
 AtZEff=  -0.0000000  -0.0000000  -0.0000000  -0.0000000  -0.0000000  -0.0000000  -0.0000000  -0.0000000  -0.0000000  -0.0000000
 NQMom=    0.0000000   0.0000000   0.0000000   0.0000000   0.0000000   0.0000000   0.0000000   0.0000000   0.0000000   0.0000000
 NMagM=    0.0000000   0.0000000   0.0000000   0.0000000   0.0000000   0.0000000   0.0000000   0.0000000   0.0000000   0.0000000
 AtZNuc=   6.0000000   6.0000000   6.0000000   6.0000000   6.0000000   6.0000000   6.0000000   6.0000000   6.0000000   6.0000000

  Atom        51          52          53          54          55          56          57          58          59          60
 IAtWgt=          12          12          12          12          12          12          12          12          12          12
 AtmWgt=  12.0000000  12.0000000  12.0000000  12.0000000  12.0000000  12.0000000  12.0000000  12.0000000  12.0000000  12.0000000
 NucSpn=           0           0           0           0           0           0           0           0           0           0
 AtZEff=  -0.0000000  -0.0000000  -0.0000000  -0.0000000  -0.0000000  -0.0000000  -0.0000000  -0.0000000  -0.0000000  -0.0000000
 NQMom=    0.0000000   0.0000000   0.0000000   0.0000000   0.0000000   0.0000000   0.0000000   0.0000000   0.0000000   0.0000000
 NMagM=    0.0000000   0.0000000   0.0000000   0.0000000   0.0000000   0.0000000   0.0000000   0.0000000   0.0000000   0.0000000
 AtZNuc=   6.0000000   6.0000000   6.0000000   6.0000000   6.0000000   6.0000000   6.0000000   6.0000000   6.0000000   6.0000000

  Atom        61          62          63          64          65          66          67          68          69          70
 IAtWgt=          12          12          12          12          12          12          35          35          35          35
 AtmWgt=  12.0000000  12.0000000  12.0000000  12.0000000  12.0000000  12.0000000  34.9688527  34.9688527  34.9688527  34.9688527
 NucSpn=           0           0           0           0           0           0           3           3           3           3
 AtZEff=  -0.0000000  -0.0000000  -0.0000000  -0.0000000  -0.0000000  -0.0000000  -0.0000000  -0.0000000  -0.0000000  -0.0000000
 NQMom=    0.0000000   0.0000000   0.0000000   0.0000000   0.0000000   0.0000000  -8.1650000  -8.1650000  -8.1650000  -8.1650000
 NMagM=    0.0000000   0.0000000   0.0000000   0.0000000   0.0000000   0.0000000   0.8218740   0.8218740   0.8218740   0.8218740
 AtZNuc=   6.0000000   6.0000000   6.0000000   6.0000000   6.0000000   6.0000000  17.0000000  17.0000000  17.0000000  17.0000000

  Atom        71
 IAtWgt=          35
 AtmWgt=  34.9688527
 NucSpn=           3
 AtZEff=  -0.0000000
 NQMom=   -8.1650000
 NMagM=    0.8218740
 AtZNuc=  17.0000000
 Leave Link  101 at Sat Jul 16 14:36:21 2022, MaxMem=  1342177280 cpu:              19.5 elap:               0.4
 (Enter /home/mkliu/g16/l103.exe)

 GradGradGradGradGradGradGradGradGradGradGradGradGradGradGradGradGradGrad
 Berny optimization.
 Initialization pass.
                           ----------------------------
                           !    Initial Parameters    !
                           ! (Angstroms and Degrees)  !
 --------------------------                            --------------------------
 ! Name  Definition              Value          Derivative Info.                !
 --------------------------------------------------------------------------------
 ! R1    R(1,2)                  1.5679         estimate D2E/DX2                !
 ! R2    R(1,4)                  1.4769         estimate D2E/DX2                !
 ! R3    R(1,7)                  1.5601         estimate D2E/DX2                !
 ! R4    R(1,67)                 1.7885         estimate D2E/DX2                !
 ! R5    R(2,3)                  1.5668         estimate D2E/DX2                !
 ! R6    R(2,10)                 1.4789         estimate D2E/DX2                !
 ! R7    R(2,68)                 1.7861         estimate D2E/DX2                !
 ! R8    R(3,5)                  1.4866         estimate D2E/DX2                !
 ! R9    R(3,12)                 1.5165         estimate D2E/DX2                !
 ! R10   R(3,69)                 1.77           estimate D2E/DX2                !
 ! R11   R(4,5)                  1.3651         estimate D2E/DX2                !
 ! R12   R(4,6)                  1.3953         estimate D2E/DX2                !
 ! R13   R(5,15)                 1.3794         estimate D2E/DX2                !
 ! R14   R(6,8)                  1.3968         estimate D2E/DX2                !
 ! R15   R(6,17)                 1.4083         estimate D2E/DX2                !
 ! R16   R(7,8)                  1.5288         estimate D2E/DX2                !
 ! R17   R(7,9)                  1.5031         estimate D2E/DX2                !
 ! R18   R(7,71)                 1.8044         estimate D2E/DX2                !
 ! R19   R(8,20)                 1.3888         estimate D2E/DX2                !
 ! R20   R(9,11)                 1.4286         estimate D2E/DX2                !
 ! R21   R(9,22)                 1.3827         estimate D2E/DX2                !
 ! R22   R(10,11)                1.402          estimate D2E/DX2                !
 ! R23   R(10,13)                1.3902         estimate D2E/DX2                !
 ! R24   R(11,25)                1.4084         estimate D2E/DX2                !
 ! R25   R(12,13)                1.4208         estimate D2E/DX2                !
 ! R26   R(12,14)                1.3694         estimate D2E/DX2                !
 ! R27   R(13,27)                1.4044         estimate D2E/DX2                !
 ! R28   R(14,16)                1.5208         estimate D2E/DX2                !
 ! R29   R(14,29)                1.4595         estimate D2E/DX2                !
 ! R30   R(15,16)                1.519          estimate D2E/DX2                !
 ! R31   R(15,18)                1.4021         estimate D2E/DX2                !
 ! R32   R(16,32)                1.4971         estimate D2E/DX2                !
 ! R33   R(16,70)                1.7999         estimate D2E/DX2                !
 ! R34   R(17,18)                1.4171         estimate D2E/DX2                !
 ! R35   R(17,19)                1.43           estimate D2E/DX2                !
 ! R36   R(18,33)                1.4261         estimate D2E/DX2                !
 ! R37   R(19,21)                1.4444         estimate D2E/DX2                !
 ! R38   R(19,35)                1.4134         estimate D2E/DX2                !
 ! R39   R(20,21)                1.459          estimate D2E/DX2                !
 ! R40   R(20,23)                1.4172         estimate D2E/DX2                !
 ! R41   R(21,38)                1.4003         estimate D2E/DX2                !
 ! R42   R(22,23)                1.4496         estimate D2E/DX2                !
 ! R43   R(22,24)                1.442          estimate D2E/DX2                !
 ! R44   R(23,40)                1.4088         estimate D2E/DX2                !
 ! R45   R(24,26)                1.3747         estimate D2E/DX2                !
 ! R46   R(24,41)                1.4351         estimate D2E/DX2                !
 ! R47   R(25,26)                1.424          estimate D2E/DX2                !
 ! R48   R(25,28)                1.4196         estimate D2E/DX2                !
 ! R49   R(26,44)                1.4385         estimate D2E/DX2                !
 ! R50   R(27,28)                1.3959         estimate D2E/DX2                !
 ! R51   R(27,30)                1.4382         estimate D2E/DX2                !
 ! R52   R(28,45)                1.4253         estimate D2E/DX2                !
 ! R53   R(29,30)                1.4374         estimate D2E/DX2                !
 ! R54   R(29,31)                1.4013         estimate D2E/DX2                !
 ! R55   R(30,47)                1.4108         estimate D2E/DX2                !
 ! R56   R(31,34)                1.4611         estimate D2E/DX2                !
 ! R57   R(31,49)                1.4232         estimate D2E/DX2                !
 ! R58   R(32,33)                1.4249         estimate D2E/DX2                !
 ! R59   R(32,34)                1.3595         estimate D2E/DX2                !
 ! R60   R(33,36)                1.3796         estimate D2E/DX2                !
 ! R61   R(34,51)                1.4389         estimate D2E/DX2                !
 ! R62   R(35,36)                1.4371         estimate D2E/DX2                !
 ! R63   R(35,37)                1.4311         estimate D2E/DX2                !
 ! R64   R(36,52)                1.4311         estimate D2E/DX2                !
 ! R65   R(37,39)                1.3765         estimate D2E/DX2                !
 ! R66   R(37,53)                1.4408         estimate D2E/DX2                !
 ! R67   R(38,39)                1.4398         estimate D2E/DX2                !
 ! R68   R(38,42)                1.4357         estimate D2E/DX2                !
 ! R69   R(39,57)                1.4368         estimate D2E/DX2                !
 ! R70   R(40,41)                1.4446         estimate D2E/DX2                !
 ! R71   R(40,42)                1.3906         estimate D2E/DX2                !
 ! R72   R(41,43)                1.383          estimate D2E/DX2                !
 ! R73   R(42,58)                1.4351         estimate D2E/DX2                !
 ! R74   R(43,46)                1.4445         estimate D2E/DX2                !
 ! R75   R(43,59)                1.4416         estimate D2E/DX2                !
 ! R76   R(44,45)                1.4365         estimate D2E/DX2                !
 ! R77   R(44,46)                1.3798         estimate D2E/DX2                !
 ! R78   R(45,48)                1.3783         estimate D2E/DX2                !
 ! R79   R(46,61)                1.4396         estimate D2E/DX2                !
 ! R80   R(47,48)                1.4408         estimate D2E/DX2                !
 ! R81   R(47,50)                1.4229         estimate D2E/DX2                !
 ! R82   R(48,62)                1.4356         estimate D2E/DX2                !
 ! R83   R(49,50)                1.3834         estimate D2E/DX2                !
 ! R84   R(49,54)                1.4422         estimate D2E/DX2                !
 ! R85   R(50,63)                1.4393         estimate D2E/DX2                !
 ! R86   R(51,52)                1.3873         estimate D2E/DX2                !
 ! R87   R(51,54)                1.4341         estimate D2E/DX2                !
 ! R88   R(52,53)                1.4348         estimate D2E/DX2                !
 ! R89   R(53,55)                1.3836         estimate D2E/DX2                !
 ! R90   R(54,56)                1.3858         estimate D2E/DX2                !
 ! R91   R(55,56)                1.4403         estimate D2E/DX2                !
 ! R92   R(55,60)                1.4378         estimate D2E/DX2                !
 ! R93   R(56,64)                1.4409         estimate D2E/DX2                !
 ! R94   R(57,58)                1.4396         estimate D2E/DX2                !
 ! R95   R(57,60)                1.3845         estimate D2E/DX2                !
 ! R96   R(58,59)                1.3866         estimate D2E/DX2                !
 ! R97   R(59,65)                1.4395         estimate D2E/DX2                !
 ! R98   R(60,66)                1.4389         estimate D2E/DX2                !
 ! R99   R(61,62)                1.3855         estimate D2E/DX2                !
 ! R100  R(61,65)                1.4403         estimate D2E/DX2                !
 ! R101  R(62,63)                1.438          estimate D2E/DX2                !
 ! R102  R(63,64)                1.3801         estimate D2E/DX2                !
 ! R103  R(64,66)                1.4377         estimate D2E/DX2                !
 ! R104  R(65,66)                1.3859         estimate D2E/DX2                !
 ! A1    A(2,1,4)               99.038          estimate D2E/DX2                !
 ! A2    A(2,1,7)              120.1564         estimate D2E/DX2                !
 ! A3    A(2,1,67)             109.9473         estimate D2E/DX2                !
 ! A4    A(4,1,7)              102.094          estimate D2E/DX2                !
 ! A5    A(4,1,67)             111.8339         estimate D2E/DX2                !
 ! A6    A(7,1,67)             112.5012         estimate D2E/DX2                !
 ! A7    A(1,2,3)              108.9684         estimate D2E/DX2                !
 ! A8    A(1,2,10)             110.6776         estimate D2E/DX2                !
 ! A9    A(1,2,68)             111.34           estimate D2E/DX2                !
 ! A10   A(3,2,10)             100.5859         estimate D2E/DX2                !
 ! A11   A(3,2,68)             116.083          estimate D2E/DX2                !
 ! A12   A(10,2,68)            108.6675         estimate D2E/DX2                !
 ! A13   A(2,3,5)              102.3289         estimate D2E/DX2                !
 ! A14   A(2,3,12)             106.5341         estimate D2E/DX2                !
 ! A15   A(2,3,69)             117.6638         estimate D2E/DX2                !
 ! A16   A(5,3,12)             102.7597         estimate D2E/DX2                !
 ! A17   A(5,3,69)             113.488          estimate D2E/DX2                !
 ! A18   A(12,3,69)            112.5454         estimate D2E/DX2                !
 ! A19   A(1,4,5)              116.3442         estimate D2E/DX2                !
 ! A20   A(1,4,6)              113.8221         estimate D2E/DX2                !
 ! A21   A(5,4,6)              121.849          estimate D2E/DX2                !
 ! A22   A(3,5,4)              110.598          estimate D2E/DX2                !
 ! A23   A(3,5,15)             122.7137         estimate D2E/DX2                !
 ! A24   A(4,5,15)             118.5599         estimate D2E/DX2                !
 ! A25   A(4,6,8)              108.5428         estimate D2E/DX2                !
 ! A26   A(4,6,17)             120.7771         estimate D2E/DX2                !
 ! A27   A(8,6,17)             123.7643         estimate D2E/DX2                !
 ! A28   A(1,7,8)              104.6402         estimate D2E/DX2                !
 ! A29   A(1,7,9)              115.7098         estimate D2E/DX2                !
 ! A30   A(1,7,71)             113.8191         estimate D2E/DX2                !
 ! A31   A(8,7,9)              105.1863         estimate D2E/DX2                !
 ! A32   A(8,7,71)             109.1755         estimate D2E/DX2                !
 ! A33   A(9,7,71)             107.7804         estimate D2E/DX2                !
 ! A34   A(6,8,7)              109.8162         estimate D2E/DX2                !
 ! A35   A(6,8,20)             119.198          estimate D2E/DX2                !
 ! A36   A(7,8,20)             125.302          estimate D2E/DX2                !
 ! A37   A(7,9,11)             122.8334         estimate D2E/DX2                !
 ! A38   A(7,9,22)             116.2953         estimate D2E/DX2                !
 ! A39   A(11,9,22)            117.3636         estimate D2E/DX2                !
 ! A40   A(2,10,11)            125.6421         estimate D2E/DX2                !
 ! A41   A(2,10,13)            113.9593         estimate D2E/DX2                !
 ! A42   A(11,10,13)           118.1722         estimate D2E/DX2                !
 ! A43   A(9,11,10)            117.298          estimate D2E/DX2                !
 ! A44   A(9,11,25)            119.1783         estimate D2E/DX2                !
 ! A45   A(10,11,25)           115.9881         estimate D2E/DX2                !
 ! A46   A(3,12,13)            107.7196         estimate D2E/DX2                !
 ! A47   A(3,12,14)            126.6835         estimate D2E/DX2                !
 ! A48   A(13,12,14)           119.2598         estimate D2E/DX2                !
 ! A49   A(10,13,12)           107.8429         estimate D2E/DX2                !
 ! A50   A(10,13,27)           125.3085         estimate D2E/DX2                !
 ! A51   A(12,13,27)           121.0898         estimate D2E/DX2                !
 ! A52   A(12,14,16)           118.0638         estimate D2E/DX2                !
 ! A53   A(12,14,29)           120.2412         estimate D2E/DX2                !
 ! A54   A(16,14,29)           119.6151         estimate D2E/DX2                !
 ! A55   A(5,15,16)            122.2681         estimate D2E/DX2                !
 ! A56   A(5,15,18)            119.693          estimate D2E/DX2                !
 ! A57   A(16,15,18)           110.7354         estimate D2E/DX2                !
 ! A58   A(14,16,15)           105.6261         estimate D2E/DX2                !
 ! A59   A(14,16,32)           111.9384         estimate D2E/DX2                !
 ! A60   A(14,16,70)           109.5009         estimate D2E/DX2                !
 ! A61   A(15,16,32)           100.7607         estimate D2E/DX2                !
 ! A62   A(15,16,70)           114.4683         estimate D2E/DX2                !
 ! A63   A(32,16,70)           114.0556         estimate D2E/DX2                !
 ! A64   A(6,17,18)            115.1542         estimate D2E/DX2                !
 ! A65   A(6,17,19)            118.3093         estimate D2E/DX2                !
 ! A66   A(18,17,19)           120.8404         estimate D2E/DX2                !
 ! A67   A(15,18,17)           122.1719         estimate D2E/DX2                !
 ! A68   A(15,18,33)           108.7741         estimate D2E/DX2                !
 ! A69   A(17,18,33)           120.6665         estimate D2E/DX2                !
 ! A70   A(17,19,21)           118.2048         estimate D2E/DX2                !
 ! A71   A(17,19,35)           116.434          estimate D2E/DX2                !
 ! A72   A(21,19,35)           119.7794         estimate D2E/DX2                !
 ! A73   A(8,20,21)            119.1828         estimate D2E/DX2                !
 ! A74   A(8,20,23)            115.9531         estimate D2E/DX2                !
 ! A75   A(21,20,23)           119.7557         estimate D2E/DX2                !
 ! A76   A(19,21,20)           120.3546         estimate D2E/DX2                !
 ! A77   A(19,21,38)           118.1028         estimate D2E/DX2                !
 ! A78   A(20,21,38)           117.0819         estimate D2E/DX2                !
 ! A79   A(9,22,23)            122.4273         estimate D2E/DX2                !
 ! A80   A(9,22,24)            122.5481         estimate D2E/DX2                !
 ! A81   A(23,22,24)           106.3045         estimate D2E/DX2                !
 ! A82   A(20,23,22)           117.2811         estimate D2E/DX2                !
 ! A83   A(20,23,40)           120.801          estimate D2E/DX2                !
 ! A84   A(22,23,40)           108.7935         estimate D2E/DX2                !
 ! A85   A(22,24,26)           119.4373         estimate D2E/DX2                !
 ! A86   A(22,24,41)           109.1795         estimate D2E/DX2                !
 ! A87   A(26,24,41)           119.7334         estimate D2E/DX2                !
 ! A88   A(11,25,26)           122.1382         estimate D2E/DX2                !
 ! A89   A(11,25,28)           121.9259         estimate D2E/DX2                !
 ! A90   A(26,25,28)           107.2704         estimate D2E/DX2                !
 ! A91   A(24,26,25)           117.9641         estimate D2E/DX2                !
 ! A92   A(24,26,44)           120.2264         estimate D2E/DX2                !
 ! A93   A(25,26,44)           108.9975         estimate D2E/DX2                !
 ! A94   A(13,27,28)           114.0723         estimate D2E/DX2                !
 ! A95   A(13,27,30)           119.2564         estimate D2E/DX2                !
 ! A96   A(28,27,30)           121.455          estimate D2E/DX2                !
 ! A97   A(25,28,27)           120.307          estimate D2E/DX2                !
 ! A98   A(25,28,45)           108.9069         estimate D2E/DX2                !
 ! A99   A(27,28,45)           120.9597         estimate D2E/DX2                !
 ! A100  A(14,29,30)           118.6485         estimate D2E/DX2                !
 ! A101  A(14,29,31)           119.3833         estimate D2E/DX2                !
 ! A102  A(30,29,31)           117.5531         estimate D2E/DX2                !
 ! A103  A(27,30,29)           119.0067         estimate D2E/DX2                !
 ! A104  A(27,30,47)           116.1937         estimate D2E/DX2                !
 ! A105  A(29,30,47)           119.8473         estimate D2E/DX2                !
 ! A106  A(29,31,34)           120.5638         estimate D2E/DX2                !
 ! A107  A(29,31,49)           121.9558         estimate D2E/DX2                !
 ! A108  A(34,31,49)           106.64           estimate D2E/DX2                !
 ! A109  A(16,32,33)           111.0186         estimate D2E/DX2                !
 ! A110  A(16,32,34)           122.1712         estimate D2E/DX2                !
 ! A111  A(33,32,34)           117.3604         estimate D2E/DX2                !
 ! A112  A(18,33,32)           107.6638         estimate D2E/DX2                !
 ! A113  A(18,33,36)           118.795          estimate D2E/DX2                !
 ! A114  A(32,33,36)           122.9976         estimate D2E/DX2                !
 ! A115  A(31,34,32)           119.4709         estimate D2E/DX2                !
 ! A116  A(31,34,51)           107.9208         estimate D2E/DX2                !
 ! A117  A(32,34,51)           120.5054         estimate D2E/DX2                !
 ! A118  A(19,35,36)           121.7802         estimate D2E/DX2                !
 ! A119  A(19,35,37)           120.8625         estimate D2E/DX2                !
 ! A120  A(36,35,37)           107.2738         estimate D2E/DX2                !
 ! A121  A(33,36,35)           120.2535         estimate D2E/DX2                !
 ! A122  A(33,36,52)           118.7736         estimate D2E/DX2                !
 ! A123  A(35,36,52)           108.9905         estimate D2E/DX2                !
 ! A124  A(35,37,39)           119.3356         estimate D2E/DX2                !
 ! A125  A(35,37,53)           107.8431         estimate D2E/DX2                !
 ! A126  A(39,37,53)           120.983          estimate D2E/DX2                !
 ! A127  A(21,38,39)           121.2896         estimate D2E/DX2                !
 ! A128  A(21,38,42)           121.7523         estimate D2E/DX2                !
 ! A129  A(39,38,42)           106.9402         estimate D2E/DX2                !
 ! A130  A(37,39,38)           120.4206         estimate D2E/DX2                !
 ! A131  A(37,39,57)           119.846          estimate D2E/DX2                !
 ! A132  A(38,39,57)           108.8135         estimate D2E/DX2                !
 ! A133  A(23,40,41)           108.9506         estimate D2E/DX2                !
 ! A134  A(23,40,42)           119.9502         estimate D2E/DX2                !
 ! A135  A(41,40,42)           119.8285         estimate D2E/DX2                !
 ! A136  A(24,41,40)           106.6419         estimate D2E/DX2                !
 ! A137  A(24,41,43)           120.4201         estimate D2E/DX2                !
 ! A138  A(40,41,43)           119.5013         estimate D2E/DX2                !
 ! A139  A(38,42,40)           119.7695         estimate D2E/DX2                !
 ! A140  A(38,42,58)           108.6069         estimate D2E/DX2                !
 ! A141  A(40,42,58)           120.1985         estimate D2E/DX2                !
 ! A142  A(41,43,46)           119.7922         estimate D2E/DX2                !
 ! A143  A(41,43,59)           120.6466         estimate D2E/DX2                !
 ! A144  A(46,43,59)           107.5258         estimate D2E/DX2                !
 ! A145  A(26,44,45)           106.6695         estimate D2E/DX2                !
 ! A146  A(26,44,46)           120.33           estimate D2E/DX2                !
 ! A147  A(45,44,46)           119.1766         estimate D2E/DX2                !
 ! A148  A(28,45,44)           108.0039         estimate D2E/DX2                !
 ! A149  A(28,45,48)           118.7323         estimate D2E/DX2                !
 ! A150  A(44,45,48)           121.5776         estimate D2E/DX2                !
 ! A151  A(43,46,44)           119.4763         estimate D2E/DX2                !
 ! A152  A(43,46,61)           108.2574         estimate D2E/DX2                !
 ! A153  A(44,46,61)           119.5468         estimate D2E/DX2                !
 ! A154  A(30,47,48)           121.6003         estimate D2E/DX2                !
 ! A155  A(30,47,50)           121.1095         estimate D2E/DX2                !
 ! A156  A(48,47,50)           107.32           estimate D2E/DX2                !
 ! A157  A(45,48,47)           120.5525         estimate D2E/DX2                !
 ! A158  A(45,48,62)           119.1229         estimate D2E/DX2                !
 ! A159  A(47,48,62)           108.6934         estimate D2E/DX2                !
 ! A160  A(31,49,50)           120.2862         estimate D2E/DX2                !
 ! A161  A(31,49,54)           109.2861         estimate D2E/DX2                !
 ! A162  A(50,49,54)           119.3115         estimate D2E/DX2                !
 ! A163  A(47,50,49)           118.8728         estimate D2E/DX2                !
 ! A164  A(47,50,63)           108.4737         estimate D2E/DX2                !
 ! A165  A(49,50,63)           121.1173         estimate D2E/DX2                !
 ! A166  A(34,51,52)           120.8926         estimate D2E/DX2                !
 ! A167  A(34,51,54)           107.8965         estimate D2E/DX2                !
 ! A168  A(52,51,54)           118.9225         estimate D2E/DX2                !
 ! A169  A(36,52,51)           118.2515         estimate D2E/DX2                !
 ! A170  A(36,52,53)           106.9443         estimate D2E/DX2                !
 ! A171  A(51,52,53)           121.0064         estimate D2E/DX2                !
 ! A172  A(37,53,52)           108.4939         estimate D2E/DX2                !
 ! A173  A(37,53,55)           119.0568         estimate D2E/DX2                !
 ! A174  A(52,53,55)           119.7192         estimate D2E/DX2                !
 ! A175  A(49,54,51)           107.5489         estimate D2E/DX2                !
 ! A176  A(49,54,56)           119.4803         estimate D2E/DX2                !
 ! A177  A(51,54,56)           120.381          estimate D2E/DX2                !
 ! A178  A(53,55,56)           119.5538         estimate D2E/DX2                !
 ! A179  A(53,55,60)           119.8393         estimate D2E/DX2                !
 ! A180  A(56,55,60)           108.2965         estimate D2E/DX2                !
 ! A181  A(54,56,55)           120.2127         estimate D2E/DX2                !
 ! A182  A(54,56,64)           120.6938         estimate D2E/DX2                !
 ! A183  A(55,56,64)           107.3827         estimate D2E/DX2                !
 ! A184  A(39,57,58)           107.3406         estimate D2E/DX2                !
 ! A185  A(39,57,60)           119.2226         estimate D2E/DX2                !
 ! A186  A(58,57,60)           120.4531         estimate D2E/DX2                !
 ! A187  A(42,58,57)           107.9673         estimate D2E/DX2                !
 ! A188  A(42,58,59)           120.0038         estimate D2E/DX2                !
 ! A189  A(57,58,59)           119.7615         estimate D2E/DX2                !
 ! A190  A(43,59,58)           119.6165         estimate D2E/DX2                !
 ! A191  A(43,59,65)           108.2836         estimate D2E/DX2                !
 ! A192  A(58,59,65)           119.7405         estimate D2E/DX2                !
 ! A193  A(55,60,57)           120.7278         estimate D2E/DX2                !
 ! A194  A(55,60,66)           108.0603         estimate D2E/DX2                !
 ! A195  A(57,60,66)           119.7519         estimate D2E/DX2                !
 ! A196  A(46,61,62)           120.8067         estimate D2E/DX2                !
 ! A197  A(46,61,65)           107.8947         estimate D2E/DX2                !
 ! A198  A(62,61,65)           119.399          estimate D2E/DX2                !
 ! A199  A(48,62,61)           119.5317         estimate D2E/DX2                !
 ! A200  A(48,62,63)           107.1344         estimate D2E/DX2                !
 ! A201  A(61,62,63)           120.6115         estimate D2E/DX2                !
 ! A202  A(50,63,62)           108.0445         estimate D2E/DX2                !
 ! A203  A(50,63,64)           119.3742         estimate D2E/DX2                !
 ! A204  A(62,63,64)           119.9064         estimate D2E/DX2                !
 ! A205  A(56,64,63)           119.7656         estimate D2E/DX2                !
 ! A206  A(56,64,66)           108.5289         estimate D2E/DX2                !
 ! A207  A(63,64,66)           119.705          estimate D2E/DX2                !
 ! A208  A(59,65,61)           107.991          estimate D2E/DX2                !
 ! A209  A(59,65,66)           120.3644         estimate D2E/DX2                !
 ! A210  A(61,65,66)           119.8146         estimate D2E/DX2                !
 ! A211  A(60,66,64)           107.6666         estimate D2E/DX2                !
 ! A212  A(60,66,65)           119.848          estimate D2E/DX2                !
 ! A213  A(64,66,65)           120.4946         estimate D2E/DX2                !
 ! D1    D(4,1,2,3)             16.0546         estimate D2E/DX2                !
 ! D2    D(4,1,2,10)           -93.6613         estimate D2E/DX2                !
 ! D3    D(4,1,2,68)           145.3578         estimate D2E/DX2                !
 ! D4    D(7,1,2,3)            125.7958         estimate D2E/DX2                !
 ! D5    D(7,1,2,10)            16.0799         estimate D2E/DX2                !
 ! D6    D(7,1,2,68)          -104.901          estimate D2E/DX2                !
 ! D7    D(67,1,2,3)          -101.2265         estimate D2E/DX2                !
 ! D8    D(67,1,2,10)          149.0576         estimate D2E/DX2                !
 ! D9    D(67,1,2,68)           28.0767         estimate D2E/DX2                !
 ! D10   D(2,1,4,5)            -15.0294         estimate D2E/DX2                !
 ! D11   D(2,1,4,6)            134.5474         estimate D2E/DX2                !
 ! D12   D(7,1,4,5)           -138.6924         estimate D2E/DX2                !
 ! D13   D(7,1,4,6)             10.8844         estimate D2E/DX2                !
 ! D14   D(67,1,4,5)           100.8112         estimate D2E/DX2                !
 ! D15   D(67,1,4,6)          -109.612          estimate D2E/DX2                !
 ! D16   D(2,1,7,8)           -116.5836         estimate D2E/DX2                !
 ! D17   D(2,1,7,9)             -1.3523         estimate D2E/DX2                !
 ! D18   D(2,1,7,71)           124.3114         estimate D2E/DX2                !
 ! D19   D(4,1,7,8)             -8.5067         estimate D2E/DX2                !
 ! D20   D(4,1,7,9)            106.7246         estimate D2E/DX2                !
 ! D21   D(4,1,7,71)          -127.6118         estimate D2E/DX2                !
 ! D22   D(67,1,7,8)           111.5237         estimate D2E/DX2                !
 ! D23   D(67,1,7,9)          -133.245          estimate D2E/DX2                !
 ! D24   D(67,1,7,71)           -7.5813         estimate D2E/DX2                !
 ! D25   D(1,2,3,5)            -12.5387         estimate D2E/DX2                !
 ! D26   D(1,2,3,12)          -120.039          estimate D2E/DX2                !
 ! D27   D(1,2,3,69)           112.5743         estimate D2E/DX2                !
 ! D28   D(10,2,3,5)           103.8261         estimate D2E/DX2                !
 ! D29   D(10,2,3,12)           -3.6742         estimate D2E/DX2                !
 ! D30   D(10,2,3,69)         -131.0608         estimate D2E/DX2                !
 ! D31   D(68,2,3,5)          -139.1715         estimate D2E/DX2                !
 ! D32   D(68,2,3,12)          113.3282         estimate D2E/DX2                !
 ! D33   D(68,2,3,69)          -14.0585         estimate D2E/DX2                !
 ! D34   D(1,2,10,11)          -33.1823         estimate D2E/DX2                !
 ! D35   D(1,2,10,13)          129.4416         estimate D2E/DX2                !
 ! D36   D(3,2,10,11)         -148.2683         estimate D2E/DX2                !
 ! D37   D(3,2,10,13)           14.3556         estimate D2E/DX2                !
 ! D38   D(68,2,10,11)          89.37           estimate D2E/DX2                !
 ! D39   D(68,2,10,13)        -108.0061         estimate D2E/DX2                !
 ! D40   D(2,3,5,4)              3.3512         estimate D2E/DX2                !
 ! D41   D(2,3,5,15)          -144.6889         estimate D2E/DX2                !
 ! D42   D(12,3,5,4)           113.727          estimate D2E/DX2                !
 ! D43   D(12,3,5,15)          -34.3131         estimate D2E/DX2                !
 ! D44   D(69,3,5,4)          -124.4668         estimate D2E/DX2                !
 ! D45   D(69,3,5,15)           87.4931         estimate D2E/DX2                !
 ! D46   D(2,3,12,13)           -7.2644         estimate D2E/DX2                !
 ! D47   D(2,3,12,14)          144.1201         estimate D2E/DX2                !
 ! D48   D(5,3,12,13)         -114.4578         estimate D2E/DX2                !
 ! D49   D(5,3,12,14)           36.9267         estimate D2E/DX2                !
 ! D50   D(69,3,12,13)         123.0982         estimate D2E/DX2                !
 ! D51   D(69,3,12,14)         -85.5172         estimate D2E/DX2                !
 ! D52   D(1,4,5,3)              8.0222         estimate D2E/DX2                !
 ! D53   D(1,4,5,15)           157.5536         estimate D2E/DX2                !
 ! D54   D(6,4,5,3)           -138.9293         estimate D2E/DX2                !
 ! D55   D(6,4,5,15)            10.6021         estimate D2E/DX2                !
 ! D56   D(1,4,6,8)             -8.7912         estimate D2E/DX2                !
 ! D57   D(1,4,6,17)          -160.6849         estimate D2E/DX2                !
 ! D58   D(5,4,6,8)            138.9174         estimate D2E/DX2                !
 ! D59   D(5,4,6,17)           -12.9762         estimate D2E/DX2                !
 ! D60   D(3,5,15,16)           -0.4726         estimate D2E/DX2                !
 ! D61   D(3,5,15,18)          146.8847         estimate D2E/DX2                !
 ! D62   D(4,5,15,16)         -146.1306         estimate D2E/DX2                !
 ! D63   D(4,5,15,18)            1.2267         estimate D2E/DX2                !
 ! D64   D(4,6,8,7)              2.3907         estimate D2E/DX2                !
 ! D65   D(4,6,8,20)          -152.438          estimate D2E/DX2                !
 ! D66   D(17,6,8,7)           153.2548         estimate D2E/DX2                !
 ! D67   D(17,6,8,20)           -1.5739         estimate D2E/DX2                !
 ! D68   D(4,6,17,18)            3.0815         estimate D2E/DX2                !
 ! D69   D(4,6,17,19)          156.7499         estimate D2E/DX2                !
 ! D70   D(8,6,17,18)         -144.4202         estimate D2E/DX2                !
 ! D71   D(8,6,17,19)            9.2482         estimate D2E/DX2                !
 ! D72   D(1,7,8,6)              4.1726         estimate D2E/DX2                !
 ! D73   D(1,7,8,20)           157.1115         estimate D2E/DX2                !
 ! D74   D(9,7,8,6)           -118.2054         estimate D2E/DX2                !
 ! D75   D(9,7,8,20)            34.7335         estimate D2E/DX2                !
 ! D76   D(71,7,8,6)           126.3651         estimate D2E/DX2                !
 ! D77   D(71,7,8,20)          -80.6959         estimate D2E/DX2                !
 ! D78   D(1,7,9,11)            -1.3518         estimate D2E/DX2                !
 ! D79   D(1,7,9,22)          -159.6334         estimate D2E/DX2                !
 ! D80   D(8,7,9,11)           113.5687         estimate D2E/DX2                !
 ! D81   D(8,7,9,22)           -44.7129         estimate D2E/DX2                !
 ! D82   D(71,7,9,11)         -130.0421         estimate D2E/DX2                !
 ! D83   D(71,7,9,22)           71.6763         estimate D2E/DX2                !
 ! D84   D(6,8,20,21)           -6.9204         estimate D2E/DX2                !
 ! D85   D(6,8,20,23)          147.7742         estimate D2E/DX2                !
 ! D86   D(7,8,20,21)         -157.5603         estimate D2E/DX2                !
 ! D87   D(7,8,20,23)           -2.8656         estimate D2E/DX2                !
 ! D88   D(7,9,11,10)          -12.4302         estimate D2E/DX2                !
 ! D89   D(7,9,11,25)         -160.9634         estimate D2E/DX2                !
 ! D90   D(22,9,11,10)         145.635          estimate D2E/DX2                !
 ! D91   D(22,9,11,25)          -2.8981         estimate D2E/DX2                !
 ! D92   D(7,9,22,23)           27.401          estimate D2E/DX2                !
 ! D93   D(7,9,22,24)          170.5359         estimate D2E/DX2                !
 ! D94   D(11,9,22,23)        -132.1053         estimate D2E/DX2                !
 ! D95   D(11,9,22,24)          11.0296         estimate D2E/DX2                !
 ! D96   D(2,10,11,9)           32.4025         estimate D2E/DX2                !
 ! D97   D(2,10,11,25)        -178.0641         estimate D2E/DX2                !
 ! D98   D(13,10,11,9)        -129.5633         estimate D2E/DX2                !
 ! D99   D(13,10,11,25)         19.9702         estimate D2E/DX2                !
 ! D100  D(2,10,13,12)         -20.0137         estimate D2E/DX2                !
 ! D101  D(2,10,13,27)        -173.2331         estimate D2E/DX2                !
 ! D102  D(11,10,13,12)        144.0055         estimate D2E/DX2                !
 ! D103  D(11,10,13,27)         -9.2139         estimate D2E/DX2                !
 ! D104  D(9,11,25,26)          -7.6452         estimate D2E/DX2                !
 ! D105  D(9,11,25,28)         135.9192         estimate D2E/DX2                !
 ! D106  D(10,11,25,26)       -156.5774         estimate D2E/DX2                !
 ! D107  D(10,11,25,28)        -13.0131         estimate D2E/DX2                !
 ! D108  D(3,12,13,10)          16.1222         estimate D2E/DX2                !
 ! D109  D(3,12,13,27)         170.6947         estimate D2E/DX2                !
 ! D110  D(14,12,13,10)       -137.7583         estimate D2E/DX2                !
 ! D111  D(14,12,13,27)         16.8143         estimate D2E/DX2                !
 ! D112  D(3,12,14,16)          -2.4986         estimate D2E/DX2                !
 ! D113  D(3,12,14,29)        -166.0429         estimate D2E/DX2                !
 ! D114  D(13,12,14,16)        145.9726         estimate D2E/DX2                !
 ! D115  D(13,12,14,29)        -17.5716         estimate D2E/DX2                !
 ! D116  D(10,13,27,28)         -9.5789         estimate D2E/DX2                !
 ! D117  D(10,13,27,30)        145.2916         estimate D2E/DX2                !
 ! D118  D(12,13,27,28)       -159.523          estimate D2E/DX2                !
 ! D119  D(12,13,27,30)         -4.6525         estimate D2E/DX2                !
 ! D120  D(12,14,16,15)        -33.7963         estimate D2E/DX2                !
 ! D121  D(12,14,16,32)       -142.5598         estimate D2E/DX2                !
 ! D122  D(12,14,16,70)         89.9357         estimate D2E/DX2                !
 ! D123  D(29,14,16,15)        129.8541         estimate D2E/DX2                !
 ! D124  D(29,14,16,32)         21.0906         estimate D2E/DX2                !
 ! D125  D(29,14,16,70)       -106.414          estimate D2E/DX2                !
 ! D126  D(12,14,29,30)          6.6617         estimate D2E/DX2                !
 ! D127  D(12,14,29,31)        162.5206         estimate D2E/DX2                !
 ! D128  D(16,14,29,30)       -156.6282         estimate D2E/DX2                !
 ! D129  D(16,14,29,31)         -0.7693         estimate D2E/DX2                !
 ! D130  D(5,15,16,14)          36.2765         estimate D2E/DX2                !
 ! D131  D(5,15,16,32)         152.895          estimate D2E/DX2                !
 ! D132  D(5,15,16,70)         -84.2617         estimate D2E/DX2                !
 ! D133  D(18,15,16,14)       -113.6557         estimate D2E/DX2                !
 ! D134  D(18,15,16,32)          2.9628         estimate D2E/DX2                !
 ! D135  D(18,15,16,70)        125.8061         estimate D2E/DX2                !
 ! D136  D(5,15,18,17)         -11.0911         estimate D2E/DX2                !
 ! D137  D(5,15,18,33)        -159.3299         estimate D2E/DX2                !
 ! D138  D(16,15,18,17)        139.7205         estimate D2E/DX2                !
 ! D139  D(16,15,18,33)         -8.5183         estimate D2E/DX2                !
 ! D140  D(14,16,32,33)        115.5258         estimate D2E/DX2                !
 ! D141  D(14,16,32,34)        -29.8955         estimate D2E/DX2                !
 ! D142  D(15,16,32,33)          3.6787         estimate D2E/DX2                !
 ! D143  D(15,16,32,34)       -141.7425         estimate D2E/DX2                !
 ! D144  D(70,16,32,33)       -119.4512         estimate D2E/DX2                !
 ! D145  D(70,16,32,34)         95.1276         estimate D2E/DX2                !
 ! D146  D(6,17,18,15)           8.6371         estimate D2E/DX2                !
 ! D147  D(6,17,18,33)         153.2285         estimate D2E/DX2                !
 ! D148  D(19,17,18,15)       -144.309          estimate D2E/DX2                !
 ! D149  D(19,17,18,33)          0.2824         estimate D2E/DX2                !
 ! D150  D(6,17,19,21)          -7.9736         estimate D2E/DX2                !
 ! D151  D(6,17,19,35)        -161.6111         estimate D2E/DX2                !
 ! D152  D(18,17,19,21)        144.1463         estimate D2E/DX2                !
 ! D153  D(18,17,19,35)         -9.4912         estimate D2E/DX2                !
 ! D154  D(15,18,33,32)         10.6535         estimate D2E/DX2                !
 ! D155  D(15,18,33,36)        156.4684         estimate D2E/DX2                !
 ! D156  D(17,18,33,32)       -138.1484         estimate D2E/DX2                !
 ! D157  D(17,18,33,36)          7.6665         estimate D2E/DX2                !
 ! D158  D(17,19,21,20)         -0.1506         estimate D2E/DX2                !
 ! D159  D(17,19,21,38)       -155.772          estimate D2E/DX2                !
 ! D160  D(35,19,21,20)        152.5835         estimate D2E/DX2                !
 ! D161  D(35,19,21,38)         -3.0379         estimate D2E/DX2                !
 ! D162  D(17,19,35,36)         11.2579         estimate D2E/DX2                !
 ! D163  D(17,19,35,37)        152.2602         estimate D2E/DX2                !
 ! D164  D(21,19,35,36)       -141.943          estimate D2E/DX2                !
 ! D165  D(21,19,35,37)         -0.9406         estimate D2E/DX2                !
 ! D166  D(8,20,21,19)           7.7651         estimate D2E/DX2                !
 ! D167  D(8,20,21,38)         163.6269         estimate D2E/DX2                !
 ! D168  D(23,20,21,19)       -145.9582         estimate D2E/DX2                !
 ! D169  D(23,20,21,38)          9.9036         estimate D2E/DX2                !
 ! D170  D(8,20,23,22)         -20.8591         estimate D2E/DX2                !
 ! D171  D(8,20,23,40)        -157.6988         estimate D2E/DX2                !
 ! D172  D(21,20,23,22)        133.682          estimate D2E/DX2                !
 ! D173  D(21,20,23,40)         -3.1577         estimate D2E/DX2                !
 ! D174  D(19,21,38,39)          5.2812         estimate D2E/DX2                !
 ! D175  D(19,21,38,42)        146.2777         estimate D2E/DX2                !
 ! D176  D(20,21,38,39)       -151.138          estimate D2E/DX2                !
 ! D177  D(20,21,38,42)        -10.1415         estimate D2E/DX2                !
 ! D178  D(9,22,23,20)           8.9122         estimate D2E/DX2                !
 ! D179  D(9,22,23,40)         150.5488         estimate D2E/DX2                !
 ! D180  D(24,22,23,20)       -139.2917         estimate D2E/DX2                !
 ! D181  D(24,22,23,40)          2.3448         estimate D2E/DX2                !
 ! D182  D(9,22,24,26)          -8.7141         estimate D2E/DX2                !
 ! D183  D(9,22,24,41)        -151.7727         estimate D2E/DX2                !
 ! D184  D(23,22,24,26)        139.4421         estimate D2E/DX2                !
 ! D185  D(23,22,24,41)         -3.6165         estimate D2E/DX2                !
 ! D186  D(20,23,40,41)        139.8242         estimate D2E/DX2                !
 ! D187  D(20,23,40,42)         -3.7675         estimate D2E/DX2                !
 ! D188  D(22,23,40,41)         -0.2203         estimate D2E/DX2                !
 ! D189  D(22,23,40,42)       -143.812          estimate D2E/DX2                !
 ! D190  D(22,24,26,25)         -1.9954         estimate D2E/DX2                !
 ! D191  D(22,24,26,44)       -139.3767         estimate D2E/DX2                !
 ! D192  D(41,24,26,25)        137.1831         estimate D2E/DX2                !
 ! D193  D(41,24,26,44)         -0.1981         estimate D2E/DX2                !
 ! D194  D(22,24,41,40)          3.495          estimate D2E/DX2                !
 ! D195  D(22,24,41,43)        143.9868         estimate D2E/DX2                !
 ! D196  D(26,24,41,40)       -139.4369         estimate D2E/DX2                !
 ! D197  D(26,24,41,43)          1.055          estimate D2E/DX2                !
 ! D198  D(11,25,26,24)         10.0519         estimate D2E/DX2                !
 ! D199  D(11,25,26,44)        151.8262         estimate D2E/DX2                !
 ! D200  D(28,25,26,24)       -138.0858         estimate D2E/DX2                !
 ! D201  D(28,25,26,44)          3.6885         estimate D2E/DX2                !
 ! D202  D(11,25,28,27)         -6.0756         estimate D2E/DX2                !
 ! D203  D(11,25,28,45)       -152.1802         estimate D2E/DX2                !
 ! D204  D(26,25,28,27)        142.1446         estimate D2E/DX2                !
 ! D205  D(26,25,28,45)         -3.96           estimate D2E/DX2                !
 ! D206  D(24,26,44,45)        138.7513         estimate D2E/DX2                !
 ! D207  D(24,26,44,46)         -1.1354         estimate D2E/DX2                !
 ! D208  D(25,26,44,45)         -2.0132         estimate D2E/DX2                !
 ! D209  D(25,26,44,46)       -141.8999         estimate D2E/DX2                !
 ! D210  D(13,27,28,25)         16.7712         estimate D2E/DX2                !
 ! D211  D(13,27,28,45)        158.8016         estimate D2E/DX2                !
 ! D212  D(30,27,28,25)       -137.4868         estimate D2E/DX2                !
 ! D213  D(30,27,28,45)          4.5436         estimate D2E/DX2                !
 ! D214  D(13,27,30,29)         -6.2327         estimate D2E/DX2                !
 ! D215  D(13,27,30,47)       -161.3205         estimate D2E/DX2                !
 ! D216  D(28,27,30,29)        146.7329         estimate D2E/DX2                !
 ! D217  D(28,27,30,47)         -8.3549         estimate D2E/DX2                !
 ! D218  D(25,28,45,44)          2.7407         estimate D2E/DX2                !
 ! D219  D(25,28,45,48)        146.4568         estimate D2E/DX2                !
 ! D220  D(27,28,45,44)       -143.103          estimate D2E/DX2                !
 ! D221  D(27,28,45,48)          0.6132         estimate D2E/DX2                !
 ! D222  D(14,29,30,27)          5.3484         estimate D2E/DX2                !
 ! D223  D(14,29,30,47)        159.5138         estimate D2E/DX2                !
 ! D224  D(31,29,30,27)       -150.9507         estimate D2E/DX2                !
 ! D225  D(31,29,30,47)          3.2147         estimate D2E/DX2                !
 ! D226  D(14,29,31,34)        -14.1339         estimate D2E/DX2                !
 ! D227  D(14,29,31,49)       -153.6283         estimate D2E/DX2                !
 ! D228  D(30,29,31,34)        141.9856         estimate D2E/DX2                !
 ! D229  D(30,29,31,49)          2.4911         estimate D2E/DX2                !
 ! D230  D(27,30,47,48)          7.404          estimate D2E/DX2                !
 ! D231  D(27,30,47,50)        148.6196         estimate D2E/DX2                !
 ! D232  D(29,30,47,48)       -147.4625         estimate D2E/DX2                !
 ! D233  D(29,30,47,50)         -6.2468         estimate D2E/DX2                !
 ! D234  D(29,31,34,32)          6.3588         estimate D2E/DX2                !
 ! D235  D(29,31,34,51)       -136.348          estimate D2E/DX2                !
 ! D236  D(49,31,34,32)        151.2467         estimate D2E/DX2                !
 ! D237  D(49,31,34,51)          8.5399         estimate D2E/DX2                !
 ! D238  D(29,31,49,50)         -5.3558         estimate D2E/DX2                !
 ! D239  D(29,31,49,54)        138.2551         estimate D2E/DX2                !
 ! D240  D(34,31,49,50)       -149.6429         estimate D2E/DX2                !
 ! D241  D(34,31,49,54)         -6.0319         estimate D2E/DX2                !
 ! D242  D(16,32,33,18)         -8.9054         estimate D2E/DX2                !
 ! D243  D(16,32,33,36)       -152.9543         estimate D2E/DX2                !
 ! D244  D(34,32,33,18)        138.3491         estimate D2E/DX2                !
 ! D245  D(34,32,33,36)         -5.6998         estimate D2E/DX2                !
 ! D246  D(16,32,34,31)         17.1863         estimate D2E/DX2                !
 ! D247  D(16,32,34,51)        155.1875         estimate D2E/DX2                !
 ! D248  D(33,32,34,31)       -126.1936         estimate D2E/DX2                !
 ! D249  D(33,32,34,51)         11.8075         estimate D2E/DX2                !
 ! D250  D(18,33,36,35)         -5.9933         estimate D2E/DX2                !
 ! D251  D(18,33,36,52)       -144.5913         estimate D2E/DX2                !
 ! D252  D(32,33,36,35)        134.338          estimate D2E/DX2                !
 ! D253  D(32,33,36,52)         -4.26           estimate D2E/DX2                !
 ! D254  D(31,34,51,52)        133.9131         estimate D2E/DX2                !
 ! D255  D(31,34,51,54)         -7.849          estimate D2E/DX2                !
 ! D256  D(32,34,51,52)         -8.3353         estimate D2E/DX2                !
 ! D257  D(32,34,51,54)       -150.0974         estimate D2E/DX2                !
 ! D258  D(19,35,36,33)         -3.6684         estimate D2E/DX2                !
 ! D259  D(19,35,36,52)        138.5214         estimate D2E/DX2                !
 ! D260  D(37,35,36,33)       -149.2177         estimate D2E/DX2                !
 ! D261  D(37,35,36,52)         -7.0279         estimate D2E/DX2                !
 ! D262  D(19,35,37,39)          2.7554         estimate D2E/DX2                !
 ! D263  D(19,35,37,53)       -140.4941         estimate D2E/DX2                !
 ! D264  D(36,35,37,39)        148.6851         estimate D2E/DX2                !
 ! D265  D(36,35,37,53)          5.4356         estimate D2E/DX2                !
 ! D266  D(33,36,52,51)          7.854          estimate D2E/DX2                !
 ! D267  D(33,36,52,53)        148.6635         estimate D2E/DX2                !
 ! D268  D(35,36,52,51)       -134.9784         estimate D2E/DX2                !
 ! D269  D(35,36,52,53)          5.8311         estimate D2E/DX2                !
 ! D270  D(35,37,39,38)         -0.554          estimate D2E/DX2                !
 ! D271  D(35,37,39,57)       -140.7346         estimate D2E/DX2                !
 ! D272  D(53,37,39,38)        137.8144         estimate D2E/DX2                !
 ! D273  D(53,37,39,57)         -2.3662         estimate D2E/DX2                !
 ! D274  D(35,37,53,52)         -1.8977         estimate D2E/DX2                !
 ! D275  D(35,37,53,55)        139.7167         estimate D2E/DX2                !
 ! D276  D(39,37,53,52)       -144.4229         estimate D2E/DX2                !
 ! D277  D(39,37,53,55)         -2.8085         estimate D2E/DX2                !
 ! D278  D(21,38,39,37)         -3.5631         estimate D2E/DX2                !
 ! D279  D(21,38,39,57)        140.5077         estimate D2E/DX2                !
 ! D280  D(42,38,39,37)       -149.5456         estimate D2E/DX2                !
 ! D281  D(42,38,39,57)         -5.4749         estimate D2E/DX2                !
 ! D282  D(21,38,42,40)          3.5311         estimate D2E/DX2                !
 ! D283  D(21,38,42,58)       -139.9834         estimate D2E/DX2                !
 ! D284  D(39,38,42,40)        149.3214         estimate D2E/DX2                !
 ! D285  D(39,38,42,58)          5.8069         estimate D2E/DX2                !
 ! D286  D(37,39,57,58)        147.3758         estimate D2E/DX2                !
 ! D287  D(37,39,57,60)          5.8336         estimate D2E/DX2                !
 ! D288  D(38,39,57,58)          3.0644         estimate D2E/DX2                !
 ! D289  D(38,39,57,60)       -138.4778         estimate D2E/DX2                !
 ! D290  D(23,40,41,24)         -2.0075         estimate D2E/DX2                !
 ! D291  D(23,40,41,43)       -142.9327         estimate D2E/DX2                !
 ! D292  D(42,40,41,24)        141.6358         estimate D2E/DX2                !
 ! D293  D(42,40,41,43)          0.7106         estimate D2E/DX2                !
 ! D294  D(23,40,42,38)          3.7015         estimate D2E/DX2                !
 ! D295  D(23,40,42,58)        143.0068         estimate D2E/DX2                !
 ! D296  D(41,40,42,38)       -135.9758         estimate D2E/DX2                !
 ! D297  D(41,40,42,58)          3.3296         estimate D2E/DX2                !
 ! D298  D(24,41,43,46)         -0.5937         estimate D2E/DX2                !
 ! D299  D(24,41,43,59)       -138.5429         estimate D2E/DX2                !
 ! D300  D(40,41,43,46)        134.9517         estimate D2E/DX2                !
 ! D301  D(40,41,43,59)         -2.9975         estimate D2E/DX2                !
 ! D302  D(38,42,58,57)         -3.9787         estimate D2E/DX2                !
 ! D303  D(38,42,58,59)        138.1926         estimate D2E/DX2                !
 ! D304  D(40,42,58,57)       -147.3095         estimate D2E/DX2                !
 ! D305  D(40,42,58,59)         -5.1382         estimate D2E/DX2                !
 ! D306  D(41,43,46,44)         -0.7313         estimate D2E/DX2                !
 ! D307  D(41,43,46,61)       -142.2625         estimate D2E/DX2                !
 ! D308  D(59,43,46,44)        142.0911         estimate D2E/DX2                !
 ! D309  D(59,43,46,61)          0.5598         estimate D2E/DX2                !
 ! D310  D(41,43,59,58)          1.2094         estimate D2E/DX2                !
 ! D311  D(41,43,59,65)        143.2813         estimate D2E/DX2                !
 ! D312  D(46,43,59,58)       -141.2329         estimate D2E/DX2                !
 ! D313  D(46,43,59,65)          0.8389         estimate D2E/DX2                !
 ! D314  D(26,44,45,28)         -0.439          estimate D2E/DX2                !
 ! D315  D(26,44,45,48)       -142.9136         estimate D2E/DX2                !
 ! D316  D(46,44,45,28)        139.9978         estimate D2E/DX2                !
 ! D317  D(46,44,45,48)         -2.4768         estimate D2E/DX2                !
 ! D318  D(26,44,46,43)          1.5876         estimate D2E/DX2                !
 ! D319  D(26,44,46,61)        138.8155         estimate D2E/DX2                !
 ! D320  D(45,44,46,43)       -133.4278         estimate D2E/DX2                !
 ! D321  D(45,44,46,61)          3.8002         estimate D2E/DX2                !
 ! D322  D(28,45,48,47)         -1.564          estimate D2E/DX2                !
 ! D323  D(28,45,48,62)       -140.5798         estimate D2E/DX2                !
 ! D324  D(44,45,48,47)        137.0882         estimate D2E/DX2                !
 ! D325  D(44,45,48,62)         -1.9276         estimate D2E/DX2                !
 ! D326  D(43,46,61,62)        140.7355         estimate D2E/DX2                !
 ! D327  D(43,46,61,65)         -1.7423         estimate D2E/DX2                !
 ! D328  D(44,46,61,62)         -0.764          estimate D2E/DX2                !
 ! D329  D(44,46,61,65)       -143.2419         estimate D2E/DX2                !
 ! D330  D(30,47,48,45)         -2.6586         estimate D2E/DX2                !
 ! D331  D(30,47,48,62)        140.1238         estimate D2E/DX2                !
 ! D332  D(50,47,48,45)       -148.4798         estimate D2E/DX2                !
 ! D333  D(50,47,48,62)         -5.6974         estimate D2E/DX2                !
 ! D334  D(30,47,50,49)          3.4262         estimate D2E/DX2                !
 ! D335  D(30,47,50,63)       -140.3228         estimate D2E/DX2                !
 ! D336  D(48,47,50,49)        149.4497         estimate D2E/DX2                !
 ! D337  D(48,47,50,63)          5.7008         estimate D2E/DX2                !
 ! D338  D(45,48,62,61)          4.9596         estimate D2E/DX2                !
 ! D339  D(45,48,62,63)        146.8731         estimate D2E/DX2                !
 ! D340  D(47,48,62,61)       -138.4387         estimate D2E/DX2                !
 ! D341  D(47,48,62,63)          3.4748         estimate D2E/DX2                !
 ! D342  D(31,49,50,47)          2.3061         estimate D2E/DX2                !
 ! D343  D(31,49,50,63)        141.3776         estimate D2E/DX2                !
 ! D344  D(54,49,50,47)       -137.7385         estimate D2E/DX2                !
 ! D345  D(54,49,50,63)          1.333          estimate D2E/DX2                !
 ! D346  D(31,49,54,51)          1.2673         estimate D2E/DX2                !
 ! D347  D(31,49,54,56)       -140.7411         estimate D2E/DX2                !
 ! D348  D(50,49,54,51)        145.2866         estimate D2E/DX2                !
 ! D349  D(50,49,54,56)          3.2782         estimate D2E/DX2                !
 ! D350  D(47,50,63,62)         -3.604          estimate D2E/DX2                !
 ! D351  D(47,50,63,64)        138.1271         estimate D2E/DX2                !
 ! D352  D(49,50,63,62)       -146.3859         estimate D2E/DX2                !
 ! D353  D(49,50,63,64)         -4.6548         estimate D2E/DX2                !
 ! D354  D(34,51,52,36)         -1.8675         estimate D2E/DX2                !
 ! D355  D(34,51,52,53)       -137.0185         estimate D2E/DX2                !
 ! D356  D(54,51,52,36)        135.8404         estimate D2E/DX2                !
 ! D357  D(54,51,52,53)          0.6895         estimate D2E/DX2                !
 ! D358  D(34,51,54,49)          4.1233         estimate D2E/DX2                !
 ! D359  D(34,51,54,56)        145.7237         estimate D2E/DX2                !
 ! D360  D(52,51,54,49)       -138.5177         estimate D2E/DX2                !
 ! D361  D(52,51,54,56)          3.0826         estimate D2E/DX2                !
 ! D362  D(36,52,53,37)         -2.4068         estimate D2E/DX2                !
 ! D363  D(36,52,53,55)       -143.7241         estimate D2E/DX2                !
 ! D364  D(51,52,53,37)        137.095          estimate D2E/DX2                !
 ! D365  D(51,52,53,55)         -4.2224         estimate D2E/DX2                !
 ! D366  D(37,53,55,56)       -133.3692         estimate D2E/DX2                !
 ! D367  D(37,53,55,60)          4.4726         estimate D2E/DX2                !
 ! D368  D(52,53,55,56)          3.9376         estimate D2E/DX2                !
 ! D369  D(52,53,55,60)        141.7794         estimate D2E/DX2                !
 ! D370  D(49,54,56,55)        133.7853         estimate D2E/DX2                !
 ! D371  D(49,54,56,64)         -4.6063         estimate D2E/DX2                !
 ! D372  D(51,54,56,55)         -3.3461         estimate D2E/DX2                !
 ! D373  D(51,54,56,64)       -141.7377         estimate D2E/DX2                !
 ! D374  D(53,55,56,54)         -0.2111         estimate D2E/DX2                !
 ! D375  D(53,55,56,64)        143.0382         estimate D2E/DX2                !
 ! D376  D(60,55,56,54)       -142.3899         estimate D2E/DX2                !
 ! D377  D(60,55,56,64)          0.8593         estimate D2E/DX2                !
 ! D378  D(53,55,60,57)         -0.9958         estimate D2E/DX2                !
 ! D379  D(53,55,60,66)       -144.2253         estimate D2E/DX2                !
 ! D380  D(56,55,60,57)        141.0564         estimate D2E/DX2                !
 ! D381  D(56,55,60,66)         -2.1731         estimate D2E/DX2                !
 ! D382  D(54,56,64,63)          1.2831         estimate D2E/DX2                !
 ! D383  D(54,56,64,66)        143.8193         estimate D2E/DX2                !
 ! D384  D(55,56,64,63)       -141.754          estimate D2E/DX2                !
 ! D385  D(55,56,64,66)          0.7821         estimate D2E/DX2                !
 ! D386  D(39,57,58,42)          0.5562         estimate D2E/DX2                !
 ! D387  D(39,57,58,59)       -141.723          estimate D2E/DX2                !
 ! D388  D(60,57,58,42)        141.5321         estimate D2E/DX2                !
 ! D389  D(60,57,58,59)         -0.7472         estimate D2E/DX2                !
 ! D390  D(39,57,60,55)         -4.1733         estimate D2E/DX2                !
 ! D391  D(39,57,60,66)        134.867          estimate D2E/DX2                !
 ! D392  D(58,57,60,55)       -140.6477         estimate D2E/DX2                !
 ! D393  D(58,57,60,66)         -1.6074         estimate D2E/DX2                !
 ! D394  D(42,58,59,43)          2.8505         estimate D2E/DX2                !
 ! D395  D(42,58,59,65)       -134.9139         estimate D2E/DX2                !
 ! D396  D(57,58,59,43)        140.6262         estimate D2E/DX2                !
 ! D397  D(57,58,59,65)          2.8618         estimate D2E/DX2                !
 ! D398  D(43,59,65,61)         -1.918          estimate D2E/DX2                !
 ! D399  D(43,59,65,66)       -144.679          estimate D2E/DX2                !
 ! D400  D(58,59,65,61)        140.0987         estimate D2E/DX2                !
 ! D401  D(58,59,65,66)         -2.6623         estimate D2E/DX2                !
 ! D402  D(55,60,66,64)          2.6406         estimate D2E/DX2                !
 ! D403  D(55,60,66,65)        145.4649         estimate D2E/DX2                !
 ! D404  D(57,60,66,64)       -141.0107         estimate D2E/DX2                !
 ! D405  D(57,60,66,65)          1.8136         estimate D2E/DX2                !
 ! D406  D(46,61,62,48)         -3.6578         estimate D2E/DX2                !
 ! D407  D(46,61,62,63)       -140.4283         estimate D2E/DX2                !
 ! D408  D(65,61,62,48)        134.6387         estimate D2E/DX2                !
 ! D409  D(65,61,62,63)         -2.1318         estimate D2E/DX2                !
 ! D410  D(46,61,65,59)          2.2567         estimate D2E/DX2                !
 ! D411  D(46,61,65,66)        145.2588         estimate D2E/DX2                !
 ! D412  D(62,61,65,59)       -140.8409         estimate D2E/DX2                !
 ! D413  D(62,61,65,66)          2.1612         estimate D2E/DX2                !
 ! D414  D(48,62,63,50)          0.0547         estimate D2E/DX2                !
 ! D415  D(48,62,63,64)       -141.4364         estimate D2E/DX2                !
 ! D416  D(61,62,63,50)        141.4739         estimate D2E/DX2                !
 ! D417  D(61,62,63,64)         -0.0172         estimate D2E/DX2                !
 ! D418  D(50,63,64,56)          3.3164         estimate D2E/DX2                !
 ! D419  D(50,63,64,66)       -135.079          estimate D2E/DX2                !
 ! D420  D(62,63,64,56)        140.5232         estimate D2E/DX2                !
 ! D421  D(62,63,64,66)          2.1278         estimate D2E/DX2                !
 ! D422  D(56,64,66,60)         -2.1184         estimate D2E/DX2                !
 ! D423  D(56,64,66,65)       -144.6562         estimate D2E/DX2                !
 ! D424  D(63,64,66,60)        140.4442         estimate D2E/DX2                !
 ! D425  D(63,64,66,65)         -2.0935         estimate D2E/DX2                !
 ! D426  D(59,65,66,60)          0.3082         estimate D2E/DX2                !
 ! D427  D(59,65,66,64)        138.3807         estimate D2E/DX2                !
 ! D428  D(61,65,66,60)       -138.1356         estimate D2E/DX2                !
 ! D429  D(61,65,66,64)         -0.063          estimate D2E/DX2                !
 --------------------------------------------------------------------------------
 Trust Radius=3.00D-01 FncErr=1.00D-07 GrdErr=1.00D-06 EigMax=2.50D+02 EigMin=1.00D-04
 Number of steps in this run=    426 maximum allowed number of steps=    426.
 GradGradGradGradGradGradGradGradGradGradGradGradGradGradGradGradGradGrad

 Leave Link  103 at Sat Jul 16 14:36:21 2022, MaxMem=  1342177280 cpu:               1.4 elap:               0.0
 (Enter /home/mkliu/g16/l202.exe)
 Stoichiometry    C66Cl5(2)
 Framework group  C1[X(C66Cl5)]
 Deg. of freedom   207
 Full point group                 C1      NOp   1
 Largest Abelian subgroup         C1      NOp   1
 Largest concise Abelian subgroup C1      NOp   1
                         Standard orientation:                         
 ---------------------------------------------------------------------
 Center     Atomic      Atomic             Coordinates (Angstroms)
 Number     Number       Type             X           Y           Z
 ---------------------------------------------------------------------
      1          6           0       -3.554031   -1.053999   -0.579239
      2          6           0       -3.602324   -0.332258    0.811834
      3          6           0       -3.398002    1.205950    0.594875
      4          6           0       -2.940052    0.025015   -1.379255
      5          6           0       -2.935242    1.268742   -0.816465
      6          6           0       -1.910337   -0.409031   -2.214781
      7          6           0       -2.565549   -2.237938   -0.814017
      8          6           0       -1.616738   -1.738811   -1.903947
[...]
     9 C(13)  Bbb    -0.0639    -8.574    -3.059    -2.860  0.3439 -0.2051  0.9163
              Bcc     0.1387    18.617     6.643     6.210  0.6644  0.7428 -0.0832
 
              Baa    -0.0341    -4.580    -1.634    -1.528 -0.6234  0.7444 -0.2393
    10 C(13)  Bbb    -0.0336    -4.509    -1.609    -1.504  0.5281  0.6265  0.5732
              Bcc     0.0677     9.089     3.243     3.032 -0.5766 -0.2310  0.7837
 
              Baa    -0.0273    -3.662    -1.307    -1.222  0.6725  0.5767 -0.4638
    11 C(13)  Bbb     0.0098     1.313     0.468     0.438  0.7259 -0.6360  0.2618
              Bcc     0.0175     2.349     0.838     0.784  0.1440  0.5127  0.8464
 
              Baa    -0.0145    -1.941    -0.693    -0.648  0.8839  0.1920  0.4264
    12 C(13)  Bbb    -0.0112    -1.497    -0.534    -0.499  0.1078  0.8036 -0.5853
              Bcc     0.0256     3.438     1.227     1.147 -0.4550  0.5634  0.6896
 
              Baa    -0.0220    -2.956    -1.055    -0.986 -0.6012  0.0780  0.7953
    13 C(13)  Bbb     0.0095     1.279     0.456     0.427 -0.4148  0.8202 -0.3940
              Bcc     0.0125     1.676     0.598     0.559  0.6830  0.5667  0.4607
 
              Baa    -0.0251    -3.363    -1.200    -1.122 -0.4086  0.7990  0.4412
    14 C(13)  Bbb     0.0096     1.291     0.461     0.431  0.8305  0.5260 -0.1833
              Bcc     0.0154     2.072     0.739     0.691  0.3785 -0.2915  0.8785
 
              Baa    -0.1119   -15.019    -5.359    -5.010  0.7517  0.2642 -0.6043
    15 C(13)  Bbb    -0.1063   -14.259    -5.088    -4.756  0.2735  0.7089  0.6501
              Bcc     0.2182    29.279    10.447     9.766 -0.6001  0.6539 -0.4606
 
              Baa    -0.0034    -0.454    -0.162    -0.151  0.9937 -0.1123  0.0029
    16 C(13)  Bbb    -0.0012    -0.155    -0.055    -0.052 -0.0660 -0.5623  0.8243
              Bcc     0.0045     0.609     0.217     0.203  0.0909  0.8193  0.5661
 
              Baa    -0.0437    -5.866    -2.093    -1.957 -0.6035  0.7332  0.3134
    17 C(13)  Bbb    -0.0417    -5.594    -1.996    -1.866  0.7352  0.6638 -0.1371
              Bcc     0.0854    11.460     4.089     3.823  0.3086 -0.1477  0.9397
 
              Baa    -0.0677    -9.089    -3.243    -3.032  0.5185 -0.4010  0.7552
    18 C(13)  Bbb     0.0307     4.115     1.468     1.373  0.5442  0.8360  0.0703
              Bcc     0.0371     4.974     1.775     1.659  0.6595 -0.3746 -0.6517
 
              Baa    -0.0543    -7.291    -2.602    -2.432  0.1854  0.0828  0.9792
    19 C(13)  Bbb     0.0237     3.184     1.136     1.062 -0.6239  0.7798  0.0522
              Bcc     0.0306     4.107     1.465     1.370  0.7592  0.6206 -0.1962
 
              Baa    -0.1105   -14.826    -5.290    -4.946  0.2404  0.6114  0.7539
    20 C(13)  Bbb     0.0483     6.481     2.313     2.162 -0.4878 -0.5954  0.6384
              Bcc     0.0622     8.345     2.978     2.784  0.8392 -0.5212  0.1551
 
              Baa    -0.0265    -3.555    -1.269    -1.186 -0.6227  0.7595 -0.1884
    21 C(13)  Bbb    -0.0235    -3.155    -1.126    -1.052  0.7642  0.5385 -0.3548
              Bcc     0.0500     6.710     2.394     2.238  0.1680  0.3650  0.9157
 
              Baa    -0.0602    -8.080    -2.883    -2.695  0.3751  0.9010  0.2181
    22 C(13)  Bbb     0.0237     3.183     1.136     1.062  0.7481 -0.4332  0.5027
              Bcc     0.0365     4.897     1.747     1.634 -0.5474  0.0254  0.8365
 
              Baa    -0.1645   -22.081    -7.879    -7.365  0.1009 -0.5515  0.8281
    23 C(13)  Bbb    -0.1581   -21.215    -7.570    -7.076  0.9589 -0.1681 -0.2288
              Bcc     0.3226    43.296    15.449    14.442  0.2654  0.8171  0.5119
 
              Baa    -0.0100    -1.347    -0.481    -0.449 -0.5410  0.4485  0.7115
    24 C(13)  Bbb    -0.0098    -1.312    -0.468    -0.438  0.8236  0.1110  0.5562
              Bcc     0.0198     2.659     0.949     0.887  0.1704  0.8869 -0.4294
 
              Baa    -0.0219    -2.940    -1.049    -0.981 -0.2191  0.8727  0.4364
    25 C(13)  Bbb    -0.0207    -2.773    -0.989    -0.925  0.8965  0.0035  0.4430
              Bcc     0.0426     5.712     2.038     1.905 -0.3851 -0.4883  0.7831
 
              Baa    -0.0185    -2.481    -0.885    -0.828  0.2718  0.7834 -0.5590
    26 C(13)  Bbb     0.0091     1.223     0.436     0.408  0.8206  0.1148  0.5599
              Bcc     0.0094     1.258     0.449     0.420 -0.5027  0.6109  0.6116
 
              Baa    -0.0246    -3.300    -1.178    -1.101 -0.5994  0.6718 -0.4351
    27 C(13)  Bbb    -0.0236    -3.166    -1.130    -1.056  0.7187  0.6910  0.0767
              Bcc     0.0482     6.466     2.307     2.157 -0.3523  0.2667  0.8971
 
              Baa    -0.0248    -3.331    -1.189    -1.111 -0.4241 -0.0911  0.9010
    28 C(13)  Bbb     0.0121     1.623     0.579     0.541  0.9045  0.0072  0.4264
              Bcc     0.0127     1.708     0.609     0.570 -0.0454  0.9958  0.0794
 
              Baa    -0.0258    -3.466    -1.237    -1.156  0.4724  0.7082 -0.5247
    29 C(13)  Bbb    -0.0250    -3.353    -1.197    -1.119  0.8132 -0.1206  0.5694
              Bcc     0.0508     6.820     2.433     2.275 -0.3400  0.6956  0.6328
 
              Baa    -0.0163    -2.189    -0.781    -0.730 -0.3093  0.4955  0.8117
    30 C(13)  Bbb     0.0077     1.028     0.367     0.343  0.9506  0.1849  0.2494
              Bcc     0.0086     1.160     0.414     0.387 -0.0264  0.8487 -0.5282
 
              Baa    -0.0292    -3.920    -1.399    -1.308 -0.1252  0.8456  0.5190
    31 C(13)  Bbb     0.0135     1.806     0.644     0.602  0.5094 -0.3941  0.7650
              Bcc     0.0158     2.114     0.754     0.705  0.8514  0.3601 -0.3814
 
              Baa    -0.0267    -3.580    -1.278    -1.194 -0.2238  0.9255 -0.3057
    32 C(13)  Bbb     0.0109     1.463     0.522     0.488 -0.4875  0.1653  0.8573
              Bcc     0.0158     2.118     0.756     0.706  0.8439  0.3409  0.4142
 
              Baa    -0.0265    -3.553    -1.268    -1.185  0.1575  0.7225  0.6732
    33 C(13)  Bbb    -0.0253    -3.400    -1.213    -1.134  0.9483  0.0794 -0.3071
              Bcc     0.0518     6.953     2.481     2.319 -0.2754  0.6868 -0.6727
 
              Baa    -0.0158    -2.122    -0.757    -0.708  0.2844 -0.1318  0.9496
    34 C(13)  Bbb    -0.0151    -2.032    -0.725    -0.678  0.9555 -0.0422 -0.2920
              Bcc     0.0310     4.154     1.482     1.386  0.0786  0.9904  0.1140
 
              Baa    -0.0604    -8.101    -2.890    -2.702  0.5595  0.8194  0.1250
    35 C(13)  Bbb    -0.0589    -7.904    -2.820    -2.637  0.8283 -0.5472 -0.1201
              Bcc     0.1193    16.005     5.711     5.339  0.0300 -0.1707  0.9849
 
              Baa    -0.0400    -5.370    -1.916    -1.791  0.0095 -0.5440  0.8390
    36 C(13)  Bbb     0.0183     2.455     0.876     0.819  0.9374  0.2970  0.1819
              Bcc     0.0217     2.914     1.040     0.972 -0.3481  0.7848  0.5128
 
              Baa    -0.0398    -5.337    -1.904    -1.780 -0.2849 -0.1002  0.9533
    37 C(13)  Bbb     0.0173     2.322     0.828     0.774  0.4831  0.8440  0.2331
              Bcc     0.0225     3.015     1.076     1.006  0.8279 -0.5269  0.1921
 
              Baa    -0.0727    -9.755    -3.481    -3.254 -0.1065  0.4561  0.8835
    38 C(13)  Bbb     0.0352     4.725     1.686     1.576  0.9941  0.0670  0.0853
              Bcc     0.0375     5.030     1.795     1.678 -0.0203  0.8874 -0.4605
 
              Baa    -0.0395    -5.301    -1.892    -1.768  0.4981  0.8660  0.0438
    39 C(13)  Bbb    -0.0370    -4.968    -1.773    -1.657  0.7654 -0.4628  0.4472
              Bcc     0.0765    10.269     3.664     3.425 -0.4076  0.1893  0.8933
 
              Baa    -0.0808   -10.845    -3.870    -3.617 -0.0882  0.8969  0.4333
    40 C(13)  Bbb     0.0324     4.342     1.549     1.448  0.1060 -0.4241  0.8994
              Bcc     0.0485     6.502     2.320     2.169  0.9905  0.1252 -0.0577
 
              Baa    -0.0195    -2.615    -0.933    -0.872 -0.0250  0.0194  0.9995
    41 C(13)  Bbb    -0.0177    -2.370    -0.846    -0.790  0.9570  0.2896  0.0183
              Bcc     0.0371     4.985     1.779     1.663 -0.2891  0.9570 -0.0258
 
              Baa    -0.0916   -12.295    -4.387    -4.101 -0.0291 -0.6850  0.7280
    42 C(13)  Bbb    -0.0861   -11.554    -4.123    -3.854  0.9573  0.1903  0.2174
              Bcc     0.1777    23.850     8.510     7.955 -0.2875  0.7033  0.6502
 
              Baa    -0.0236    -3.172    -1.132    -1.058 -0.5264  0.8452 -0.0928
    43 C(13)  Bbb     0.0109     1.460     0.521     0.487  0.1397  0.1937  0.9711
              Bcc     0.0128     1.712     0.611     0.571  0.8387  0.4982 -0.2201
 
              Baa    -0.0095    -1.269    -0.453    -0.423  0.0780 -0.6012  0.7953
    44 C(13)  Bbb     0.0045     0.605     0.216     0.202  0.9042  0.3786  0.1975
              Bcc     0.0049     0.663     0.237     0.221 -0.4198  0.7037  0.5732
 
              Baa    -0.0067    -0.901    -0.321    -0.300  0.7871  0.6092  0.0969
    45 C(13)  Bbb    -0.0064    -0.863    -0.308    -0.288 -0.6166  0.7728  0.1500
              Bcc     0.0131     1.764     0.629     0.588  0.0165 -0.1778  0.9839
 
              Baa    -0.0018    -0.245    -0.087    -0.082 -0.5335  0.6295  0.5649
    46 C(13)  Bbb    -0.0009    -0.124    -0.044    -0.041  0.7681  0.6402  0.0120
              Bcc     0.0028     0.369     0.132     0.123  0.3542 -0.4403  0.8250
 
              Baa    -0.0096    -1.289    -0.460    -0.430  0.0319  0.8960 -0.4429
    47 C(13)  Bbb    -0.0091    -1.225    -0.437    -0.409  0.9990 -0.0426 -0.0141
              Bcc     0.0187     2.514     0.897     0.838  0.0315  0.4420  0.8965
 
              Baa    -0.0154    -2.072    -0.739    -0.691  0.1581  0.1032  0.9820
    48 C(13)  Bbb     0.0077     1.029     0.367     0.343  0.9231  0.3376 -0.1841
              Bcc     0.0078     1.044     0.372     0.348 -0.3505  0.9356 -0.0418
 
              Baa    -0.0116    -1.553    -0.554    -0.518  0.5070 -0.5526  0.6615
    49 C(13)  Bbb    -0.0108    -1.450    -0.517    -0.484  0.8126  0.0504 -0.5806
              Bcc     0.0224     3.003     1.071     1.002  0.2875  0.8319  0.4746
 
              Baa    -0.0183    -2.457    -0.877    -0.820  0.3325  0.6048  0.7236
    50 C(13)  Bbb     0.0091     1.217     0.434     0.406  0.9189 -0.3805 -0.1043
              Bcc     0.0092     1.240     0.442     0.414  0.2123  0.6996 -0.6823
 
              Baa    -0.0149    -1.995    -0.712    -0.666  0.2631  0.9368 -0.2307
    51 C(13)  Bbb     0.0070     0.934     0.333     0.311  0.6065  0.0253  0.7947
              Bcc     0.0079     1.062     0.379     0.354  0.7503 -0.3490 -0.5615
 
              Baa    -0.0092    -1.232    -0.439    -0.411  0.4592  0.2939  0.8383
    52 C(13)  Bbb    -0.0082    -1.098    -0.392    -0.366  0.8130 -0.5194 -0.2633
              Bcc     0.0174     2.330     0.831     0.777  0.3580  0.8024 -0.4774
 
              Baa    -0.0031    -0.420    -0.150    -0.140  0.4081  0.4416  0.7990
    53 C(13)  Bbb    -0.0018    -0.243    -0.087    -0.081 -0.4910  0.8440 -0.2157
              Bcc     0.0049     0.663     0.237     0.221  0.7697  0.3043 -0.5613
 
              Baa    -0.0107    -1.431    -0.511    -0.477  0.5605  0.8114  0.1656
    54 C(13)  Bbb     0.0049     0.652     0.233     0.218  0.3470 -0.4117  0.8426
              Bcc     0.0058     0.778     0.278     0.260  0.7519 -0.4148 -0.5124
 
              Baa    -0.0118    -1.581    -0.564    -0.527  0.8665  0.2786 -0.4142
    55 C(13)  Bbb     0.0056     0.756     0.270     0.252  0.4770 -0.2175  0.8516
              Bcc     0.0061     0.824     0.294     0.275 -0.1472  0.9355  0.3213
 
              Baa    -0.0055    -0.741    -0.264    -0.247 -0.2949  0.3475  0.8901
    56 C(13)  Bbb    -0.0054    -0.729    -0.260    -0.243 -0.5536  0.6972 -0.4556
              Bcc     0.0110     1.470     0.525     0.490  0.7789  0.6271  0.0132
 
              Baa    -0.0064    -0.861    -0.307    -0.287  0.0339  0.7417 -0.6699
    57 C(13)  Bbb    -0.0048    -0.649    -0.232    -0.217  0.4011  0.6038  0.6889
              Bcc     0.0113     1.510     0.539     0.504  0.9154 -0.2921 -0.2770
 
              Baa    -0.0266    -3.572    -1.275    -1.191 -0.5376  0.6996  0.4706
    58 C(13)  Bbb     0.0094     1.267     0.452     0.423 -0.2865 -0.6765  0.6784
              Bcc     0.0172     2.305     0.822     0.769  0.7930  0.2299  0.5642
 
              Baa    -0.0357    -4.791    -1.710    -1.598 -0.3375 -0.4143  0.8453
    59 C(13)  Bbb    -0.0331    -4.447    -1.587    -1.483  0.5636  0.6303  0.5339
              Bcc     0.0688     9.238     3.296     3.081  0.7540 -0.6566 -0.0208
 
              Baa    -0.0071    -0.949    -0.339    -0.317 -0.2007  0.9490 -0.2430
    60 C(13)  Bbb    -0.0052    -0.696    -0.248    -0.232  0.4289  0.3081  0.8492
              Bcc     0.0123     1.646     0.587     0.549  0.8808  0.0663 -0.4689
 
              Baa    -0.0022    -0.297    -0.106    -0.099  0.3803  0.7484 -0.5434
    61 C(13)  Bbb    -0.0012    -0.166    -0.059    -0.055 -0.3553  0.6607  0.6613
              Bcc     0.0034     0.463     0.165     0.154  0.8539 -0.0584  0.5171
 
              Baa    -0.0019    -0.251    -0.089    -0.084  0.7295 -0.1643  0.6640
    62 C(13)  Bbb     0.0007     0.093     0.033     0.031 -0.6821 -0.1029  0.7239
              Bcc     0.0012     0.158     0.056     0.053  0.0506  0.9810  0.1872
 
              Baa    -0.0052    -0.703    -0.251    -0.235  0.7214 -0.5432 -0.4296
    63 C(13)  Bbb    -0.0052    -0.695    -0.248    -0.232  0.2141  0.7649 -0.6076
              Bcc     0.0104     1.399     0.499     0.466  0.6586  0.3463  0.6680
 
              Baa    -0.0058    -0.773    -0.276    -0.258  0.8757  0.4066  0.2603
    64 C(13)  Bbb     0.0023     0.306     0.109     0.102  0.0287 -0.5821  0.8126
              Bcc     0.0035     0.468     0.167     0.156 -0.4819  0.7041  0.5215
 
              Baa    -0.0096    -1.290    -0.460    -0.430  0.8883 -0.4570  0.0456
    65 C(13)  Bbb     0.0034     0.457     0.163     0.152 -0.2267 -0.3499  0.9089
              Bcc     0.0062     0.833     0.297     0.278  0.3994  0.8177  0.4145
 
              Baa    -0.0143    -1.924    -0.686    -0.642  0.0985  0.7503 -0.6537
    66 C(13)  Bbb    -0.0138    -1.850    -0.660    -0.617 -0.0910  0.6609  0.7449
              Bcc     0.0281     3.774     1.347     1.259  0.9910 -0.0139  0.1334
 
              Baa    -0.0579    -3.031    -1.082    -1.011 -0.5078  0.6656 -0.5469
    67 Cl(35) Bbb    -0.0511    -2.675    -0.954    -0.892 -0.3648  0.4090  0.8365
              Bcc     0.1090     5.706     2.036     1.903  0.7804  0.6243  0.0351
 
              Baa    -0.0363    -1.899    -0.677    -0.633 -0.0871  0.9831 -0.1611
    68 Cl(35) Bbb    -0.0293    -1.532    -0.547    -0.511  0.2719  0.1790  0.9455
              Bcc     0.0655     3.430     1.224     1.144  0.9584  0.0386 -0.2829
 
              Baa    -0.0345    -1.806    -0.644    -0.602  0.6825 -0.3192 -0.6575
    69 Cl(35) Bbb     0.0168     0.880     0.314     0.294  0.7238  0.1698  0.6688
              Bcc     0.0177     0.925     0.330     0.309  0.1019  0.9323 -0.3469
 
              Baa    -0.0575    -3.012    -1.075    -1.005  0.8562 -0.1856  0.4821
    70 Cl(35) Bbb    -0.0386    -2.018    -0.720    -0.673 -0.5129 -0.4179  0.7499
              Bcc     0.0961     5.030     1.795     1.678 -0.0623  0.8893  0.4530
 
              Baa    -0.1439    -7.531    -2.687    -2.512  0.7754 -0.6102 -0.1625
    71 Cl(35) Bbb    -0.1235    -6.464    -2.307    -2.156  0.0196 -0.2340  0.9720
              Bcc     0.2674    13.995     4.994     4.668  0.6311  0.7569  0.1695
 

 ---------------------------------------------------------------------------------

 No NMR shielding tensors so no spin-rotation constants.
 Leave Link  601 at Sat Jul 16 16:42:59 2022, MaxMem=  1342177280 cpu:             108.8 elap:               2.5
 (Enter /home/mkliu/g16/l9999.exe)
 1\1\GINC-NODE01\FOpt\UB3LYP\6-311G(d,p)\C66Cl5(2)\MKLIU\16-Jul-2022\0\
 \#P opt b3lyp/6-311G(d, p) empiricaldispersion=GD3\\force\\0,2\C,-1.34
 85480314,1.8859392579,-3.9848810885\C,0.1914965518,2.2460171816,-3.983
 8279023\C,0.9721767667,0.8733487791,-4.3243485368\C,-1.3048722692,0.40
 25218173,-3.8852647064\C,-0.0875161462,-0.1708724501,-4.1753502144\C,-
 2.1768424639,-0.1286820217,-2.9287432011\C,-2.2207770265,2.2839243469,
 -2.6898970038\C,-2.7254226023,0.9259160869,-2.1698949665\C,-1.46230042
 ,2.9623736836,-1.5572143859\C,0.7144485926,2.5665523244,-2.6218522361\
 C,-0.039765649,3.1877230435,-1.6000480026\C,1.9170520444,0.6720825551,
 -3.1382757658\C,1.8624697823,1.8356769571,-2.3041308218\C,2.2637131753
 ,-0.5403316043,-2.5992102175\C,0.1935013706,-1.4172243182,-3.651989693
 8\C,1.5987764472,-1.7983691478,-3.1919298043\C,-1.9527104557,-1.427352
 806,-2.3962353126\C,-0.7751265247,-2.0863732543,-2.8687869884\C,-2.480
 7122867,-1.7368263704,-1.0852431902\C,-3.1231702122,0.7060659295,-0.84
 29120969\C,-3.0933032792,-0.6583122152,-0.300338776\C,-2.0725239433,2.
 8999535584,-0.3120062375\C,-2.996469564,1.8146918084,0.0466502374\C,-1
 .3892301374,3.2888178576,0.895776982\C,0.657987755,3.4387963548,-0.393
 7851162\C,-0.0324750597,3.5877663827,0.8578700611\C,2.4408333744,1.854
 28286,-1.0075233734\C,1.9287604992,2.8247306295,-0.1226097765\C,2.8955
 821136,-0.5920378493,-1.2750581481\C,3.0502585311,0.6399069255,-0.5004
 135436\C,2.9280847385,-1.8175979985,-0.5751750254\C,1.2971470202,-2.82
 61340634,-2.1224346095\C,-0.1125618836,-3.0578247539,-2.0436951177\C,2
 .0430576941,-2.9243900157,-0.9825526558\C,-1.9316130129,-2.8538582871,
 -0.4041973151\C,-0.7104129492,-3.4863585664,-0.8723547658\C,-1.9220740
 615,-2.930838701,1.025916619\C,-3.1418866147,-0.8071700766,1.103628830
 9\C,-2.5240816092,-1.9279504151,1.7681250535\C,-2.9077116043,1.6145357
 983,1.4533122125\C,-1.9275228483,2.5379431193,2.0054041151\C,-3.019710
 1997,0.334314158,1.9863045361\C,-1.1060550271,2.141532341,3.0525019045
 \C,0.8345523811,3.1379956106,1.923810616\C,2.0584118851,2.671425707,1.
 3013141853\C,0.3134283342,2.4501440496,3.0146674136\C,3.2551686629,0.5
 58644672,0.898953893\C,2.7229094347,1.5686351549,1.801606538\C,3.01626
 29459,-1.8614050309,0.8495991601\C,3.2034788009,-0.6950006742,1.582837
 2408\C,1.4747110498,-3.5002909399,0.2146191393\C,0.1078864109,-3.80423
 82035,0.2680300474\C,-0.6509524518,-3.4957453268,1.4560791238\C,2.1113
 219746,-2.8887938517,1.3540347741\C,-0.0180426866,-2.9768300408,2.5810
 659362\C,1.3995478168,-2.6679238415,2.5281624999\C,-1.9149080258,-1.46
 17234303,2.9974157255\C,-2.2194227954,-0.0543521254,3.1300725346\C,-1.
 260971407,0.8215537848,3.6398985273\C,-0.6672479798,-1.9535740079,3.37
 73739832\C,1.0300412968,1.3192141798,3.5677070845\C,2.233228273,0.9043
 40889,2.9913359196\C,2.5297590932,-0.5044169439,2.855420817\C,1.620157
 2034,-1.457152844,3.3037965791\C,0.0566323912,0.3252178215,3.983236414
 6\C,0.3490900274,-1.0331910181,3.8541466144\Cl,-2.1388041344,2.3018289
 701,-5.5625237959\Cl,0.6239482661,3.6617595111,-5.02573716\Cl,1.845098
 8815,0.822935086,-5.902103657\Cl,2.6303112729,-2.5415916429,-4.5320698
 06\Cl,-3.6512694435,3.3768146024,-3.0822260847\\Version=ES64L-G16RevA.
 03\State=2-A\HF=-4816.533712\S2=0.8021\S2-1=0.\S2A=0.752583\RMSD=3.550
 e-09\RMSF=3.131e-05\Dipole=-0.022463,-0.5031134,1.6458168\Quadrupole=1
 .9749456,2.2424129,-4.2173585,5.2438847,1.5644414,2.8393523\PG=C01 [X(
 C66Cl5)]\\@


 WERE I TO AWAIT PERFECTION, MY BOOK WOULD NEVER BE FINISHED.
                                    -- HISTORY OF CHINESE WRITING

                                       TAI T'UNG, 13TH CENTURY
 Job cpu time:       4 days  5 hours  2 minutes 45.2 seconds.
 Elapsed time:       0 days  2 hours  6 minutes 30.7 seconds.
 File lengths (MBytes):  RWF=   1887 Int=      0 D2E=      0 Chk=    170 Scr=      1
 Normal termination of Gaussian 16 at Sat Jul 16 16:42:59 2022.
