 Entering Gaussian System, Link 0=g16
 Input=dqwuc3nfo05j4_addon_6.gjf
 Output=dqwuc3nfo05j4_addon_6.log
 Initial command:
 /home/mkliu/g16/l1.exe "/data/scratch/Gau-220367.inp" -scrdir="/data/scratch/"
 Entering Link 1 = /home/mkliu/g16/l1.exe PID=    220368.
  
 Copyright (c) 1988,1990,1992,1993,1995,1998,2003,2009,2016,
            Gaussian, Inc.  All Rights Reserved.
  
 This is part of the Gaussian(R) 16 program.  It is based on
 the Gaussian(R) 09 system (copyright 2009, Gaussian, Inc.),
 the Gaussian(R) 03 system (copyright 2003, Gaussian, Inc.),
 the Gaussian(R) 98 system (copyright 1998, Gaussian, Inc.),
 the Gaussian(R) 94 system (copyright 1995, Gaussian, Inc.),
 the Gaussian 92(TM) system (copyright 1992, Gaussian, Inc.),
 the Gaussian 90(TM) system (copyright 1990, Gaussian, Inc.),
 the Gaussian 88(TM) system (copyright 1988, Gaussian, Inc.),
 the Gaussian 86(TM) system (copyright 1986, Carnegie Mellon
 University), and the Gaussian 82(TM) system (copyright 1983,
 Carnegie Mellon University). Gaussian is a federally registered
 trademark of Gaussian, Inc.
  
 This software contains proprietary and confidential information,
 including trade secrets, belonging to Gaussian, Inc.
  
 This software is provided under written license and may be
 used, copied, transmitted, or stored only in accord with that
 written license.
  
 The following legend is applicable only to US Government
 contracts under FAR:
  
                    RESTRICTED RIGHTS LEGEND
  
 Use, reproduction and disclosure by the US Government is
 subject to restrictions as set forth in subparagraphs (a)
 and (c) of the Commercial Computer Software - Restricted
 Rights clause in FAR 52.227-19.
  
 Gaussian, Inc.
 340 Quinnipiac St., Bldg. 40, Wallingford CT 06492
  
  
 ---------------------------------------------------------------
 Warning -- This program may not be used in any manner that
 competes with the business of Gaussian, Inc. or will provide
 assistance to any competitor of Gaussian, Inc.  The licensee
 of this program is prohibited from giving any competitor of
 Gaussian, Inc. access to this program.  By using this program,
 the user acknowledges that Gaussian, Inc. is engaged in the
 business of creating and licensing software in the field of
 computational chemistry and represents and warrants to the
 licensee that it is not a competitor of Gaussian, Inc. and that
 it will not use this program in any manner prohibited above.
 ---------------------------------------------------------------
  

 Cite this work as:
 Gaussian 16, Revision A.03,
 M. J. Frisch, G. W. Trucks, H. B. Schlegel, G. E. Scuseria, 
 M. A. Robb, J. R. Cheeseman, G. Scalmani, V. Barone, 
 G. A. Petersson, H. Nakatsuji, X. Li, M. Caricato, A. V. Marenich, 
 J. Bloino, B. G. Janesko, R. Gomperts, B. Mennucci, H. P. Hratchian, 
 J. V. Ortiz, A. F. Izmaylov, J. L. Sonnenberg, D. Williams-Young, 
 F. Ding, F. Lipparini, F. Egidi, J. Goings, B. Peng, A. Petrone, 
 T. Henderson, D. Ranasinghe, V. G. Zakrzewski, J. Gao, N. Rega, 
 G. Zheng, W. Liang, M. Hada, M. Ehara, K. Toyota, R. Fukuda, 
 J. Hasegawa, M. Ishida, T. Nakajima, Y. Honda, O. Kitao, H. Nakai, 
 T. Vreven, K. Throssell, J. A. Montgomery, Jr., J. E. Peralta, 
 F. Ogliaro, M. J. Bearpark, J. J. Heyd, E. N. Brothers, K. N. Kudin, 
 V. N. Staroverov, T. A. Keith, R. Kobayashi, J. Normand, 
 K. Raghavachari, A. P. Rendell, J. C. Burant, S. S. Iyengar, 
 J. Tomasi, M. Cossi, J. M. Millam, M. Klene, C. Adamo, R. Cammi, 
 J. W. Ochterski, R. L. Martin, K. Morokuma, O. Farkas, 
 J. B. Foresman, and D. J. Fox, Gaussian, Inc., Wallingford CT, 2016.
 
 ******************************************
 Gaussian 16:  ES64L-G16RevA.03 25-Dec-2016
                15-Jul-2022 
 ******************************************
 %mem=10GB
 %chk=dqwuc3nfo05j4_addon_6.chk
 %nprocshared=48
 Will use up to   48 processors via shared memory.
 -------------------------------------------------
 #P opt b3lyp/6-311G(d, p) empiricaldispersion=GD3
 -------------------------------------------------
 1/18=20,19=15,26=3,38=1/1,3;
 2/9=110,12=2,17=6,18=5,40=1/2;
 3/5=4,6=6,7=101,11=2,25=1,30=1,71=1,74=-5,124=31/1,2,3;
 4//1;
 5/5=2,38=5/2;
 6/7=2,8=2,9=2,10=2,28=1/1;
 7//1,2,3,16;
 1/18=20,19=15,26=3/3(2);
 2/9=110/2;
 99//99;
 2/9=110/2;
 3/5=4,6=6,7=101,11=2,25=1,30=1,71=1,74=-5,124=31/1,2,3;
 4/5=5,16=3,69=1/1;
 5/5=2,38=5/2;
 7//1,2,3,16;
 1/18=20,19=15,26=3/3(-5);
 2/9=110/2;
 6/7=2,8=2,9=2,10=2,19=2,28=1/1;
 99/9=1/99;
 Leave Link    1 at Fri Jul 15 17:48:58 2022, MaxMem=  1342177280 cpu:               2.1 elap:               0.1
 (Enter /home/mkliu/g16/l101.exe)
 -----
 force
 -----
 Symbolic Z-matrix:
 Charge =  0 Multiplicity = 1
 C                    -1.34494   1.88048  -3.95823 
 C                     0.18208   2.21628  -3.98318 
 C                     0.98339   0.90735  -4.3025 
 C                    -1.26347   0.41379  -3.82011 
 C                    -0.04694  -0.14448  -4.11308 
 C                    -2.11133  -0.10959  -2.86539 
 C                    -2.20994   2.28498  -2.72609 
 C                    -2.69598   0.95488  -2.12631 
 C                    -1.48673   2.90533  -1.5584 
 C                     0.66315   2.4898   -2.61372 
 C                    -0.06304   3.11819  -1.60002 
 C                     1.90927   0.6681   -3.12098 
 C                     1.81696   1.79489  -2.26603 
 C                     2.25971  -0.54291  -2.58459 
 C                     0.23166  -1.38312  -3.59056 
 C                     1.63182  -1.7963   -3.17037 
 C                    -1.89491  -1.38424  -2.34079 
 C                    -0.73062  -2.03804  -2.80639 
 C                    -2.43926  -1.67732  -1.04736 
 C                    -3.10001   0.73083  -0.84848 
 C                    -3.04883  -0.61749  -0.29083 
 C                    -2.08831   2.86705  -0.33457 
 C                    -3.23036   1.93845   0.04438 
 C                    -1.37983   3.22233   0.86601 
 C                     0.63171   3.34585  -0.40648 
 C                    -0.0378    3.50951   0.83386 
 C                     2.41661   1.79825  -0.99659 
 C                     1.89312   2.74938  -0.12548 
 C                     2.9021   -0.61178  -1.27735 
 C                     3.03399   0.59425  -0.50969 
 C                     2.92108  -1.82817  -0.57807 
 C                     1.32052  -2.81749  -2.12181 
 C                    -0.08492  -3.02681  -2.0143 
 C                     2.05119  -2.92994  -0.98242 
 C                    -1.89634  -2.80319  -0.39056 
 C                    -0.69578  -3.44804  -0.85241 
 C                    -1.90352  -2.88897   1.0313 
 C                    -3.12488  -0.77716   1.09452 
 C                    -2.51445  -1.88384   1.75473 
 C                    -2.91309   1.63891   1.47155 
 C                    -1.91512   2.51305   1.98468 
 C                    -3.00336   0.37727   1.98056 
 C                    -1.08175   2.11963   3.03018 
 C                     0.83319   3.08445   1.89425 
 C                     2.04128   2.6098    1.28211 
 C                     0.32233   2.41354   2.98392 
 C                     3.24061   0.5231    0.88423 
 C                     2.72767   1.52232   1.78034 
 C                     3.01     -1.88058   0.84107 
 C                     3.1966   -0.72287   1.57394 
 C                     1.47226  -3.49723   0.20791 
 C                     0.11738  -3.78108   0.27416 
 C                    -0.64951  -3.46116   1.44551 
 C                     2.10927  -2.89225   1.33896 
 C                    -0.01427  -2.94451   2.55792 
 C                     1.39321  -2.65359   2.5014 
 C                    -1.90154  -1.42467   2.97369 
 C                    -2.19229  -0.02598   3.09617 
 C                    -1.2284    0.82457   3.61145 
 C                    -0.66074  -1.92113   3.336 
 C                     1.05341   1.29677   3.53758 
 C                     2.24162   0.8778    2.96868 
 C                     2.53169  -0.52389   2.83459 
 C                     1.61446  -1.45807   3.27216 
 C                     0.07983   0.32409   3.95084 
 C                     0.35688  -1.02591   3.81649 
 Cl                   -2.08659   2.34364  -5.52043 
 Cl                    0.51297   3.63596  -5.01941 
 Cl                    1.82175   0.80856  -5.85654 
 Cl                    2.65787  -2.40804  -4.51489 
 Cl                   -3.59109   3.34933  -3.14106 
 Cl                   -4.87218   2.66696  -0.1602 
 
 ITRead=  0  0  0  0  0  0  0  0  0  0  0  0  0  0  0  0  0  0  0  0
 ITRead=  0  0  0  0  0  0  0  0  0  0  0  0  0  0  0  0  0  0  0  0
 ITRead=  0  0  0  0  0  0  0  0  0  0  0  0  0  0  0  0  0  0  0  0
 ITRead=  0  0  0  0  0  0  0  0  0  0  0  0
 MicOpt= -1 -1 -1 -1 -1 -1 -1 -1 -1 -1 -1 -1 -1 -1 -1 -1 -1 -1 -1 -1
 MicOpt= -1 -1 -1 -1 -1 -1 -1 -1 -1 -1 -1 -1 -1 -1 -1 -1 -1 -1 -1 -1
 MicOpt= -1 -1 -1 -1 -1 -1 -1 -1 -1 -1 -1 -1 -1 -1 -1 -1 -1 -1 -1 -1
 MicOpt= -1 -1 -1 -1 -1 -1 -1 -1 -1 -1 -1 -1
 NAtoms=     72 NQM=       72 NQMF=       0 NMMI=      0 NMMIF=      0
                NMic=       0 NMicF=      0.
                    Isotopes and Nuclear Properties:
 (Nuclear quadrupole moments (NQMom) in fm**2, nuclear magnetic moments (NMagM)
  in nuclear magnetons)

  Atom         1           2           3           4           5           6           7           8           9          10
 IAtWgt=          12          12          12          12          12          12          12          12          12          12
 AtmWgt=  12.0000000  12.0000000  12.0000000  12.0000000  12.0000000  12.0000000  12.0000000  12.0000000  12.0000000  12.0000000
 NucSpn=           0           0           0           0           0           0           0           0           0           0
 AtZEff=  -0.0000000  -0.0000000  -0.0000000  -0.0000000  -0.0000000  -0.0000000  -0.0000000  -0.0000000  -0.0000000  -0.0000000
 NQMom=    0.0000000   0.0000000   0.0000000   0.0000000   0.0000000   0.0000000   0.0000000   0.0000000   0.0000000   0.0000000
 NMagM=    0.0000000   0.0000000   0.0000000   0.0000000   0.0000000   0.0000000   0.0000000   0.0000000   0.0000000   0.0000000
 AtZNuc=   6.0000000   6.0000000   6.0000000   6.0000000   6.0000000   6.0000000   6.0000000   6.0000000   6.0000000   6.0000000

  Atom        11          12          13          14          15          16          17          18          19          20
 IAtWgt=          12          12          12          12          12          12          12          12          12          12
 AtmWgt=  12.0000000  12.0000000  12.0000000  12.0000000  12.0000000  12.0000000  12.0000000  12.0000000  12.0000000  12.0000000
 NucSpn=           0           0           0           0           0           0           0           0           0           0
 AtZEff=  -0.0000000  -0.0000000  -0.0000000  -0.0000000  -0.0000000  -0.0000000  -0.0000000  -0.0000000  -0.0000000  -0.0000000
 NQMom=    0.0000000   0.0000000   0.0000000   0.0000000   0.0000000   0.0000000   0.0000000   0.0000000   0.0000000   0.0000000
 NMagM=    0.0000000   0.0000000   0.0000000   0.0000000   0.0000000   0.0000000   0.0000000   0.0000000   0.0000000   0.0000000
 AtZNuc=   6.0000000   6.0000000   6.0000000   6.0000000   6.0000000   6.0000000   6.0000000   6.0000000   6.0000000   6.0000000

  Atom        21          22          23          24          25          26          27          28          29          30
 IAtWgt=          12          12          12          12          12          12          12          12          12          12
 AtmWgt=  12.0000000  12.0000000  12.0000000  12.0000000  12.0000000  12.0000000  12.0000000  12.0000000  12.0000000  12.0000000
 NucSpn=           0           0           0           0           0           0           0           0           0           0
 AtZEff=  -0.0000000  -0.0000000  -0.0000000  -0.0000000  -0.0000000  -0.0000000  -0.0000000  -0.0000000  -0.0000000  -0.0000000
 NQMom=    0.0000000   0.0000000   0.0000000   0.0000000   0.0000000   0.0000000   0.0000000   0.0000000   0.0000000   0.0000000
 NMagM=    0.0000000   0.0000000   0.0000000   0.0000000   0.0000000   0.0000000   0.0000000   0.0000000   0.0000000   0.0000000
 AtZNuc=   6.0000000   6.0000000   6.0000000   6.0000000   6.0000000   6.0000000   6.0000000   6.0000000   6.0000000   6.0000000

  Atom        31          32          33          34          35          36          37          38          39          40
 IAtWgt=          12          12          12          12          12          12          12          12          12          12
 AtmWgt=  12.0000000  12.0000000  12.0000000  12.0000000  12.0000000  12.0000000  12.0000000  12.0000000  12.0000000  12.0000000
 NucSpn=           0           0           0           0           0           0           0           0           0           0
 AtZEff=  -0.0000000  -0.0000000  -0.0000000  -0.0000000  -0.0000000  -0.0000000  -0.0000000  -0.0000000  -0.0000000  -0.0000000
 NQMom=    0.0000000   0.0000000   0.0000000   0.0000000   0.0000000   0.0000000   0.0000000   0.0000000   0.0000000   0.0000000
 NMagM=    0.0000000   0.0000000   0.0000000   0.0000000   0.0000000   0.0000000   0.0000000   0.0000000   0.0000000   0.0000000
 AtZNuc=   6.0000000   6.0000000   6.0000000   6.0000000   6.0000000   6.0000000   6.0000000   6.0000000   6.0000000   6.0000000

  Atom        41          42          43          44          45          46          47          48          49          50
 IAtWgt=          12          12          12          12          12          12          12          12          12          12
 AtmWgt=  12.0000000  12.0000000  12.0000000  12.0000000  12.0000000  12.0000000  12.0000000  12.0000000  12.0000000  12.0000000
 NucSpn=           0           0           0           0           0           0           0           0           0           0
 AtZEff=  -0.0000000  -0.0000000  -0.0000000  -0.0000000  -0.0000000  -0.0000000  -0.0000000  -0.0000000  -0.0000000  -0.0000000
 NQMom=    0.0000000   0.0000000   0.0000000   0.0000000   0.0000000   0.0000000   0.0000000   0.0000000   0.0000000   0.0000000
 NMagM=    0.0000000   0.0000000   0.0000000   0.0000000   0.0000000   0.0000000   0.0000000   0.0000000   0.0000000   0.0000000
 AtZNuc=   6.0000000   6.0000000   6.0000000   6.0000000   6.0000000   6.0000000   6.0000000   6.0000000   6.0000000   6.0000000

  Atom        51          52          53          54          55          56          57          58          59          60
 IAtWgt=          12          12          12          12          12          12          12          12          12          12
 AtmWgt=  12.0000000  12.0000000  12.0000000  12.0000000  12.0000000  12.0000000  12.0000000  12.0000000  12.0000000  12.0000000
 NucSpn=           0           0           0           0           0           0           0           0           0           0
 AtZEff=  -0.0000000  -0.0000000  -0.0000000  -0.0000000  -0.0000000  -0.0000000  -0.0000000  -0.0000000  -0.0000000  -0.0000000
 NQMom=    0.0000000   0.0000000   0.0000000   0.0000000   0.0000000   0.0000000   0.0000000   0.0000000   0.0000000   0.0000000
 NMagM=    0.0000000   0.0000000   0.0000000   0.0000000   0.0000000   0.0000000   0.0000000   0.0000000   0.0000000   0.0000000
 AtZNuc=   6.0000000   6.0000000   6.0000000   6.0000000   6.0000000   6.0000000   6.0000000   6.0000000   6.0000000   6.0000000

  Atom        61          62          63          64          65          66          67          68          69          70
 IAtWgt=          12          12          12          12          12          12          35          35          35          35
 AtmWgt=  12.0000000  12.0000000  12.0000000  12.0000000  12.0000000  12.0000000  34.9688527  34.9688527  34.9688527  34.9688527
 NucSpn=           0           0           0           0           0           0           3           3           3           3
 AtZEff=  -0.0000000  -0.0000000  -0.0000000  -0.0000000  -0.0000000  -0.0000000  -0.0000000  -0.0000000  -0.0000000  -0.0000000
 NQMom=    0.0000000   0.0000000   0.0000000   0.0000000   0.0000000   0.0000000  -8.1650000  -8.1650000  -8.1650000  -8.1650000
 NMagM=    0.0000000   0.0000000   0.0000000   0.0000000   0.0000000   0.0000000   0.8218740   0.8218740   0.8218740   0.8218740
 AtZNuc=   6.0000000   6.0000000   6.0000000   6.0000000   6.0000000   6.0000000  17.0000000  17.0000000  17.0000000  17.0000000

  Atom        71          72
 IAtWgt=          35          35
 AtmWgt=  34.9688527  34.9688527
 NucSpn=           3           3
 AtZEff=  -0.0000000  -0.0000000
 NQMom=   -8.1650000  -8.1650000
 NMagM=    0.8218740   0.8218740
 AtZNuc=  17.0000000  17.0000000
 Leave Link  101 at Fri Jul 15 17:48:59 2022, MaxMem=  1342177280 cpu:              13.4 elap:               0.3
 (Enter /home/mkliu/g16/l103.exe)

 GradGradGradGradGradGradGradGradGradGradGradGradGradGradGradGradGradGrad
 Berny optimization.
 Initialization pass.
                           ----------------------------
                           !    Initial Parameters    !
                           ! (Angstroms and Degrees)  !
 --------------------------                            --------------------------
 ! Name  Definition              Value          Derivative Info.                !
 --------------------------------------------------------------------------------
 ! R1    R(1,2)                  1.5637         estimate D2E/DX2                !
 ! R2    R(1,4)                  1.4754         estimate D2E/DX2                !
 ! R3    R(1,7)                  1.5588         estimate D2E/DX2                !
 ! R4    R(1,67)                 1.7903         estimate D2E/DX2                !
 ! R5    R(2,3)                  1.5676         estimate D2E/DX2                !
 ! R6    R(2,10)                 1.4771         estimate D2E/DX2                !
 ! R7    R(2,68)                 1.7885         estimate D2E/DX2                !
 ! R8    R(3,5)                  1.4845         estimate D2E/DX2                !
 ! R9    R(3,12)                 1.52           estimate D2E/DX2                !
 ! R10   R(3,69)                 1.7685         estimate D2E/DX2                !
 ! R11   R(4,5)                  1.3702         estimate D2E/DX2                !
 ! R12   R(4,6)                  1.38           estimate D2E/DX2                !
 ! R13   R(5,15)                 1.3729         estimate D2E/DX2                !
 ! R14   R(6,8)                  1.4217         estimate D2E/DX2                !
 ! R15   R(6,17)                 1.3953         estimate D2E/DX2                !
 ! R16   R(7,8)                  1.5379         estimate D2E/DX2                !
 ! R17   R(7,9)                  1.5071         estimate D2E/DX2                !
 ! R18   R(7,71)                 1.7924         estimate D2E/DX2                !
 ! R19   R(8,20)                 1.3588         estimate D2E/DX2                !
 ! R20   R(9,11)                 1.4401         estimate D2E/DX2                !
 ! R21   R(9,22)                 1.3642         estimate D2E/DX2                !
 ! R22   R(10,11)                1.3963         estimate D2E/DX2                !
 ! R23   R(10,13)                1.3911         estimate D2E/DX2                !
 ! R24   R(11,25)                1.3997         estimate D2E/DX2                !
 ! R25   R(12,13)                1.4174         estimate D2E/DX2                !
 ! R26   R(12,14)                1.3701         estimate D2E/DX2                !
 ! R27   R(13,27)                1.4039         estimate D2E/DX2                !
 ! R28   R(14,16)                1.5193         estimate D2E/DX2                !
 ! R29   R(14,29)                1.4582         estimate D2E/DX2                !
 ! R30   R(15,16)                1.5191         estimate D2E/DX2                !
 ! R31   R(15,18)                1.4035         estimate D2E/DX2                !
 ! R32   R(16,32)                1.4964         estimate D2E/DX2                !
 ! R33   R(16,70)                1.7985         estimate D2E/DX2                !
 ! R34   R(17,18)                1.4141         estimate D2E/DX2                !
 ! R35   R(17,19)                1.4336         estimate D2E/DX2                !
 ! R36   R(18,33)                1.422          estimate D2E/DX2                !
 ! R37   R(19,21)                1.4378         estimate D2E/DX2                !
 ! R38   R(19,35)                1.412          estimate D2E/DX2                !
 ! R39   R(20,21)                1.46           estimate D2E/DX2                !
 ! R40   R(20,23)                1.5075         estimate D2E/DX2                !
 ! R41   R(21,38)                1.3966         estimate D2E/DX2                !
 ! R42   R(22,23)                1.5199         estimate D2E/DX2                !
 ! R43   R(22,24)                1.4386         estimate D2E/DX2                !
 ! R44   R(23,40)                1.4924         estimate D2E/DX2                !
 ! R45   R(23,72)                1.8078         estimate D2E/DX2                !
 ! R46   R(24,26)                1.3728         estimate D2E/DX2                !
 ! R47   R(24,41)                1.4286         estimate D2E/DX2                !
 ! R48   R(25,26)                1.419          estimate D2E/DX2                !
 ! R49   R(25,28)                1.4233         estimate D2E/DX2                !
 ! R50   R(26,44)                1.4366         estimate D2E/DX2                !
 ! R51   R(27,28)                1.392          estimate D2E/DX2                !
 ! R52   R(27,30)                1.438          estimate D2E/DX2                !
 ! R53   R(28,45)                1.4222         estimate D2E/DX2                !
 ! R54   R(29,30)                1.4357         estimate D2E/DX2                !
 ! R55   R(29,31)                1.4032         estimate D2E/DX2                !
 ! R56   R(30,47)                1.4109         estimate D2E/DX2                !
 ! R57   R(31,34)                1.4609         estimate D2E/DX2                !
 ! R58   R(31,49)                1.4229         estimate D2E/DX2                !
 ! R59   R(32,33)                1.425          estimate D2E/DX2                !
 ! R60   R(32,34)                1.3582         estimate D2E/DX2                !
 ! R61   R(33,36)                1.3786         estimate D2E/DX2                !
 ! R62   R(34,51)                1.4401         estimate D2E/DX2                !
 ! R63   R(35,36)                1.4389         estimate D2E/DX2                !
 ! R64   R(35,37)                1.4245         estimate D2E/DX2                !
 ! R65   R(36,52)                1.4287         estimate D2E/DX2                !
 ! R66   R(37,39)                1.3809         estimate D2E/DX2                !
 ! R67   R(37,53)                1.4393         estimate D2E/DX2                !
 ! R68   R(38,39)                1.4259         estimate D2E/DX2                !
 ! R69   R(38,42)                1.4603         estimate D2E/DX2                !
 ! R70   R(39,57)                1.4396         estimate D2E/DX2                !
 ! R71   R(40,41)                1.4224         estimate D2E/DX2                !
 ! R72   R(40,42)                1.3635         estimate D2E/DX2                !
 ! R73   R(41,43)                1.3937         estimate D2E/DX2                !
 ! R74   R(42,58)                1.437          estimate D2E/DX2                !
 ! R75   R(43,46)                1.4353         estimate D2E/DX2                !
 ! R76   R(43,59)                1.4271         estimate D2E/DX2                !
 ! R77   R(44,45)                1.4351         estimate D2E/DX2                !
 ! R78   R(44,46)                1.3779         estimate D2E/DX2                !
 ! R79   R(45,48)                1.3791         estimate D2E/DX2                !
 ! R80   R(46,61)                1.4451         estimate D2E/DX2                !
 ! R81   R(47,48)                1.4369         estimate D2E/DX2                !
 ! R82   R(47,50)                1.4248         estimate D2E/DX2                !
 ! R83   R(48,62)                1.4366         estimate D2E/DX2                !
 ! R84   R(49,50)                1.3828         estimate D2E/DX2                !
 ! R85   R(49,54)                1.4432         estimate D2E/DX2                !
 ! R86   R(50,63)                1.4391         estimate D2E/DX2                !
 ! R87   R(51,52)                1.3859         estimate D2E/DX2                !
 ! R88   R(51,54)                1.4321         estimate D2E/DX2                !
 ! R89   R(52,53)                1.4362         estimate D2E/DX2                !
 ! R90   R(53,55)                1.3813         estimate D2E/DX2                !
 ! R91   R(54,56)                1.386          estimate D2E/DX2                !
 ! R92   R(55,56)                1.4383         estimate D2E/DX2                !
 ! R93   R(55,60)                1.439          estimate D2E/DX2                !
 ! R94   R(56,64)                1.4395         estimate D2E/DX2                !
 ! R95   R(57,58)                1.4338         estimate D2E/DX2                !
 ! R96   R(57,60)                1.3847         estimate D2E/DX2                !
 ! R97   R(58,59)                1.3849         estimate D2E/DX2                !
 ! R98   R(59,65)                1.4412         estimate D2E/DX2                !
 ! R99   R(60,66)                1.438          estimate D2E/DX2                !
 ! R100  R(61,62)                1.3824         estimate D2E/DX2                !
 ! R101  R(61,65)                1.4369         estimate D2E/DX2                !
 ! R102  R(62,63)                1.4377         estimate D2E/DX2                !
 ! R103  R(63,64)                1.3804         estimate D2E/DX2                !
 ! R104  R(64,66)                1.4369         estimate D2E/DX2                !
 ! R105  R(65,66)                1.3847         estimate D2E/DX2                !
 ! A1    A(2,1,4)               99.2674         estimate D2E/DX2                !
 ! A2    A(2,1,7)              119.9185         estimate D2E/DX2                !
 ! A3    A(2,1,67)             109.5766         estimate D2E/DX2                !
 ! A4    A(4,1,7)              102.3922         estimate D2E/DX2                !
 ! A5    A(4,1,67)             111.2072         estimate D2E/DX2                !
 ! A6    A(7,1,67)             113.1236         estimate D2E/DX2                !
 ! A7    A(1,2,3)              108.8519         estimate D2E/DX2                !
 ! A8    A(1,2,10)             110.0614         estimate D2E/DX2                !
 ! A9    A(1,2,68)             111.1232         estimate D2E/DX2                !
 ! A10   A(3,2,10)             100.1954         estimate D2E/DX2                !
 ! A11   A(3,2,68)             116.757          estimate D2E/DX2                !
 ! A12   A(10,2,68)            109.2643         estimate D2E/DX2                !
 ! A13   A(2,3,5)              102.1719         estimate D2E/DX2                !
 ! A14   A(2,3,12)             106.5263         estimate D2E/DX2                !
 ! A15   A(2,3,69)             117.902          estimate D2E/DX2                !
 ! A16   A(5,3,12)             102.2428         estimate D2E/DX2                !
 ! A17   A(5,3,69)             113.6753         estimate D2E/DX2                !
 ! A18   A(12,3,69)            112.6743         estimate D2E/DX2                !
 ! A19   A(1,4,5)              115.724          estimate D2E/DX2                !
 ! A20   A(1,4,6)              114.0704         estimate D2E/DX2                !
 ! A21   A(5,4,6)              122.6088         estimate D2E/DX2                !
 ! A22   A(3,5,4)              110.7818         estimate D2E/DX2                !
 ! A23   A(3,5,15)             123.1587         estimate D2E/DX2                !
 ! A24   A(4,5,15)             117.7999         estimate D2E/DX2                !
 ! A25   A(4,6,8)              109.1692         estimate D2E/DX2                !
 ! A26   A(4,6,17)             120.7509         estimate D2E/DX2                !
 ! A27   A(8,6,17)             123.5282         estimate D2E/DX2                !
 ! A28   A(1,7,8)              105.023          estimate D2E/DX2                !
 ! A29   A(1,7,9)              116.9325         estimate D2E/DX2                !
 ! A30   A(1,7,71)             113.4957         estimate D2E/DX2                !
 ! A31   A(8,7,9)              101.8583         estimate D2E/DX2                !
 ! A32   A(8,7,71)             111.1213         estimate D2E/DX2                !
 ! A33   A(9,7,71)             107.7412         estimate D2E/DX2                !
 ! A34   A(6,8,7)              108.3524         estimate D2E/DX2                !
 ! A35   A(6,8,20)             119.1899         estimate D2E/DX2                !
 ! A36   A(7,8,20)             127.1105         estimate D2E/DX2                !
 ! A37   A(7,9,11)             120.8531         estimate D2E/DX2                !
 ! A38   A(7,9,22)             118.1574         estimate D2E/DX2                !
 ! A39   A(11,9,22)            117.7757         estimate D2E/DX2                !
 ! A40   A(2,10,11)            125.947          estimate D2E/DX2                !
 ! A41   A(2,10,13)            114.1653         estimate D2E/DX2                !
 ! A42   A(11,10,13)           118.3415         estimate D2E/DX2                !
 ! A43   A(9,11,10)            117.9434         estimate D2E/DX2                !
 ! A44   A(9,11,25)            119.3475         estimate D2E/DX2                !
 ! A45   A(10,11,25)           115.7283         estimate D2E/DX2                !
 ! A46   A(3,12,13)            107.7007         estimate D2E/DX2                !
 ! A47   A(3,12,14)            126.8161         estimate D2E/DX2                !
 ! A48   A(13,12,14)           118.8937         estimate D2E/DX2                !
 ! A49   A(10,13,12)           107.4808         estimate D2E/DX2                !
 ! A50   A(10,13,27)           125.3852         estimate D2E/DX2                !
 ! A51   A(12,13,27)           121.296          estimate D2E/DX2                !
 ! A52   A(12,14,16)           118.1993         estimate D2E/DX2                !
 ! A53   A(12,14,29)           120.3587         estimate D2E/DX2                !
 ! A54   A(16,14,29)           119.2576         estimate D2E/DX2                !
 ! A55   A(5,15,16)            122.5269         estimate D2E/DX2                !
 ! A56   A(5,15,18)            119.6375         estimate D2E/DX2                !
 ! A57   A(16,15,18)           110.5163         estimate D2E/DX2                !
 ! A58   A(14,16,15)           105.2582         estimate D2E/DX2                !
 ! A59   A(14,16,32)           112.2589         estimate D2E/DX2                !
 ! A60   A(14,16,70)           109.4541         estimate D2E/DX2                !
 ! A61   A(15,16,32)           100.8182         estimate D2E/DX2                !
 ! A62   A(15,16,70)           114.3022         estimate D2E/DX2                !
 ! A63   A(32,16,70)           114.2297         estimate D2E/DX2                !
 ! A64   A(6,17,18)            115.2315         estimate D2E/DX2                !
 ! A65   A(6,17,19)            117.846          estimate D2E/DX2                !
 ! A66   A(18,17,19)           121.0081         estimate D2E/DX2                !
 ! A67   A(15,18,17)           122.1885         estimate D2E/DX2                !
 ! A68   A(15,18,33)           108.9275         estimate D2E/DX2                !
 ! A69   A(17,18,33)           120.7927         estimate D2E/DX2                !
 ! A70   A(17,19,21)           119.0142         estimate D2E/DX2                !
 ! A71   A(17,19,35)           115.8936         estimate D2E/DX2                !
 ! A72   A(21,19,35)           120.3991         estimate D2E/DX2                !
 ! A73   A(8,20,21)            120.0702         estimate D2E/DX2                !
 ! A74   A(8,20,23)            116.7828         estimate D2E/DX2                !
 ! A75   A(21,20,23)           121.1055         estimate D2E/DX2                !
 ! A76   A(19,21,20)           119.6462         estimate D2E/DX2                !
 ! A77   A(19,21,38)           117.436          estimate D2E/DX2                !
 ! A78   A(20,21,38)           118.8526         estimate D2E/DX2                !
 ! A79   A(9,22,23)            124.8999         estimate D2E/DX2                !
 ! A80   A(9,22,24)            121.6391         estimate D2E/DX2                !
 ! A81   A(23,22,24)           108.2309         estimate D2E/DX2                !
 ! A82   A(20,23,22)           106.068          estimate D2E/DX2                !
 ! A83   A(20,23,40)           112.7824         estimate D2E/DX2                !
 ! A84   A(20,23,72)           109.5313         estimate D2E/DX2                !
 ! A85   A(22,23,40)           101.614          estimate D2E/DX2                !
 ! A86   A(22,23,72)           114.0783         estimate D2E/DX2                !
 ! A87   A(40,23,72)           112.4683         estimate D2E/DX2                !
 ! A88   A(22,24,26)           120.9014         estimate D2E/DX2                !
 ! A89   A(22,24,41)           110.2639         estimate D2E/DX2                !
 ! A90   A(26,24,41)           119.2409         estimate D2E/DX2                !
 ! A91   A(11,25,26)           122.0015         estimate D2E/DX2                !
 ! A92   A(11,25,28)           122.6896         estimate D2E/DX2                !
 ! A93   A(26,25,28)           107.0927         estimate D2E/DX2                !
 ! A94   A(24,26,25)           117.2326         estimate D2E/DX2                !
 ! A95   A(24,26,44)           120.8996         estimate D2E/DX2                !
 ! A96   A(25,26,44)           108.9664         estimate D2E/DX2                !
 ! A97   A(13,27,28)           114.0082         estimate D2E/DX2                !
 ! A98   A(13,27,30)           119.1785         estimate D2E/DX2                !
 ! A99   A(28,27,30)           121.4447         estimate D2E/DX2                !
 ! A100  A(25,28,27)           119.742          estimate D2E/DX2                !
 ! A101  A(25,28,45)           109.1984         estimate D2E/DX2                !
 ! A102  A(27,28,45)           120.8734         estimate D2E/DX2                !
 ! A103  A(14,29,30)           118.6951         estimate D2E/DX2                !
 ! A104  A(14,29,31)           119.5818         estimate D2E/DX2                !
 ! A105  A(30,29,31)           117.419          estimate D2E/DX2                !
 ! A106  A(27,30,29)           118.8715         estimate D2E/DX2                !
 ! A107  A(27,30,47)           116.0785         estimate D2E/DX2                !
 ! A108  A(29,30,47)           119.9564         estimate D2E/DX2                !
 ! A109  A(29,31,34)           120.5174         estimate D2E/DX2                !
 ! A110  A(29,31,49)           121.9926         estimate D2E/DX2                !
 ! A111  A(34,31,49)           106.5883         estimate D2E/DX2                !
 ! A112  A(16,32,33)           110.9949         estimate D2E/DX2                !
 ! A113  A(16,32,34)           122.1688         estimate D2E/DX2                !
 ! A114  A(33,32,34)           117.0729         estimate D2E/DX2                !
 ! A115  A(18,33,32)           107.679          estimate D2E/DX2                !
 ! A116  A(18,33,36)           118.7332         estimate D2E/DX2                !
 ! A117  A(32,33,36)           123.0577         estimate D2E/DX2                !
 ! A118  A(31,34,32)           119.3467         estimate D2E/DX2                !
 ! A119  A(31,34,51)           107.9203         estimate D2E/DX2                !
 ! A120  A(32,34,51)           120.647          estimate D2E/DX2                !
 ! A121  A(19,35,36)           121.927          estimate D2E/DX2                !
 ! A122  A(19,35,37)           120.6902         estimate D2E/DX2                !
 ! A123  A(36,35,37)           107.3137         estimate D2E/DX2                !
 ! A124  A(33,36,35)           120.2172         estimate D2E/DX2                !
 ! A125  A(33,36,52)           118.9201         estimate D2E/DX2                !
 ! A126  A(35,36,52)           109.0404         estimate D2E/DX2                !
 ! A127  A(35,37,39)           118.7718         estimate D2E/DX2                !
 ! A128  A(35,37,53)           107.8676         estimate D2E/DX2                !
 ! A129  A(39,37,53)           121.6055         estimate D2E/DX2                !
 ! A130  A(21,38,39)           121.6482         estimate D2E/DX2                !
 ! A131  A(21,38,42)           120.4604         estimate D2E/DX2                !
 ! A132  A(39,38,42)           107.2775         estimate D2E/DX2                !
 ! A133  A(37,39,38)           120.781          estimate D2E/DX2                !
 ! A134  A(37,39,57)           119.1702         estimate D2E/DX2                !
 ! A135  A(38,39,57)           109.0727         estimate D2E/DX2                !
 ! A136  A(23,40,41)           111.7641         estimate D2E/DX2                !
 ! A137  A(23,40,42)           121.9152         estimate D2E/DX2                !
 ! A138  A(41,40,42)           118.7126         estimate D2E/DX2                !
 ! A139  A(24,41,40)           106.5884         estimate D2E/DX2                !
 ! A140  A(24,41,43)           120.2319         estimate D2E/DX2                !
 ! A141  A(40,41,43)           121.1091         estimate D2E/DX2                !
 ! A142  A(38,42,40)           120.6975         estimate D2E/DX2                !
 ! A143  A(38,42,58)           107.2278         estimate D2E/DX2                !
 ! A144  A(40,42,58)           120.805          estimate D2E/DX2                !
 ! A145  A(41,43,46)           120.198          estimate D2E/DX2                !
 ! A146  A(41,43,59)           120.0183         estimate D2E/DX2                !
 ! A147  A(46,43,59)           107.4271         estimate D2E/DX2                !
 ! A148  A(26,44,45)           107.0624         estimate D2E/DX2                !
 ! A149  A(26,44,46)           120.2005         estimate D2E/DX2                !
 ! A150  A(45,44,46)           119.2362         estimate D2E/DX2                !
 ! A151  A(28,45,44)           107.5777         estimate D2E/DX2                !
 ! A152  A(28,45,48)           119.1291         estimate D2E/DX2                !
 ! A153  A(44,45,48)           121.714          estimate D2E/DX2                !
 ! A154  A(43,46,44)           119.2038         estimate D2E/DX2                !
 ! A155  A(43,46,61)           108.9243         estimate D2E/DX2                !
 ! A156  A(44,46,61)           119.4544         estimate D2E/DX2                !
 ! A157  A(30,47,48)           121.924          estimate D2E/DX2                !
 ! A158  A(30,47,50)           121.1852         estimate D2E/DX2                !
 ! A159  A(48,47,50)           107.1697         estimate D2E/DX2                !
 ! A160  A(45,48,47)           120.048          estimate D2E/DX2                !
 ! A161  A(45,48,62)           118.9613         estimate D2E/DX2                !
 ! A162  A(47,48,62)           108.9456         estimate D2E/DX2                !
 ! A163  A(31,49,50)           120.4097         estimate D2E/DX2                !
 ! A164  A(31,49,54)           109.324          estimate D2E/DX2                !
 ! A165  A(50,49,54)           119.2266         estimate D2E/DX2                !
 ! A166  A(47,50,49)           118.6683         estimate D2E/DX2                !
 ! A167  A(47,50,63)           108.507          estimate D2E/DX2                !
 ! A168  A(49,50,63)           121.1769         estimate D2E/DX2                !
 ! A169  A(34,51,52)           120.8778         estimate D2E/DX2                !
 ! A170  A(34,51,54)           107.9129         estimate D2E/DX2                !
 ! A171  A(52,51,54)           118.9215         estimate D2E/DX2                !
 ! A172  A(36,52,51)           118.0978         estimate D2E/DX2                !
 ! A173  A(36,52,53)           106.6952         estimate D2E/DX2                !
 ! A174  A(51,52,53)           121.0247         estimate D2E/DX2                !
 ! A175  A(37,53,52)           108.6075         estimate D2E/DX2                !
 ! A176  A(37,53,55)           118.9322         estimate D2E/DX2                !
 ! A177  A(52,53,55)           119.6433         estimate D2E/DX2                !
 ! A178  A(49,54,51)           107.5341         estimate D2E/DX2                !
 ! A179  A(49,54,56)           119.413          estimate D2E/DX2                !
 ! A180  A(51,54,56)           120.3525         estimate D2E/DX2                !
 ! A181  A(53,55,56)           119.6062         estimate D2E/DX2                !
 ! A182  A(53,55,60)           119.661          estimate D2E/DX2                !
 ! A183  A(56,55,60)           108.4826         estimate D2E/DX2                !
 ! A184  A(54,56,55)           120.2441         estimate D2E/DX2                !
 ! A185  A(54,56,64)           120.8416         estimate D2E/DX2                !
 ! A186  A(55,56,64)           107.2976         estimate D2E/DX2                !
 ! A187  A(39,57,58)           107.2859         estimate D2E/DX2                !
 ! A188  A(39,57,60)           119.2568         estimate D2E/DX2                !
 ! A189  A(58,57,60)           120.6045         estimate D2E/DX2                !
 ! A190  A(42,58,57)           108.7757         estimate D2E/DX2                !
 ! A191  A(42,58,59)           120.6196         estimate D2E/DX2                !
 ! A192  A(57,58,59)           119.3238         estimate D2E/DX2                !
 ! A193  A(43,59,58)           118.5092         estimate D2E/DX2                !
 ! A194  A(43,59,65)           108.5283         estimate D2E/DX2                !
 ! A195  A(58,59,65)           120.4049         estimate D2E/DX2                !
 ! A196  A(55,60,57)           121.0696         estimate D2E/DX2                !
 ! A197  A(55,60,66)           107.7881         estimate D2E/DX2                !
 ! A198  A(57,60,66)           119.8911         estimate D2E/DX2                !
 ! A199  A(46,61,62)           120.7571         estimate D2E/DX2                !
 ! A200  A(46,61,65)           106.891          estimate D2E/DX2                !
 ! A201  A(62,61,65)           119.7069         estimate D2E/DX2                !
 ! A202  A(48,62,61)           119.6859         estimate D2E/DX2                !
 ! A203  A(48,62,63)           106.9782         estimate D2E/DX2                !
 ! A204  A(61,62,63)           120.4842         estimate D2E/DX2                !
 ! A205  A(50,63,62)           108.0432         estimate D2E/DX2                !
 ! A206  A(50,63,64)           119.4151         estimate D2E/DX2                !
 ! A207  A(62,63,64)           119.7479         estimate D2E/DX2                !
 ! A208  A(56,64,63)           119.632          estimate D2E/DX2                !
 ! A209  A(56,64,66)           108.548          estimate D2E/DX2                !
 ! A210  A(63,64,66)           119.875          estimate D2E/DX2                !
 ! A211  A(59,65,61)           108.1934         estimate D2E/DX2                !
 ! A212  A(59,65,66)           119.8243         estimate D2E/DX2                !
 ! A213  A(61,65,66)           119.7685         estimate D2E/DX2                !
 ! A214  A(60,66,64)           107.791          estimate D2E/DX2                !
 ! A215  A(60,66,65)           119.8537         estimate D2E/DX2                !
 ! A216  A(64,66,65)           120.3392         estimate D2E/DX2                !
 ! D1    D(4,1,2,3)             17.4054         estimate D2E/DX2                !
 ! D2    D(4,1,2,10)           -91.488          estimate D2E/DX2                !
 ! D3    D(4,1,2,68)           147.3393         estimate D2E/DX2                !
 ! D4    D(7,1,2,3)            127.5733         estimate D2E/DX2                !
 ! D5    D(7,1,2,10)            18.6799         estimate D2E/DX2                !
 ! D6    D(7,1,2,68)          -102.4929         estimate D2E/DX2                !
 ! D7    D(67,1,2,3)           -99.1486         estimate D2E/DX2                !
 ! D8    D(67,1,2,10)          151.9581         estimate D2E/DX2                !
 ! D9    D(67,1,2,68)           30.7853         estimate D2E/DX2                !
 ! D10   D(2,1,4,5)            -16.4284         estimate D2E/DX2                !
 ! D11   D(2,1,4,6)            134.0727         estimate D2E/DX2                !
 ! D12   D(7,1,4,5)           -140.0201         estimate D2E/DX2                !
 ! D13   D(7,1,4,6)             10.481          estimate D2E/DX2                !
 ! D14   D(67,1,4,5)            98.8789         estimate D2E/DX2                !
 ! D15   D(67,1,4,6)          -110.62           estimate D2E/DX2                !
 ! D16   D(2,1,7,8)           -116.3302         estimate D2E/DX2                !
 ! D17   D(2,1,7,9)             -4.3062         estimate D2E/DX2                !
 ! D18   D(2,1,7,71)           122.1028         estimate D2E/DX2                !
 ! D19   D(4,1,7,8)             -7.8682         estimate D2E/DX2                !
 ! D20   D(4,1,7,9)            104.1558         estimate D2E/DX2                !
 ! D21   D(4,1,7,71)          -129.4352         estimate D2E/DX2                !
 ! D22   D(67,1,7,8)           111.904          estimate D2E/DX2                !
 ! D23   D(67,1,7,9)          -136.072          estimate D2E/DX2                !
 ! D24   D(67,1,7,71)           -9.6631         estimate D2E/DX2                !
 ! D25   D(1,2,3,5)            -13.3501         estimate D2E/DX2                !
 ! D26   D(1,2,3,12)          -120.2248         estimate D2E/DX2                !
 ! D27   D(1,2,3,69)           112.0328         estimate D2E/DX2                !
 ! D28   D(10,2,3,5)           102.0979         estimate D2E/DX2                !
 ! D29   D(10,2,3,12)           -4.7767         estimate D2E/DX2                !
 ! D30   D(10,2,3,69)         -132.5192         estimate D2E/DX2                !
 ! D31   D(68,2,3,5)          -140.121          estimate D2E/DX2                !
 ! D32   D(68,2,3,12)          113.0044         estimate D2E/DX2                !
 ! D33   D(68,2,3,69)          -14.7381         estimate D2E/DX2                !
 ! D34   D(1,2,10,11)          -34.834          estimate D2E/DX2                !
 ! D35   D(1,2,10,13)          130.6505         estimate D2E/DX2                !
 ! D36   D(3,2,10,11)         -149.3653         estimate D2E/DX2                !
 ! D37   D(3,2,10,13)           16.1193         estimate D2E/DX2                !
 ! D38   D(68,2,10,11)          87.4447         estimate D2E/DX2                !
 ! D39   D(68,2,10,13)        -107.0707         estimate D2E/DX2                !
 ! D40   D(2,3,5,4)              3.2877         estimate D2E/DX2                !
 ! D41   D(2,3,5,15)          -144.2581         estimate D2E/DX2                !
 ! D42   D(12,3,5,4)           113.4434         estimate D2E/DX2                !
 ! D43   D(12,3,5,15)          -34.1023         estimate D2E/DX2                !
 ! D44   D(69,3,5,4)          -124.8307         estimate D2E/DX2                !
 ! D45   D(69,3,5,15)           87.6235         estimate D2E/DX2                !
 ! D46   D(2,3,12,13)           -7.0376         estimate D2E/DX2                !
 ! D47   D(2,3,12,14)          143.707          estimate D2E/DX2                !
 ! D48   D(5,3,12,13)         -113.8617         estimate D2E/DX2                !
 ! D49   D(5,3,12,14)           36.8829         estimate D2E/DX2                !
 ! D50   D(69,3,12,13)         123.7286         estimate D2E/DX2                !
 ! D51   D(69,3,12,14)         -85.5268         estimate D2E/DX2                !
 ! D52   D(1,4,5,3)              8.9817         estimate D2E/DX2                !
 ! D53   D(1,4,5,15)           158.4605         estimate D2E/DX2                !
 ! D54   D(6,4,5,3)           -138.7612         estimate D2E/DX2                !
 ! D55   D(6,4,5,15)            10.7177         estimate D2E/DX2                !
 ! D56   D(1,4,6,8)             -8.7934         estimate D2E/DX2                !
 ! D57   D(1,4,6,17)          -161.3256         estimate D2E/DX2                !
 ! D58   D(5,4,6,8)            139.4294         estimate D2E/DX2                !
 ! D59   D(5,4,6,17)           -13.1028         estimate D2E/DX2                !
 ! D60   D(3,5,15,16)           -0.6786         estimate D2E/DX2                !
 ! D61   D(3,5,15,18)          146.5755         estimate D2E/DX2                !
 ! D62   D(4,5,15,16)         -146.1252         estimate D2E/DX2                !
 ! D63   D(4,5,15,18)            1.1289         estimate D2E/DX2                !
 ! D64   D(4,6,8,7)              2.8381         estimate D2E/DX2                !
 ! D65   D(4,6,8,20)          -153.1525         estimate D2E/DX2                !
 ! D66   D(17,6,8,7)           154.4451         estimate D2E/DX2                !
 ! D67   D(17,6,8,20)           -1.5455         estimate D2E/DX2                !
 ! D68   D(4,6,17,18)            3.1246         estimate D2E/DX2                !
 ! D69   D(4,6,17,19)          156.3786         estimate D2E/DX2                !
 ! D70   D(8,6,17,18)         -145.3664         estimate D2E/DX2                !
 ! D71   D(8,6,17,19)            7.8876         estimate D2E/DX2                !
 ! D72   D(1,7,8,6)              3.479          estimate D2E/DX2                !
 ! D73   D(1,7,8,20)           157.0284         estimate D2E/DX2                !
 ! D74   D(9,7,8,6)           -118.9021         estimate D2E/DX2                !
 ! D75   D(9,7,8,20)            34.6473         estimate D2E/DX2                !
 ! D76   D(71,7,8,6)           126.585          estimate D2E/DX2                !
 ! D77   D(71,7,8,20)          -79.8655         estimate D2E/DX2                !
 ! D78   D(1,7,9,11)             0.5181         estimate D2E/DX2                !
 ! D79   D(1,7,9,22)          -158.7802         estimate D2E/DX2                !
 ! D80   D(8,7,9,11)           114.3313         estimate D2E/DX2                !
 ! D81   D(8,7,9,22)           -44.967          estimate D2E/DX2                !
 ! D82   D(71,7,9,11)         -128.6833         estimate D2E/DX2                !
 ! D83   D(71,7,9,22)           72.0184         estimate D2E/DX2                !
 ! D84   D(6,8,20,21)           -5.7567         estimate D2E/DX2                !
 ! D85   D(6,8,20,23)          158.1777         estimate D2E/DX2                !
 ! D86   D(7,8,20,21)         -156.7921         estimate D2E/DX2                !
 ! D87   D(7,8,20,23)            7.1422         estimate D2E/DX2                !
 ! D88   D(7,9,11,10)          -13.167          estimate D2E/DX2                !
 ! D89   D(7,9,11,25)         -162.7082         estimate D2E/DX2                !
 ! D90   D(22,9,11,10)         146.2077         estimate D2E/DX2                !
 ! D91   D(22,9,11,25)          -3.3335         estimate D2E/DX2                !
 ! D92   D(7,9,22,23)           17.6997         estimate D2E/DX2                !
 ! D93   D(7,9,22,24)          169.0864         estimate D2E/DX2                !
 ! D94   D(11,9,22,23)        -142.2407         estimate D2E/DX2                !
 ! D95   D(11,9,22,24)           9.146          estimate D2E/DX2                !
 ! D96   D(2,10,11,9)           33.3158         estimate D2E/DX2                !
 ! D97   D(2,10,11,25)        -176.0568         estimate D2E/DX2                !
 ! D98   D(13,10,11,9)        -131.6248         estimate D2E/DX2                !
 ! D99   D(13,10,11,25)         19.0025         estimate D2E/DX2                !
 ! D100  D(2,10,13,12)         -21.7639         estimate D2E/DX2                !
 ! D101  D(2,10,13,27)        -174.8508         estimate D2E/DX2                !
 ! D102  D(11,10,13,12)        144.9071         estimate D2E/DX2                !
 ! D103  D(11,10,13,27)         -8.1798         estimate D2E/DX2                !
 ! D104  D(9,11,25,26)          -6.5361         estimate D2E/DX2                !
 ! D105  D(9,11,25,28)         137.8379         estimate D2E/DX2                !
 ! D106  D(10,11,25,26)       -156.7279         estimate D2E/DX2                !
 ! D107  D(10,11,25,28)        -12.3539         estimate D2E/DX2                !
 ! D108  D(3,12,13,10)          16.8893         estimate D2E/DX2                !
 ! D109  D(3,12,13,27)         171.3033         estimate D2E/DX2                !
 ! D110  D(14,12,13,10)       -136.5681         estimate D2E/DX2                !
 ! D111  D(14,12,13,27)         17.846          estimate D2E/DX2                !
 ! D112  D(3,12,14,16)          -2.7383         estimate D2E/DX2                !
 ! D113  D(3,12,14,29)        -165.8238         estimate D2E/DX2                !
 ! D114  D(13,12,14,16)        145.1371         estimate D2E/DX2                !
 ! D115  D(13,12,14,29)        -17.9484         estimate D2E/DX2                !
 ! D116  D(10,13,27,28)        -10.4162         estimate D2E/DX2                !
 ! D117  D(10,13,27,30)        144.1107         estimate D2E/DX2                !
 ! D118  D(12,13,27,28)       -160.0681         estimate D2E/DX2                !
 ! D119  D(12,13,27,30)         -5.5413         estimate D2E/DX2                !
 ! D120  D(12,14,16,15)        -33.523          estimate D2E/DX2                !
 ! D121  D(12,14,16,32)       -142.2987         estimate D2E/DX2                !
 ! D122  D(12,14,16,70)         89.7597         estimate D2E/DX2                !
 ! D123  D(29,14,16,15)        129.7532         estimate D2E/DX2                !
 ! D124  D(29,14,16,32)         20.9775         estimate D2E/DX2                !
 ! D125  D(29,14,16,70)       -106.9642         estimate D2E/DX2                !
 ! D126  D(12,14,29,30)          6.2884         estimate D2E/DX2                !
 ! D127  D(12,14,29,31)        162.4051         estimate D2E/DX2                !
 ! D128  D(16,14,29,30)       -156.6197         estimate D2E/DX2                !
 ! D129  D(16,14,29,31)         -0.503          estimate D2E/DX2                !
 ! D130  D(5,15,16,14)          36.3438         estimate D2E/DX2                !
 ! D131  D(5,15,16,32)         153.207          estimate D2E/DX2                !
 ! D132  D(5,15,16,70)         -83.7864         estimate D2E/DX2                !
 ! D133  D(18,15,16,14)       -113.5247         estimate D2E/DX2                !
 ! D134  D(18,15,16,32)          3.3385         estimate D2E/DX2                !
 ! D135  D(18,15,16,70)        126.3451         estimate D2E/DX2                !
 ! D136  D(5,15,18,17)         -10.9005         estimate D2E/DX2                !
 ! D137  D(5,15,18,33)        -159.6969         estimate D2E/DX2                !
 ! D138  D(16,15,18,17)        139.9591         estimate D2E/DX2                !
 ! D139  D(16,15,18,33)         -8.8373         estimate D2E/DX2                !
 ! D140  D(14,16,32,33)        114.9127         estimate D2E/DX2                !
 ! D141  D(14,16,32,34)        -29.9            estimate D2E/DX2                !
 ! D142  D(15,16,32,33)          3.3379         estimate D2E/DX2                !
 ! D143  D(15,16,32,34)       -141.4748         estimate D2E/DX2                !
 ! D144  D(70,16,32,33)       -119.719          estimate D2E/DX2                !
 ! D145  D(70,16,32,34)         95.4684         estimate D2E/DX2                !
 ! D146  D(6,17,18,15)           8.5271         estimate D2E/DX2                !
 ! D147  D(6,17,18,33)         153.7425         estimate D2E/DX2                !
 ! D148  D(19,17,18,15)       -143.8098         estimate D2E/DX2                !
 ! D149  D(19,17,18,33)          1.4056         estimate D2E/DX2                !
 ! D150  D(6,17,19,21)          -6.7398         estimate D2E/DX2                !
 ! D151  D(6,17,19,35)        -162.5863         estimate D2E/DX2                !
 ! D152  D(18,17,19,21)        144.9024         estimate D2E/DX2                !
 ! D153  D(18,17,19,35)        -10.9441         estimate D2E/DX2                !
 ! D154  D(15,18,33,32)         10.7574         estimate D2E/DX2                !
 ! D155  D(15,18,33,36)        156.6166         estimate D2E/DX2                !
 ! D156  D(17,18,33,32)       -138.5517         estimate D2E/DX2                !
 ! D157  D(17,18,33,36)          7.3074         estimate D2E/DX2                !
 ! D158  D(17,19,21,20)         -0.1242         estimate D2E/DX2                !
 ! D159  D(17,19,21,38)       -157.2081         estimate D2E/DX2                !
 ! D160  D(35,19,21,20)        154.6127         estimate D2E/DX2                !
 ! D161  D(35,19,21,38)         -2.4713         estimate D2E/DX2                !
 ! D162  D(17,19,35,36)         12.3921         estimate D2E/DX2                !
 ! D163  D(17,19,35,37)        153.432          estimate D2E/DX2                !
 ! D164  D(21,19,35,36)       -143.097          estimate D2E/DX2                !
 ! D165  D(21,19,35,37)         -2.0571         estimate D2E/DX2                !
 ! D166  D(8,20,21,19)           6.563          estimate D2E/DX2                !
 ! D167  D(8,20,21,38)         163.324          estimate D2E/DX2                !
 ! D168  D(23,20,21,19)       -156.6666         estimate D2E/DX2                !
 ! D169  D(23,20,21,38)          0.0944         estimate D2E/DX2                !
 ! D170  D(8,20,23,22)         -37.1943         estimate D2E/DX2                !
 ! D171  D(8,20,23,40)        -147.5717         estimate D2E/DX2                !
 ! D172  D(8,20,23,72)          86.3559         estimate D2E/DX2                !
 ! D173  D(21,20,23,22)        126.5628         estimate D2E/DX2                !
 ! D174  D(21,20,23,40)         16.1853         estimate D2E/DX2                !
 ! D175  D(21,20,23,72)       -109.8871         estimate D2E/DX2                !
 ! D176  D(19,21,38,39)          5.7458         estimate D2E/DX2                !
 ! D177  D(19,21,38,42)        145.8523         estimate D2E/DX2                !
 ! D178  D(20,21,38,39)       -151.5252         estimate D2E/DX2                !
 ! D179  D(20,21,38,42)        -11.4187         estimate D2E/DX2                !
 ! D180  D(9,22,23,20)          26.4964         estimate D2E/DX2                !
 ! D181  D(9,22,23,40)         144.5694         estimate D2E/DX2                !
 ! D182  D(9,22,23,72)         -94.1529         estimate D2E/DX2                !
 ! D183  D(24,22,23,20)       -128.0827         estimate D2E/DX2                !
 ! D184  D(24,22,23,40)        -10.0097         estimate D2E/DX2                !
 ! D185  D(24,22,23,72)        111.268          estimate D2E/DX2                !
 ! D186  D(9,22,24,26)          -5.3289         estimate D2E/DX2                !
 ! D187  D(9,22,24,41)        -151.2047         estimate D2E/DX2                !
 ! D188  D(23,22,24,26)        150.2447         estimate D2E/DX2                !
 ! D189  D(23,22,24,41)          4.3688         estimate D2E/DX2                !
 ! D190  D(20,23,40,41)        125.8678         estimate D2E/DX2                !
 ! D191  D(20,23,40,42)        -23.2327         estimate D2E/DX2                !
 ! D192  D(22,23,40,41)         12.7393         estimate D2E/DX2                !
 ! D193  D(22,23,40,42)       -136.3612         estimate D2E/DX2                !
 ! D194  D(72,23,40,41)       -109.6537         estimate D2E/DX2                !
 ! D195  D(72,23,40,42)        101.2457         estimate D2E/DX2                !
 ! D196  D(22,24,26,25)         -4.4765         estimate D2E/DX2                !
 ! D197  D(22,24,26,44)       -141.6993         estimate D2E/DX2                !
 ! D198  D(41,24,26,25)        138.4297         estimate D2E/DX2                !
 ! D199  D(41,24,26,44)          1.207          estimate D2E/DX2                !
 ! D200  D(22,24,41,40)          3.673          estimate D2E/DX2                !
 ! D201  D(22,24,41,43)        146.5718         estimate D2E/DX2                !
 ! D202  D(26,24,41,40)       -142.8466         estimate D2E/DX2                !
 ! D203  D(26,24,41,43)          0.0522         estimate D2E/DX2                !
 ! D204  D(11,25,26,24)         10.3313         estimate D2E/DX2                !
 ! D205  D(11,25,26,44)        152.2912         estimate D2E/DX2                !
 ! D206  D(28,25,26,24)       -138.8126         estimate D2E/DX2                !
 ! D207  D(28,25,26,44)          3.1474         estimate D2E/DX2                !
 ! D208  D(11,25,28,27)         -6.4878         estimate D2E/DX2                !
 ! D209  D(11,25,28,45)       -152.0511         estimate D2E/DX2                !
 ! D210  D(26,25,28,27)        142.3944         estimate D2E/DX2                !
 ! D211  D(26,25,28,45)         -3.1689         estimate D2E/DX2                !
 ! D212  D(24,26,44,45)        138.3646         estimate D2E/DX2                !
 ! D213  D(24,26,44,46)         -1.9685         estimate D2E/DX2                !
 ! D214  D(25,26,44,45)         -1.9526         estimate D2E/DX2                !
 ! D215  D(25,26,44,46)       -142.2857         estimate D2E/DX2                !
 ! D216  D(13,27,28,25)         17.1521         estimate D2E/DX2                !
 ! D217  D(13,27,28,45)        158.6743         estimate D2E/DX2                !
 ! D218  D(30,27,28,25)       -136.7343         estimate D2E/DX2                !
 ! D219  D(30,27,28,45)          4.7879         estimate D2E/DX2                !
 ! D220  D(13,27,30,29)         -6.1925         estimate D2E/DX2                !
 ! D221  D(13,27,30,47)       -160.9769         estimate D2E/DX2                !
 ! D222  D(28,27,30,29)        146.3876         estimate D2E/DX2                !
 ! D223  D(28,27,30,47)         -8.3968         estimate D2E/DX2                !
 ! D224  D(25,28,45,44)          1.9775         estimate D2E/DX2                !
 ! D225  D(25,28,45,48)        145.8591         estimate D2E/DX2                !
 ! D226  D(27,28,45,44)       -143.1284         estimate D2E/DX2                !
 ! D227  D(27,28,45,48)          0.7532         estimate D2E/DX2                !
 ! D228  D(14,29,30,27)          5.9124         estimate D2E/DX2                !
 ! D229  D(14,29,30,47)        159.7028         estimate D2E/DX2                !
 ! D230  D(31,29,30,27)       -150.718          estimate D2E/DX2                !
 ! D231  D(31,29,30,47)          3.0724         estimate D2E/DX2                !
 ! D232  D(14,29,31,34)        -14.4372         estimate D2E/DX2                !
 ! D233  D(14,29,31,49)       -153.811          estimate D2E/DX2                !
 ! D234  D(30,29,31,34)        141.9785         estimate D2E/DX2                !
 ! D235  D(30,29,31,49)          2.6047         estimate D2E/DX2                !
 ! D236  D(27,30,47,48)          6.9068         estimate D2E/DX2                !
 ! D237  D(27,30,47,50)        148.5033         estimate D2E/DX2                !
 ! D238  D(29,30,47,48)       -147.5877         estimate D2E/DX2                !
 ! D239  D(29,30,47,50)         -5.9912         estimate D2E/DX2                !
 ! D240  D(29,31,34,32)          6.5805         estimate D2E/DX2                !
 ! D241  D(29,31,34,51)       -136.2102         estimate D2E/DX2                !
 ! D242  D(49,31,34,32)        151.3962         estimate D2E/DX2                !
 ! D243  D(49,31,34,51)          8.6055         estimate D2E/DX2                !
 ! D244  D(29,31,49,50)         -5.5673         estimate D2E/DX2                !
 ! D245  D(29,31,49,54)        138.1169         estimate D2E/DX2                !
 ! D246  D(34,31,49,50)       -149.7443         estimate D2E/DX2                !
 ! D247  D(34,31,49,54)         -6.06           estimate D2E/DX2                !
 ! D248  D(16,32,33,18)         -8.7358         estimate D2E/DX2                !
 ! D249  D(16,32,33,36)       -152.779          estimate D2E/DX2                !
 ! D250  D(34,32,33,18)        138.0472         estimate D2E/DX2                !
 ! D251  D(34,32,33,36)         -5.9961         estimate D2E/DX2                !
 ! D252  D(16,32,34,31)         17.0184         estimate D2E/DX2                !
 ! D253  D(16,32,34,51)        155.0434         estimate D2E/DX2                !
 ! D254  D(33,32,34,31)       -125.8104         estimate D2E/DX2                !
 ! D255  D(33,32,34,51)         12.2146         estimate D2E/DX2                !
 ! D256  D(18,33,36,35)         -5.9539         estimate D2E/DX2                !
 ! D257  D(18,33,36,52)       -144.8134         estimate D2E/DX2                !
 ! D258  D(32,33,36,35)        134.4031         estimate D2E/DX2                !
 ! D259  D(32,33,36,52)         -4.4564         estimate D2E/DX2                !
 ! D260  D(31,34,51,52)        133.8245         estimate D2E/DX2                !
 ! D261  D(31,34,51,54)         -7.9395         estimate D2E/DX2                !
 ! D262  D(32,34,51,52)         -8.3902         estimate D2E/DX2                !
 ! D263  D(32,34,51,54)       -150.1542         estimate D2E/DX2                !
 ! D264  D(19,35,36,33)         -4.1753         estimate D2E/DX2                !
 ! D265  D(19,35,36,52)        138.2936         estimate D2E/DX2                !
 ! D266  D(37,35,36,33)       -149.6775         estimate D2E/DX2                !
 ! D267  D(37,35,36,52)         -7.2086         estimate D2E/DX2                !
 ! D268  D(19,35,37,39)          3.3785         estimate D2E/DX2                !
 ! D269  D(19,35,37,53)       -140.2505         estimate D2E/DX2                !
 ! D270  D(36,35,37,39)        149.3928         estimate D2E/DX2                !
 ! D271  D(36,35,37,53)          5.7637         estimate D2E/DX2                !
 ! D272  D(33,36,52,51)          8.4209         estimate D2E/DX2                !
 ! D273  D(33,36,52,53)        148.7845         estimate D2E/DX2                !
 ! D274  D(35,36,52,51)       -134.6076         estimate D2E/DX2                !
 ! D275  D(35,36,52,53)          5.7559         estimate D2E/DX2                !
 ! D276  D(35,37,39,38)         -0.1608         estimate D2E/DX2                !
 ! D277  D(35,37,39,57)       -140.3437         estimate D2E/DX2                !
 ! D278  D(53,37,39,38)        138.3329         estimate D2E/DX2                !
 ! D279  D(53,37,39,57)         -1.8501         estimate D2E/DX2                !
 ! D280  D(35,37,53,52)         -2.277          estimate D2E/DX2                !
 ! D281  D(35,37,53,55)        139.2046         estimate D2E/DX2                !
 ! D282  D(39,37,53,52)       -144.664          estimate D2E/DX2                !
 ! D283  D(39,37,53,55)         -3.1823         estimate D2E/DX2                !
 ! D284  D(21,38,39,37)         -4.5522         estimate D2E/DX2                !
 ! D285  D(21,38,39,57)        139.1769         estimate D2E/DX2                !
 ! D286  D(42,38,39,37)       -149.1744         estimate D2E/DX2                !
 ! D287  D(42,38,39,57)         -5.4453         estimate D2E/DX2                !
 ! D288  D(21,38,42,40)          4.8731         estimate D2E/DX2                !
 ! D289  D(21,38,42,58)       -138.9934         estimate D2E/DX2                !
 ! D290  D(39,38,42,40)        149.9984         estimate D2E/DX2                !
 ! D291  D(39,38,42,58)          6.1319         estimate D2E/DX2                !
 ! D292  D(37,39,57,58)        147.0568         estimate D2E/DX2                !
 ! D293  D(37,39,57,60)          5.292          estimate D2E/DX2                !
 ! D294  D(38,39,57,58)          2.6542         estimate D2E/DX2                !
 ! D295  D(38,39,57,60)       -139.1106         estimate D2E/DX2                !
 ! D296  D(23,40,41,24)        -10.6739         estimate D2E/DX2                !
 ! D297  D(23,40,41,43)       -153.1764         estimate D2E/DX2                !
 ! D298  D(42,40,41,24)        139.5233         estimate D2E/DX2                !
 ! D299  D(42,40,41,43)         -2.9792         estimate D2E/DX2                !
 ! D300  D(23,40,42,38)         13.6952         estimate D2E/DX2                !
 ! D301  D(23,40,42,58)        152.7204         estimate D2E/DX2                !
 ! D302  D(41,40,42,38)       -133.3626         estimate D2E/DX2                !
 ! D303  D(41,40,42,58)          5.6626         estimate D2E/DX2                !
 ! D304  D(24,41,43,46)         -0.5869         estimate D2E/DX2                !
 ! D305  D(24,41,43,59)       -138.0163         estimate D2E/DX2                !
 ! D306  D(40,41,43,46)        136.9414         estimate D2E/DX2                !
 ! D307  D(40,41,43,59)         -0.488          estimate D2E/DX2                !
 ! D308  D(38,42,58,57)         -4.5638         estimate D2E/DX2                !
 ! D309  D(38,42,58,59)        138.785          estimate D2E/DX2                !
 ! D310  D(40,42,58,57)       -148.3835         estimate D2E/DX2                !
 ! D311  D(40,42,58,59)         -5.0347         estimate D2E/DX2                !
 ! D312  D(41,43,46,44)         -0.159          estimate D2E/DX2                !
 ! D313  D(41,43,46,61)       -142.0807         estimate D2E/DX2                !
 ! D314  D(59,43,46,44)        141.9662         estimate D2E/DX2                !
 ! D315  D(59,43,46,61)          0.0446         estimate D2E/DX2                !
 ! D316  D(41,43,59,58)          1.1925         estimate D2E/DX2                !
 ! D317  D(41,43,59,65)        143.3285         estimate D2E/DX2                !
 ! D318  D(46,43,59,58)       -141.0137         estimate D2E/DX2                !
 ! D319  D(46,43,59,65)          1.1223         estimate D2E/DX2                !
 ! D320  D(26,44,45,28)         -0.0171         estimate D2E/DX2                !
 ! D321  D(26,44,45,48)       -142.7678         estimate D2E/DX2                !
 ! D322  D(46,44,45,28)        140.7687         estimate D2E/DX2                !
 ! D323  D(46,44,45,48)         -1.982          estimate D2E/DX2                !
 ! D324  D(26,44,46,43)          1.4046         estimate D2E/DX2                !
 ! D325  D(26,44,46,61)        139.3373         estimate D2E/DX2                !
 ! D326  D(45,44,46,43)       -134.2236         estimate D2E/DX2                !
 ! D327  D(45,44,46,61)          3.7091         estimate D2E/DX2                !
 ! D328  D(28,45,48,47)         -2.2484         estimate D2E/DX2                !
 ! D329  D(28,45,48,62)       -140.7372         estimate D2E/DX2                !
 ! D330  D(44,45,48,47)        136.4085         estimate D2E/DX2                !
 ! D331  D(44,45,48,62)         -2.0803         estimate D2E/DX2                !
 ! D332  D(43,46,61,62)        140.3841         estimate D2E/DX2                !
 ! D333  D(43,46,61,65)         -1.1871         estimate D2E/DX2                !
 ! D334  D(44,46,61,62)         -1.4269         estimate D2E/DX2                !
 ! D335  D(44,46,61,65)       -142.9982         estimate D2E/DX2                !
 ! D336  D(30,47,48,45)         -1.7796         estimate D2E/DX2                !
 ! D337  D(30,47,48,62)        140.4065         estimate D2E/DX2                !
 ! D338  D(50,47,48,45)       -147.9848         estimate D2E/DX2                !
 ! D339  D(50,47,48,62)         -5.7987         estimate D2E/DX2                !
 ! D340  D(30,47,50,49)          3.0784         estimate D2E/DX2                !
 ! D341  D(30,47,50,63)       -140.5518         estimate D2E/DX2                !
 ! D342  D(48,47,50,49)        149.5855         estimate D2E/DX2                !
 ! D343  D(48,47,50,63)          5.9554         estimate D2E/DX2                !
 ! D344  D(45,48,62,61)          4.3632         estimate D2E/DX2                !
 ! D345  D(45,48,62,63)        146.047          estimate D2E/DX2                !
 ! D346  D(47,48,62,61)       -138.296          estimate D2E/DX2                !
 ! D347  D(47,48,62,63)          3.3877         estimate D2E/DX2                !
 ! D348  D(31,49,50,47)          2.6203         estimate D2E/DX2                !
 ! D349  D(31,49,50,63)        141.5296         estimate D2E/DX2                !
 ! D350  D(54,49,50,47)       -137.5585         estimate D2E/DX2                !
 ! D351  D(54,49,50,63)          1.3508         estimate D2E/DX2                !
 ! D352  D(31,49,54,51)          1.2415         estimate D2E/DX2                !
 ! D353  D(31,49,54,56)       -140.6164         estimate D2E/DX2                !
 ! D354  D(50,49,54,51)        145.4196         estimate D2E/DX2                !
 ! D355  D(50,49,54,56)          3.5617         estimate D2E/DX2                !
 ! D356  D(47,50,63,62)         -3.9236         estimate D2E/DX2                !
 ! D357  D(47,50,63,64)        137.5889         estimate D2E/DX2                !
 ! D358  D(49,50,63,62)       -146.4691         estimate D2E/DX2                !
 ! D359  D(49,50,63,64)         -4.9566         estimate D2E/DX2                !
 ! D360  D(34,51,52,36)         -2.3298         estimate D2E/DX2                !
 ! D361  D(34,51,52,53)       -136.8481         estimate D2E/DX2                !
 ! D362  D(54,51,52,36)        135.3857         estimate D2E/DX2                !
 ! D363  D(54,51,52,53)          0.8674         estimate D2E/DX2                !
 ! D364  D(34,51,54,49)          4.1922         estimate D2E/DX2                !
 ! D365  D(34,51,54,56)        145.6228         estimate D2E/DX2                !
 ! D366  D(52,51,54,49)       -138.4445         estimate D2E/DX2                !
 ! D367  D(52,51,54,56)          2.9862         estimate D2E/DX2                !
 ! D368  D(36,52,53,37)         -2.1412         estimate D2E/DX2                !
 ! D369  D(36,52,53,55)       -143.3035         estimate D2E/DX2                !
 ! D370  D(51,52,53,37)        136.8121         estimate D2E/DX2                !
 ! D371  D(51,52,53,55)         -4.3502         estimate D2E/DX2                !
 ! D372  D(37,53,55,56)       -133.2998         estimate D2E/DX2                !
 ! D373  D(37,53,55,60)          4.7047         estimate D2E/DX2                !
 ! D374  D(52,53,55,56)          3.9276         estimate D2E/DX2                !
 ! D375  D(52,53,55,60)        141.9321         estimate D2E/DX2                !
 ! D376  D(49,54,56,55)        133.5766         estimate D2E/DX2                !
 ! D377  D(49,54,56,64)         -4.9279         estimate D2E/DX2                !
 ! D378  D(51,54,56,55)         -3.3871         estimate D2E/DX2                !
 ! D379  D(51,54,56,64)       -141.8916         estimate D2E/DX2                !
 ! D380  D(53,55,56,54)         -0.1231         estimate D2E/DX2                !
 ! D381  D(53,55,56,64)        143.3062         estimate D2E/DX2                !
 ! D382  D(60,55,56,54)       -142.3147         estimate D2E/DX2                !
 ! D383  D(60,55,56,64)          1.1146         estimate D2E/DX2                !
 ! D384  D(53,55,60,57)         -1.2647         estimate D2E/DX2                !
 ! D385  D(53,55,60,66)       -144.8114         estimate D2E/DX2                !
 ! D386  D(56,55,60,57)        140.9028         estimate D2E/DX2                !
 ! D387  D(56,55,60,66)         -2.644          estimate D2E/DX2                !
 ! D388  D(54,56,64,63)          1.3264         estimate D2E/DX2                !
 ! D389  D(54,56,64,66)        144.0105         estimate D2E/DX2                !
 ! D390  D(55,56,64,63)       -141.8401         estimate D2E/DX2                !
 ! D391  D(55,56,64,66)          0.844          estimate D2E/DX2                !
 ! D392  D(39,57,58,42)          1.2545         estimate D2E/DX2                !
 ! D393  D(39,57,58,59)       -142.6448         estimate D2E/DX2                !
 ! D394  D(60,57,58,42)        142.4011         estimate D2E/DX2                !
 ! D395  D(60,57,58,59)         -1.4982         estimate D2E/DX2                !
 ! D396  D(39,57,60,55)         -3.792          estimate D2E/DX2                !
 ! D397  D(39,57,60,66)        135.4724         estimate D2E/DX2                !
 ! D398  D(58,57,60,55)       -140.4323         estimate D2E/DX2                !
 ! D399  D(58,57,60,66)         -1.1679         estimate D2E/DX2                !
 ! D400  D(42,58,59,43)          1.4627         estimate D2E/DX2                !
 ! D401  D(42,58,59,65)       -136.1005         estimate D2E/DX2                !
 ! D402  D(57,58,59,43)        141.054          estimate D2E/DX2                !
 ! D403  D(57,58,59,65)          3.4907         estimate D2E/DX2                !
 ! D404  D(43,59,65,61)         -1.875          estimate D2E/DX2                !
 ! D405  D(43,59,65,66)       -144.137          estimate D2E/DX2                !
 ! D406  D(58,59,65,61)        139.4159         estimate D2E/DX2                !
 ! D407  D(58,59,65,66)         -2.8462         estimate D2E/DX2                !
 ! D408  D(55,60,66,64)          3.1443         estimate D2E/DX2                !
 ! D409  D(55,60,66,65)        145.8781         estimate D2E/DX2                !
 ! D410  D(57,60,66,64)       -140.9102         estimate D2E/DX2                !
 ! D411  D(57,60,66,65)          1.8237         estimate D2E/DX2                !
 ! D412  D(46,61,62,48)         -2.6556         estimate D2E/DX2                !
 ! D413  D(46,61,62,63)       -139.176          estimate D2E/DX2                !
 ! D414  D(65,61,62,48)        134.131          estimate D2E/DX2                !
 ! D415  D(65,61,62,63)         -2.3895         estimate D2E/DX2                !
 ! D416  D(46,61,65,59)          1.8664         estimate D2E/DX2                !
 ! D417  D(46,61,65,66)        144.1531         estimate D2E/DX2                !
 ! D418  D(62,61,65,59)       -140.1863         estimate D2E/DX2                !
 ! D419  D(62,61,65,66)          2.1004         estimate D2E/DX2                !
 ! D420  D(48,62,63,50)          0.314          estimate D2E/DX2                !
 ! D421  D(48,62,63,64)       -141.0479         estimate D2E/DX2                !
 ! D422  D(61,62,63,50)        141.6299         estimate D2E/DX2                !
 ! D423  D(61,62,63,64)          0.268          estimate D2E/DX2                !
 ! D424  D(50,63,64,56)          3.583          estimate D2E/DX2                !
 ! D425  D(50,63,64,66)       -134.9034         estimate D2E/DX2                !
 ! D426  D(62,63,64,56)        140.6176         estimate D2E/DX2                !
 ! D427  D(62,63,64,66)          2.1312         estimate D2E/DX2                !
 ! D428  D(56,64,66,60)         -2.4765         estimate D2E/DX2                !
 ! D429  D(56,64,66,65)       -144.9954         estimate D2E/DX2                !
 ! D430  D(63,64,66,60)        140.1015         estimate D2E/DX2                !
 ! D431  D(63,64,66,65)         -2.4173         estimate D2E/DX2                !
 ! D432  D(59,65,66,60)          0.1528         estimate D2E/DX2                !
 ! D433  D(59,65,66,64)        138.236          estimate D2E/DX2                !
 ! D434  D(61,65,66,60)       -137.7918         estimate D2E/DX2                !
 ! D435  D(61,65,66,64)          0.2914         estimate D2E/DX2                !
 --------------------------------------------------------------------------------
 Trust Radius=3.00D-01 FncErr=1.00D-07 GrdErr=1.00D-06 EigMax=2.50D+02 EigMin=1.00D-04
 Number of steps in this run=    432 maximum allowed number of steps=    432.
 GradGradGradGradGradGradGradGradGradGradGradGradGradGradGradGradGradGrad

 Leave Link  103 at Fri Jul 15 17:48:59 2022, MaxMem=  1342177280 cpu:               1.3 elap:               0.0
 (Enter /home/mkliu/g16/l202.exe)
 Stoichiometry    C66Cl6
 Framework group  C1[X(C66Cl6)]
 Deg. of freedom   210
 Full point group                 C1      NOp   1
 Largest Abelian subgroup         C1      NOp   1
[...]
 Alpha virt. eigenvalues --    1.09208   1.09530   1.09714   1.09910   1.10378
 Alpha virt. eigenvalues --    1.10504   1.10960   1.11438   1.11675   1.11808
 Alpha virt. eigenvalues --    1.12049   1.12739   1.13154   1.13345   1.14058
 Alpha virt. eigenvalues --    1.14352   1.14812   1.15151   1.15570   1.15871
 Alpha virt. eigenvalues --    1.16073   1.16643   1.17370   1.17431   1.18029
 Alpha virt. eigenvalues --    1.18337   1.18478   1.18852   1.19128   1.19760
 Alpha virt. eigenvalues --    1.20011   1.20303   1.20768   1.21035   1.21882
 Alpha virt. eigenvalues --    1.21912   1.22653   1.23066   1.23592   1.23856
 Alpha virt. eigenvalues --    1.24129   1.25106   1.25340   1.25709   1.26304
 Alpha virt. eigenvalues --    1.26572   1.26987   1.27186   1.27389   1.27703
 Alpha virt. eigenvalues --    1.28052   1.28726   1.29352   1.29805   1.30103
 Alpha virt. eigenvalues --    1.30614   1.31192   1.31531   1.32254   1.32377
 Alpha virt. eigenvalues --    1.32650   1.32810   1.33303   1.33765   1.33862
 Alpha virt. eigenvalues --    1.34273   1.34503   1.34779   1.34991   1.35269
 Alpha virt. eigenvalues --    1.35772   1.36025   1.36575   1.36847   1.37381
 Alpha virt. eigenvalues --    1.37626   1.37831   1.38228   1.38800   1.38938
 Alpha virt. eigenvalues --    1.39445   1.39747   1.40058   1.40486   1.40813
 Alpha virt. eigenvalues --    1.40914   1.41284   1.41395   1.41692   1.41945
 Alpha virt. eigenvalues --    1.42279   1.42426   1.42547   1.42859   1.43380
 Alpha virt. eigenvalues --    1.43614   1.43789   1.44081   1.44524   1.44658
 Alpha virt. eigenvalues --    1.45065   1.45206   1.45397   1.45523   1.45869
 Alpha virt. eigenvalues --    1.45962   1.46208   1.46326   1.46893   1.47037
 Alpha virt. eigenvalues --    1.47320   1.47446   1.48100   1.48215   1.48241
 Alpha virt. eigenvalues --    1.48480   1.48613   1.49012   1.49036   1.49455
 Alpha virt. eigenvalues --    1.49785   1.50094   1.50778   1.50860   1.51329
 Alpha virt. eigenvalues --    1.51648   1.51809   1.52037   1.52339   1.52757
 Alpha virt. eigenvalues --    1.53079   1.53299   1.53778   1.53856   1.54200
 Alpha virt. eigenvalues --    1.54442   1.55113   1.55188   1.55291   1.55767
 Alpha virt. eigenvalues --    1.55868   1.56433   1.56788   1.57176   1.57839
 Alpha virt. eigenvalues --    1.58131   1.58507   1.58848   1.59538   1.60035
 Alpha virt. eigenvalues --    1.60452   1.60762   1.61375   1.61687   1.62191
 Alpha virt. eigenvalues --    1.62546   1.63071   1.63606   1.63642   1.63835
 Alpha virt. eigenvalues --    1.64255   1.64941   1.64958   1.65614   1.65658
 Alpha virt. eigenvalues --    1.66002   1.66719   1.67041   1.67407   1.67973
 Alpha virt. eigenvalues --    1.68262   1.68621   1.68971   1.69025   1.69427
 Alpha virt. eigenvalues --    1.69927   1.70473   1.70866   1.71155   1.71465
 Alpha virt. eigenvalues --    1.71786   1.72119   1.72636   1.72922   1.73104
 Alpha virt. eigenvalues --    1.73908   1.74232   1.74412   1.74643   1.75150
 Alpha virt. eigenvalues --    1.75431   1.75750   1.76392   1.76808   1.77016
 Alpha virt. eigenvalues --    1.77199   1.77278   1.77854   1.79059   1.79293
 Alpha virt. eigenvalues --    1.79616   1.80301   1.80411   1.80716   1.81250
 Alpha virt. eigenvalues --    1.81523   1.81905   1.82352   1.82634   1.83292
 Alpha virt. eigenvalues --    1.83381   1.84483   1.85243   1.86098   1.86361
 Alpha virt. eigenvalues --    1.86768   1.87409   1.87742   1.87943   1.89015
 Alpha virt. eigenvalues --    1.89493   1.89834   1.90209   1.90734   1.91444
 Alpha virt. eigenvalues --    1.91803   1.92084   1.92437   1.92716   1.93469
 Alpha virt. eigenvalues --    1.93516   1.94066   1.94512   1.94727   1.95119
 Alpha virt. eigenvalues --    1.97019   1.97146   1.97664   1.98440   1.98843
 Alpha virt. eigenvalues --    1.99540   1.99689   2.00385   2.00670   2.00929
 Alpha virt. eigenvalues --    2.01305   2.01781   2.02063   2.02281   2.02385
 Alpha virt. eigenvalues --    2.02901   2.03350   2.03863   2.03918   2.04352
 Alpha virt. eigenvalues --    2.05622   2.06236   2.06550   2.06705   2.07061
 Alpha virt. eigenvalues --    2.07564   2.07950   2.08436   2.09189   2.09705
 Alpha virt. eigenvalues --    2.10188   2.10466   2.10664   2.10774   2.11423
 Alpha virt. eigenvalues --    2.11983   2.12322   2.12852   2.13269   2.13980
 Alpha virt. eigenvalues --    2.14449   2.14825   2.15233   2.15768   2.16064
 Alpha virt. eigenvalues --    2.16284   2.16918   2.17651   2.17939   2.18677
 Alpha virt. eigenvalues --    2.19020   2.19319   2.19738   2.20734   2.21186
 Alpha virt. eigenvalues --    2.21951   2.22321   2.22561   2.23113   2.23388
 Alpha virt. eigenvalues --    2.23594   2.23835   2.24730   2.25196   2.25322
 Alpha virt. eigenvalues --    2.25810   2.25911   2.26464   2.26843   2.26970
 Alpha virt. eigenvalues --    2.27286   2.28123   2.28538   2.28686   2.29685
 Alpha virt. eigenvalues --    2.30188   2.30836   2.30879   2.31635   2.32284
 Alpha virt. eigenvalues --    2.32874   2.32984   2.33495   2.33885   2.34415
 Alpha virt. eigenvalues --    2.35006   2.35409   2.35694   2.36832   2.37362
 Alpha virt. eigenvalues --    2.37500   2.37884   2.38708   2.38810   2.39519
 Alpha virt. eigenvalues --    2.40242   2.40402   2.40639   2.40838   2.41200
 Alpha virt. eigenvalues --    2.41738   2.42325   2.42526   2.42874   2.43629
 Alpha virt. eigenvalues --    2.43857   2.44073   2.44525   2.45366   2.45833
 Alpha virt. eigenvalues --    2.46413   2.46837   2.47140   2.47518   2.48202
 Alpha virt. eigenvalues --    2.48802   2.49017   2.49773   2.50361   2.51257
 Alpha virt. eigenvalues --    2.51769   2.52486   2.52775   2.53216   2.54133
 Alpha virt. eigenvalues --    2.54441   2.54788   2.55091   2.55376   2.55543
 Alpha virt. eigenvalues --    2.55747   2.56323   2.57015   2.57491   2.58116
 Alpha virt. eigenvalues --    2.58395   2.58565   2.58967   2.59552   2.60103
 Alpha virt. eigenvalues --    2.60793   2.60883   2.61494   2.62290   2.62581
 Alpha virt. eigenvalues --    2.63401   2.63896   2.64097   2.64379   2.65258
 Alpha virt. eigenvalues --    2.65743   2.66599   2.67979   2.68807   2.69142
 Alpha virt. eigenvalues --    2.69879   2.69933   2.71339   2.71818   2.72240
 Alpha virt. eigenvalues --    2.73414   2.74014   2.74916   2.76188   2.77227
 Alpha virt. eigenvalues --    2.78295   2.78694   2.79721   2.80214   2.80716
 Alpha virt. eigenvalues --    2.81611   2.82214   2.83068   2.84105   2.84627
 Alpha virt. eigenvalues --    2.85487   2.86104   2.86763   2.87236   2.88283
 Alpha virt. eigenvalues --    2.88921   2.89948   2.91148   2.91286   2.92363
 Alpha virt. eigenvalues --    2.93023   2.93340   2.93598   2.94201   2.94670
 Alpha virt. eigenvalues --    2.95080   2.95590   2.96514   2.96754   2.97274
 Alpha virt. eigenvalues --    2.97510   2.97946   2.98164   2.98449   2.99137
 Alpha virt. eigenvalues --    2.99188   2.99386   2.99893   3.00543   3.00683
 Alpha virt. eigenvalues --    3.01427   3.01605   3.01712   3.02239   3.02449
 Alpha virt. eigenvalues --    3.03017   3.03275   3.03606   3.03980   3.04517
 Alpha virt. eigenvalues --    3.04657   3.05127   3.05309   3.05460   3.05911
 Alpha virt. eigenvalues --    3.06146   3.06331   3.07184   3.07366   3.07584
 Alpha virt. eigenvalues --    3.08129   3.08648   3.09439   3.09744   3.09844
 Alpha virt. eigenvalues --    3.09994   3.10489   3.11108   3.11465   3.11827
 Alpha virt. eigenvalues --    3.11969   3.11990   3.12321   3.12560   3.12775
 Alpha virt. eigenvalues --    3.12930   3.13408   3.13562   3.13869   3.14600
 Alpha virt. eigenvalues --    3.15016   3.16551   3.16777   3.17194   3.17449
 Alpha virt. eigenvalues --    3.17963   3.18248   3.18540   3.19223   3.19530
 Alpha virt. eigenvalues --    3.20046   3.20752   3.21181   3.22223   3.22969
 Alpha virt. eigenvalues --    3.24424   3.25514   3.26948   3.29382   3.30904
 Alpha virt. eigenvalues --    3.32872   3.38083   3.40363   3.41006   3.42291
 Alpha virt. eigenvalues --    3.42677   3.44602   3.45655   3.45936   3.46396
 Alpha virt. eigenvalues --    3.47271   3.48601   3.49315   3.50372   3.51541
 Alpha virt. eigenvalues --    3.51653   3.52498   3.53128   3.54802   3.56312
 Alpha virt. eigenvalues --    3.56543   3.57142   3.58717   3.59399   3.60463
 Alpha virt. eigenvalues --    3.61422   3.62193   3.62939   3.64026   3.64555
 Alpha virt. eigenvalues --    3.65469   3.67310   3.67726   3.69276   3.69738
 Alpha virt. eigenvalues --    3.70466   3.71143   3.72101   3.72953   3.73583
 Alpha virt. eigenvalues --    3.74938   3.75433   3.77091   3.78414   3.80228
 Alpha virt. eigenvalues --    3.80923   3.82852   3.83325   3.83803   3.84015
 Alpha virt. eigenvalues --    3.85682   3.86600   3.87091   3.87689   3.87918
 Alpha virt. eigenvalues --    3.88379   3.88858   3.89129   3.89769   3.89976
 Alpha virt. eigenvalues --    3.91544   3.93226   3.95344   4.02051   4.06802
 Alpha virt. eigenvalues --    4.17809   4.21466   4.22467   4.23661   4.26364
 Alpha virt. eigenvalues --    4.27815   4.31846   4.35050   4.36445   4.37615
 Alpha virt. eigenvalues --    4.38416   4.39912   4.44612   4.46159   4.52427
 Alpha virt. eigenvalues --    4.52922   4.57908   4.60790   4.61692   4.62576
 Alpha virt. eigenvalues --    4.65259   4.67573   4.69827   4.75171   4.79690
 Alpha virt. eigenvalues --    4.81840   4.84560   4.87701   4.92698   4.95531
 Alpha virt. eigenvalues --    4.98624   5.01163   5.02631   5.04110   9.53624
 Alpha virt. eigenvalues --    9.55810   9.61331   9.64898   9.69257   9.71879
 Alpha virt. eigenvalues --   22.99861  23.18790  23.22786  23.23433  23.42402
 Alpha virt. eigenvalues --   23.45536  23.47936  23.49078  23.50496  23.62844
 Alpha virt. eigenvalues --   23.65202  23.66117  23.66848  23.67457  23.68330
 Alpha virt. eigenvalues --   23.72276  23.73615  23.74647  23.75662  23.79186
 Alpha virt. eigenvalues --   23.79341  23.80995  23.82166  23.82253  23.84069
 Alpha virt. eigenvalues --   23.86008  23.87432  23.89351  23.91027  23.92066
 Alpha virt. eigenvalues --   23.92184  23.92564  23.93129  23.94437  23.94876
 Alpha virt. eigenvalues --   23.95493  23.96092  23.96722  23.96826  23.97356
 Alpha virt. eigenvalues --   23.97721  23.98613  23.99123  23.99785  24.00675
 Alpha virt. eigenvalues --   24.02186  24.03724  24.04808  24.05349  24.06760
 Alpha virt. eigenvalues --   24.07176  24.07436  24.08150  24.08547  24.08702
 Alpha virt. eigenvalues --   24.09105  24.09358  24.09552  24.10188  24.11056
 Alpha virt. eigenvalues --   24.11194  24.11764  24.12544  24.14138  24.14653
 Alpha virt. eigenvalues --   24.17755  25.53773  25.55337  25.68600  25.69786
 Alpha virt. eigenvalues --   25.71599  25.73960  25.79961  25.83783  25.85982
 Alpha virt. eigenvalues --   25.86650  25.92678  25.97450  26.20918  26.21609
 Alpha virt. eigenvalues --   26.36423  26.42021  26.58109  26.67844 215.48725
 Alpha virt. eigenvalues --  215.51056 215.57579 215.61566 215.66336 215.69422
          Condensed to atoms (all electrons):
 Mulliken charges:
               1
     1  C   -0.263793
     2  C   -0.268406
     3  C   -0.457594
     4  C    0.115177
     5  C    0.244505
     6  C    0.061187
     7  C   -0.518093
     8  C    0.188096
     9  C    0.184842
    10  C    0.046454
    11  C    0.076750
    12  C    0.174153
    13  C    0.065090
    14  C    0.156461
    15  C    0.161469
    16  C   -0.648238
    17  C    0.015723
    18  C    0.033366
    19  C    0.019780
    20  C    0.166757
    21  C    0.045909
    22  C    0.190839
    23  C   -0.638065
    24  C    0.032376
    25  C   -0.009191
    26  C   -0.000555
    27  C    0.018391
    28  C    0.004014
    29  C    0.044450
    30  C    0.034939
    31  C   -0.007489
    32  C    0.147722
    33  C    0.020308
    34  C    0.013805
    35  C    0.004288
    36  C   -0.012104
    37  C   -0.004459
    38  C   -0.023553
    39  C   -0.002405
    40  C    0.135116
    41  C    0.043196
    42  C    0.024470
    43  C   -0.002637
    44  C   -0.001249
    45  C   -0.003925
    46  C    0.006401
    47  C   -0.005340
    48  C    0.000483
    49  C   -0.006424
    50  C   -0.001705
    51  C    0.005933
    52  C    0.007952
    53  C   -0.001209
    54  C    0.004909
    55  C    0.003276
    56  C    0.000004
    57  C    0.003556
    58  C   -0.000842
    59  C    0.007532
    60  C    0.002151
    61  C    0.003373
    62  C    0.000848
    63  C    0.000839
    64  C    0.003766
    65  C   -0.000409
    66  C    0.001408
    67  Cl   0.074076
    68  Cl   0.066207
    69  Cl   0.065813
    70  Cl   0.032814
    71  Cl   0.083616
    72  Cl   0.033092
 Sum of Mulliken charges =  -0.00000
 Mulliken charges with hydrogens summed into heavy atoms:
               1
     1  C   -0.263793
     2  C   -0.268406
     3  C   -0.457594
     4  C    0.115177
     5  C    0.244505
     6  C    0.061187
     7  C   -0.518093
     8  C    0.188096
     9  C    0.184842
    10  C    0.046454
    11  C    0.076750
    12  C    0.174153
    13  C    0.065090
    14  C    0.156461
    15  C    0.161469
    16  C   -0.648238
    17  C    0.015723
    18  C    0.033366
    19  C    0.019780
    20  C    0.166757
    21  C    0.045909
    22  C    0.190839
    23  C   -0.638065
    24  C    0.032376
    25  C   -0.009191
    26  C   -0.000555
    27  C    0.018391
    28  C    0.004014
    29  C    0.044450
    30  C    0.034939
    31  C   -0.007489
    32  C    0.147722
    33  C    0.020308
    34  C    0.013805
    35  C    0.004288
    36  C   -0.012104
    37  C   -0.004459
    38  C   -0.023553
    39  C   -0.002405
    40  C    0.135116
    41  C    0.043196
    42  C    0.024470
    43  C   -0.002637
    44  C   -0.001249
    45  C   -0.003925
    46  C    0.006401
    47  C   -0.005340
    48  C    0.000483
    49  C   -0.006424
    50  C   -0.001705
    51  C    0.005933
    52  C    0.007952
    53  C   -0.001209
    54  C    0.004909
    55  C    0.003276
    56  C    0.000004
    57  C    0.003556
    58  C   -0.000842
    59  C    0.007532
    60  C    0.002151
    61  C    0.003373
    62  C    0.000848
    63  C    0.000839
    64  C    0.003766
    65  C   -0.000409
    66  C    0.001408
    67  Cl   0.074076
    68  Cl   0.066207
    69  Cl   0.065813
    70  Cl   0.032814
    71  Cl   0.083616
    72  Cl   0.033092
 Electronic spatial extent (au):  <R**2>=          32609.4173
 Charge=             -0.0000 electrons
 Dipole moment (field-independent basis, Debye):
    X=             -4.2501    Y=             -0.6627    Z=              0.4720  Tot=              4.3273
 Quadrupole moment (field-independent basis, Debye-Ang):
   XX=           -457.3452   YY=           -463.5928   ZZ=           -442.2056
   XY=              1.3568   XZ=             -0.8715   YZ=              3.3164
 Traceless Quadrupole moment (field-independent basis, Debye-Ang):
   XX=             -2.9640   YY=             -9.2116   ZZ=             12.1756
   XY=              1.3568   XZ=             -0.8715   YZ=              3.3164
 Octapole moment (field-independent basis, Debye-Ang**2):
  XXX=             89.2275  YYY=             14.0392  ZZZ=             -8.7372  XYY=             20.4019
  XXY=              9.3117  XXZ=             -7.9675  XZZ=             55.4963  YZZ=              4.0424
  YYZ=             21.2205  XYZ=             -0.1735
 Hexadecapole moment (field-independent basis, Debye-Ang**3):
 XXXX=         -22110.9513 YYYY=         -16237.7613 ZZZZ=          -9856.3483 XXXY=              3.1225
 XXXZ=             24.4435 YYYX=             59.6997 YYYZ=            -38.5684 ZZZX=             28.9668
 ZZZY=            -57.8825 XXYY=          -6343.2790 XXZZ=          -5299.1347 YYZZ=          -4308.5478
 XXYZ=            -22.3502 YYXZ=             20.1602 ZZXY=             -1.1809
 N-N= 1.375802401709D+04 E-N=-3.990644212149D+04  KE= 5.260076112586D+03
 No NMR shielding tensors so no spin-rotation constants.
 Leave Link  601 at Fri Jul 15 19:05:34 2022, MaxMem=  1342177280 cpu:              60.1 elap:               1.5
 (Enter /home/mkliu/g16/l9999.exe)
 1\1\GINC-NODE06\FOpt\RB3LYP\6-311G(d,p)\C66Cl6\MKLIU\15-Jul-2022\0\\#P
  opt b3lyp/6-311G(d, p) empiricaldispersion=GD3\\force\\0,1\C,-1.33822
 89215,1.8786933683,-3.9833446098\C,0.1980234327,2.2382130956,-3.980681
 8287\C,0.9794210658,0.8667836661,-4.3251955815\C,-1.2966305136,0.39802
 64986,-3.8736770232\C,-0.0795081023,-0.1780966858,-4.1746922599\C,-2.1
 654228061,-0.1335873842,-2.9278893788\C,-2.222054806,2.2920526578,-2.6
 968813846\C,-2.7169779694,0.9292689713,-2.1493620846\C,-1.4689469622,2
 .9561361594,-1.5461703042\C,0.7144218909,2.5508140766,-2.6157240661\C,
 -0.0410343076,3.1709800144,-1.5937282394\C,1.9259494311,0.6648086186,-
 3.1406036926\C,1.8658810939,1.8262352596,-2.3028135248\C,2.2737318084,
 -0.5474110399,-2.6027648424\C,0.2025296659,-1.4215907909,-3.6513899534
 \C,1.6098014623,-1.8061633195,-3.1964388182\C,-1.9378255441,-1.4239309
 809,-2.3972944245\C,-0.7635564436,-2.0912810008,-2.8737362186\C,-2.462
 4515443,-1.7272943296,-1.0854853986\C,-3.1169783366,0.708806342,-0.861
 4719543\C,-3.0723111859,-0.64495574,-0.3049394257\C,-2.0846797919,2.92
 20498432,-0.3130030316\C,-3.2137835939,1.9352354084,0.0427755623\C,-1.
 3855252103,3.2618300717,0.8860376703\C,0.6595852644,3.4214693291,-0.39
 29327951\C,-0.0276215045,3.5675776645,0.8546790401\C,2.4469724739,1.84
 47320217,-1.0061964543\C,1.9366861275,2.8157003281,-0.122570052\C,2.90
 43932135,-0.5997933411,-1.2766259083\C,3.0591948102,0.634221161,-0.500
 5736067\C,2.9362189539,-1.8221311996,-0.5782405528\C,1.3075527549,-2.8
 341978391,-2.126728763\C,-0.103116623,-3.0656757035,-2.0477021343\C,2.
 0514808503,-2.9312033361,-0.9856897372\C,-1.9235346186,-2.8501112036,-
 0.4077448056\C,-0.7012476504,-3.4922983904,-0.8789372786\C,-1.91774828
 04,-2.9244073557,1.0126551981\C,-3.139208162,-0.8024387528,1.095162989
 3\C,-2.5227840528,-1.9093262284,1.7512736397\C,-2.9087045672,1.6243216
 862,1.4912821199\C,-1.9199962089,2.5184119186,2.0046797772\C,-3.008264
 6379,0.3574498925,1.9925647544\C,-1.0930396806,2.1382554496,3.06493925
 19\C,0.8415017566,3.1264507187,1.9220613024\C,2.0669769555,2.663959088
 8,1.3001207214\C,0.3257351307,2.4451985855,3.0177423044\C,3.2642138906
 ,0.5536851063,0.8991187189\C,2.7355738303,1.5633619417,1.801748549\C,3
 .02009652,-1.8650197896,0.849752362\C,3.2113762597,-0.70099271,1.58326
 34533\C,1.4808774994,-3.503959221,0.2113112247\C,0.1127688004,-3.80717
 99741,0.2624376426\C,-0.6495678335,-3.4910773305,1.4475279749\C,2.1147
 56555,-2.8910441753,1.3508933045\C,-0.0173177213,-2.9720245262,2.57222
 4613\C,1.3991999299,-2.6677002899,2.5239682272\C,-1.9065933132,-1.4461
 52369,2.9845520671\C,-2.2050589345,-0.0408498884,3.1256827531\C,-1.248
 9041038,0.831009596,3.6511205234\C,-0.6660802354,-1.9453653959,3.36838
 32024\C,1.0451347224,1.3178167079,3.5745979441\C,2.245331025,0.8996720
 432,2.9931807926\C,2.5375633629,-0.50851732,2.8560342633\C,1.622964795
 7,-1.458897016,3.3016488849\C,0.0694575462,0.3270226404,3.991163147\C,
 0.354519701,-1.0303787757,3.8523431514\Cl,-2.1118250457,2.2756422662,-
 5.5755140279\Cl,0.6324370643,3.659211405,-5.0120362312\Cl,1.8481507624
 ,0.8212959374,-5.9046515355\Cl,2.6392983998,-2.5462532784,-4.538029467
 8\Cl,-3.6065242345,3.3935853249,-3.1373483584\Cl,-4.9162214844,2.67122
 28678,-0.0286820636\\Version=ES64L-G16RevA.03\State=1-A\HF=-5276.77713
 58\RMSD=6.832e-09\RMSF=4.797e-05\Dipole=0.4434552,-0.6047203,1.5284496
 \Quadrupole=-1.502666,3.6858109,-2.1831448,6.9533965,3.7190631,1.37197
 86\PG=C01 [X(C66Cl6)]\\@


 I DON'T PRETEND TO UNDERSTAND THE UNIVERSE --
 IT'S A GREAT DEAL BIGGER THAN I AM.
       -- ATTR. TO WILLIAM ALLINGHAM (1828-89)
 Job cpu time:       2 days 12 hours 50 minutes 52.8 seconds.
 Elapsed time:       0 days  1 hours 16 minutes 15.0 seconds.
 File lengths (MBytes):  RWF=   1106 Int=      0 D2E=      0 Chk=    136 Scr=      1
 Normal termination of Gaussian 16 at Fri Jul 15 19:05:36 2022.
