 Entering Gaussian System, Link 0=g16
 Input=dmj66ponon2f4_addon_6.gjf
 Output=dmj66ponon2f4_addon_6.log
 Initial command:
 /home/mkliu/g16/l1.exe "/data/scratch/Gau-6875.inp" -scrdir="/data/scratch/"
 Entering Link 1 = /home/mkliu/g16/l1.exe PID=      6876.
  
 Copyright (c) 1988,1990,1992,1993,1995,1998,2003,2009,2016,
            Gaussian, Inc.  All Rights Reserved.
  
 This is part of the Gaussian(R) 16 program.  It is based on
 the Gaussian(R) 09 system (copyright 2009, Gaussian, Inc.),
 the Gaussian(R) 03 system (copyright 2003, Gaussian, Inc.),
 the Gaussian(R) 98 system (copyright 1998, Gaussian, Inc.),
 the Gaussian(R) 94 system (copyright 1995, Gaussian, Inc.),
 the Gaussian 92(TM) system (copyright 1992, Gaussian, Inc.),
 the Gaussian 90(TM) system (copyright 1990, Gaussian, Inc.),
 the Gaussian 88(TM) system (copyright 1988, Gaussian, Inc.),
 the Gaussian 86(TM) system (copyright 1986, Carnegie Mellon
 University), and the Gaussian 82(TM) system (copyright 1983,
 Carnegie Mellon University). Gaussian is a federally registered
 trademark of Gaussian, Inc.
  
 This software contains proprietary and confidential information,
 including trade secrets, belonging to Gaussian, Inc.
  
 This software is provided under written license and may be
 used, copied, transmitted, or stored only in accord with that
 written license.
  
 The following legend is applicable only to US Government
 contracts under FAR:
  
                    RESTRICTED RIGHTS LEGEND
  
 Use, reproduction and disclosure by the US Government is
 subject to restrictions as set forth in subparagraphs (a)
 and (c) of the Commercial Computer Software - Restricted
 Rights clause in FAR 52.227-19.
  
 Gaussian, Inc.
 340 Quinnipiac St., Bldg. 40, Wallingford CT 06492
  
  
 ---------------------------------------------------------------
 Warning -- This program may not be used in any manner that
 competes with the business of Gaussian, Inc. or will provide
 assistance to any competitor of Gaussian, Inc.  The licensee
 of this program is prohibited from giving any competitor of
 Gaussian, Inc. access to this program.  By using this program,
 the user acknowledges that Gaussian, Inc. is engaged in the
 business of creating and licensing software in the field of
 computational chemistry and represents and warrants to the
 licensee that it is not a competitor of Gaussian, Inc. and that
 it will not use this program in any manner prohibited above.
 ---------------------------------------------------------------
  

 Cite this work as:
 Gaussian 16, Revision A.03,
 M. J. Frisch, G. W. Trucks, H. B. Schlegel, G. E. Scuseria, 
 M. A. Robb, J. R. Cheeseman, G. Scalmani, V. Barone, 
 G. A. Petersson, H. Nakatsuji, X. Li, M. Caricato, A. V. Marenich, 
 J. Bloino, B. G. Janesko, R. Gomperts, B. Mennucci, H. P. Hratchian, 
 J. V. Ortiz, A. F. Izmaylov, J. L. Sonnenberg, D. Williams-Young, 
 F. Ding, F. Lipparini, F. Egidi, J. Goings, B. Peng, A. Petrone, 
 T. Henderson, D. Ranasinghe, V. G. Zakrzewski, J. Gao, N. Rega, 
 G. Zheng, W. Liang, M. Hada, M. Ehara, K. Toyota, R. Fukuda, 
 J. Hasegawa, M. Ishida, T. Nakajima, Y. Honda, O. Kitao, H. Nakai, 
 T. Vreven, K. Throssell, J. A. Montgomery, Jr., J. E. Peralta, 
 F. Ogliaro, M. J. Bearpark, J. J. Heyd, E. N. Brothers, K. N. Kudin, 
 V. N. Staroverov, T. A. Keith, R. Kobayashi, J. Normand, 
 K. Raghavachari, A. P. Rendell, J. C. Burant, S. S. Iyengar, 
 J. Tomasi, M. Cossi, J. M. Millam, M. Klene, C. Adamo, R. Cammi, 
 J. W. Ochterski, R. L. Martin, K. Morokuma, O. Farkas, 
 J. B. Foresman, and D. J. Fox, Gaussian, Inc., Wallingford CT, 2016.
 
 ******************************************
 Gaussian 16:  ES64L-G16RevA.03 25-Dec-2016
                14-Jul-2022 
 ******************************************
 %mem=10GB
 %chk=dmj66ponon2f4_addon_6.chk
 %nprocshared=48
 Will use up to   48 processors via shared memory.
 -------------------------------------------------
 #P opt b3lyp/6-311G(d, p) empiricaldispersion=GD3
 -------------------------------------------------
 1/18=20,19=15,26=3,38=1/1,3;
 2/9=110,12=2,17=6,18=5,40=1/2;
 3/5=4,6=6,7=101,11=2,25=1,30=1,71=1,74=-5,124=31/1,2,3;
 4//1;
 5/5=2,38=5/2;
 6/7=2,8=2,9=2,10=2,28=1/1;
 7//1,2,3,16;
 1/18=20,19=15,26=3/3(2);
 2/9=110/2;
 99//99;
 2/9=110/2;
 3/5=4,6=6,7=101,11=2,25=1,30=1,71=1,74=-5,124=31/1,2,3;
 4/5=5,16=3,69=1/1;
 5/5=2,38=5/2;
 7//1,2,3,16;
 1/18=20,19=15,26=3/3(-5);
 2/9=110/2;
 6/7=2,8=2,9=2,10=2,19=2,28=1/1;
 99/9=1/99;
 Leave Link    1 at Thu Jul 14 22:03:32 2022, MaxMem=  1342177280 cpu:               2.2 elap:               0.1
 (Enter /home/mkliu/g16/l101.exe)
 -----
 force
 -----
 Symbolic Z-matrix:
 Charge =  0 Multiplicity = 1
 C                    -1.3252    1.88102  -3.87801 
 C                     0.18823   2.20537  -3.99262 
 C                     0.9706    0.8894   -4.30623 
 C                    -1.27318   0.39722  -3.852 
 C                    -0.05848  -0.1711   -4.13844 
 C                    -2.14902  -0.13584  -2.9211 
 C                    -2.01712   2.12316  -2.56349 
 C                    -2.66754   0.95206  -2.13949 
 C                    -1.48778   2.96043  -1.58299 
 C                     0.67423   2.56028  -2.63936 
 C                    -0.04742   3.1991   -1.65094 
 C                     1.85911   0.66432  -3.1002 
 C                     1.80657   1.7997   -2.27172 
 C                     2.20878  -0.55058  -2.56199 
 C                     0.22337  -1.40437  -3.60194 
 C                     1.61954  -1.81259  -3.18149 
 C                    -1.92215  -1.40096  -2.36458 
 C                    -0.73912  -2.04406  -2.80814 
 C                    -2.48533  -1.70663  -1.06947 
 C                    -3.10941   0.7109   -0.82287 
 C                    -3.10497  -0.64268  -0.29797 
 C                    -2.07914   2.8626   -0.31748 
 C                    -2.95589   1.8037    0.04193 
 C                    -1.39956   3.26738   0.88249 
 C                     0.63818   3.37832  -0.42041 
 C                    -0.05166   3.5278    0.83133 
 C                     2.371     1.78778  -1.00817 
 C                     1.87231   2.77234  -0.13916 
 C                     2.84399  -0.5859   -1.26713 
 C                     2.96962   0.57315  -0.53088 
 C                     3.14688  -1.93246  -0.63506 
 C                     1.31164  -2.80077  -2.10012 
 C                    -0.09616  -3.01454  -2.00014 
 C                     2.04899  -2.90535  -0.9689 
 C                    -1.94052  -2.80553  -0.39497 
 C                    -0.71912  -3.42493  -0.85063 
 C                    -1.9509   -2.88807   1.03171 
 C                    -3.15992  -0.7811    1.09503 
 C                    -2.56319  -1.89906   1.76704 
 C                    -2.90309   1.62348   1.46004 
 C                    -1.94932   2.54458   2.00382 
 C                    -3.03905   0.35312   1.97971 
 C                    -1.13347   2.13416   3.03966 
 C                     0.80985   3.08106   1.89647 
 C                     2.01754   2.61123   1.28858 
 C                     0.2794    2.41967   2.9831 
 C                     3.46984   0.58522   0.90363 
 C                     2.70025   1.53355   1.77989 
 C                     3.01804  -1.86982   0.86531 
 C                     3.18833  -0.72728   1.57153 
 C                     1.44904  -3.43898   0.215 
 C                     0.09469  -3.73374   0.27384 
 C                    -0.68409  -3.43891   1.44087 
 C                     2.07711  -2.83851   1.34201 
 C                    -0.06168  -2.92781   2.56054 
 C                     1.34344  -2.62502   2.49854 
 C                    -1.96518  -1.44113   2.98932 
 C                    -2.2568   -0.03914   3.11733 
 C                    -1.30034   0.82984   3.61576 
 C                    -0.7233   -1.92636   3.35439 
 C                     0.98772   1.29854   3.51435 
 C                     2.17974   0.87883   2.92932 
 C                     2.46475  -0.51627   2.78772 
 C                     1.55298  -1.4395    3.25501 
 C                     0.01634   0.32988   3.93693 
 C                     0.29402  -1.01856   3.80862 
 Cl                   -2.28165   2.62855  -5.19566 
 Cl                    0.53365   3.56582  -5.11384 
 Cl                    1.84576   0.80074  -5.84116 
 Cl                    2.693    -2.44824  -4.46677 
 Cl                    4.78453  -2.45718  -1.19106 
 Cl                    5.24117   0.96957   0.80576 
 
 ITRead=  0  0  0  0  0  0  0  0  0  0  0  0  0  0  0  0  0  0  0  0
 ITRead=  0  0  0  0  0  0  0  0  0  0  0  0  0  0  0  0  0  0  0  0
 ITRead=  0  0  0  0  0  0  0  0  0  0  0  0  0  0  0  0  0  0  0  0
 ITRead=  0  0  0  0  0  0  0  0  0  0  0  0
 MicOpt= -1 -1 -1 -1 -1 -1 -1 -1 -1 -1 -1 -1 -1 -1 -1 -1 -1 -1 -1 -1
 MicOpt= -1 -1 -1 -1 -1 -1 -1 -1 -1 -1 -1 -1 -1 -1 -1 -1 -1 -1 -1 -1
 MicOpt= -1 -1 -1 -1 -1 -1 -1 -1 -1 -1 -1 -1 -1 -1 -1 -1 -1 -1 -1 -1
 MicOpt= -1 -1 -1 -1 -1 -1 -1 -1 -1 -1 -1 -1
 NAtoms=     72 NQM=       72 NQMF=       0 NMMI=      0 NMMIF=      0
                NMic=       0 NMicF=      0.
                    Isotopes and Nuclear Properties:
 (Nuclear quadrupole moments (NQMom) in fm**2, nuclear magnetic moments (NMagM)
  in nuclear magnetons)

  Atom         1           2           3           4           5           6           7           8           9          10
 IAtWgt=          12          12          12          12          12          12          12          12          12          12
 AtmWgt=  12.0000000  12.0000000  12.0000000  12.0000000  12.0000000  12.0000000  12.0000000  12.0000000  12.0000000  12.0000000
 NucSpn=           0           0           0           0           0           0           0           0           0           0
 AtZEff=  -0.0000000  -0.0000000  -0.0000000  -0.0000000  -0.0000000  -0.0000000  -0.0000000  -0.0000000  -0.0000000  -0.0000000
 NQMom=    0.0000000   0.0000000   0.0000000   0.0000000   0.0000000   0.0000000   0.0000000   0.0000000   0.0000000   0.0000000
 NMagM=    0.0000000   0.0000000   0.0000000   0.0000000   0.0000000   0.0000000   0.0000000   0.0000000   0.0000000   0.0000000
 AtZNuc=   6.0000000   6.0000000   6.0000000   6.0000000   6.0000000   6.0000000   6.0000000   6.0000000   6.0000000   6.0000000

  Atom        11          12          13          14          15          16          17          18          19          20
 IAtWgt=          12          12          12          12          12          12          12          12          12          12
 AtmWgt=  12.0000000  12.0000000  12.0000000  12.0000000  12.0000000  12.0000000  12.0000000  12.0000000  12.0000000  12.0000000
 NucSpn=           0           0           0           0           0           0           0           0           0           0
 AtZEff=  -0.0000000  -0.0000000  -0.0000000  -0.0000000  -0.0000000  -0.0000000  -0.0000000  -0.0000000  -0.0000000  -0.0000000
 NQMom=    0.0000000   0.0000000   0.0000000   0.0000000   0.0000000   0.0000000   0.0000000   0.0000000   0.0000000   0.0000000
 NMagM=    0.0000000   0.0000000   0.0000000   0.0000000   0.0000000   0.0000000   0.0000000   0.0000000   0.0000000   0.0000000
 AtZNuc=   6.0000000   6.0000000   6.0000000   6.0000000   6.0000000   6.0000000   6.0000000   6.0000000   6.0000000   6.0000000

  Atom        21          22          23          24          25          26          27          28          29          30
 IAtWgt=          12          12          12          12          12          12          12          12          12          12
 AtmWgt=  12.0000000  12.0000000  12.0000000  12.0000000  12.0000000  12.0000000  12.0000000  12.0000000  12.0000000  12.0000000
 NucSpn=           0           0           0           0           0           0           0           0           0           0
 AtZEff=  -0.0000000  -0.0000000  -0.0000000  -0.0000000  -0.0000000  -0.0000000  -0.0000000  -0.0000000  -0.0000000  -0.0000000
 NQMom=    0.0000000   0.0000000   0.0000000   0.0000000   0.0000000   0.0000000   0.0000000   0.0000000   0.0000000   0.0000000
 NMagM=    0.0000000   0.0000000   0.0000000   0.0000000   0.0000000   0.0000000   0.0000000   0.0000000   0.0000000   0.0000000
 AtZNuc=   6.0000000   6.0000000   6.0000000   6.0000000   6.0000000   6.0000000   6.0000000   6.0000000   6.0000000   6.0000000

  Atom        31          32          33          34          35          36          37          38          39          40
 IAtWgt=          12          12          12          12          12          12          12          12          12          12
 AtmWgt=  12.0000000  12.0000000  12.0000000  12.0000000  12.0000000  12.0000000  12.0000000  12.0000000  12.0000000  12.0000000
 NucSpn=           0           0           0           0           0           0           0           0           0           0
 AtZEff=  -0.0000000  -0.0000000  -0.0000000  -0.0000000  -0.0000000  -0.0000000  -0.0000000  -0.0000000  -0.0000000  -0.0000000
 NQMom=    0.0000000   0.0000000   0.0000000   0.0000000   0.0000000   0.0000000   0.0000000   0.0000000   0.0000000   0.0000000
 NMagM=    0.0000000   0.0000000   0.0000000   0.0000000   0.0000000   0.0000000   0.0000000   0.0000000   0.0000000   0.0000000
 AtZNuc=   6.0000000   6.0000000   6.0000000   6.0000000   6.0000000   6.0000000   6.0000000   6.0000000   6.0000000   6.0000000

  Atom        41          42          43          44          45          46          47          48          49          50
 IAtWgt=          12          12          12          12          12          12          12          12          12          12
 AtmWgt=  12.0000000  12.0000000  12.0000000  12.0000000  12.0000000  12.0000000  12.0000000  12.0000000  12.0000000  12.0000000
 NucSpn=           0           0           0           0           0           0           0           0           0           0
 AtZEff=  -0.0000000  -0.0000000  -0.0000000  -0.0000000  -0.0000000  -0.0000000  -0.0000000  -0.0000000  -0.0000000  -0.0000000
 NQMom=    0.0000000   0.0000000   0.0000000   0.0000000   0.0000000   0.0000000   0.0000000   0.0000000   0.0000000   0.0000000
 NMagM=    0.0000000   0.0000000   0.0000000   0.0000000   0.0000000   0.0000000   0.0000000   0.0000000   0.0000000   0.0000000
 AtZNuc=   6.0000000   6.0000000   6.0000000   6.0000000   6.0000000   6.0000000   6.0000000   6.0000000   6.0000000   6.0000000

  Atom        51          52          53          54          55          56          57          58          59          60
 IAtWgt=          12          12          12          12          12          12          12          12          12          12
 AtmWgt=  12.0000000  12.0000000  12.0000000  12.0000000  12.0000000  12.0000000  12.0000000  12.0000000  12.0000000  12.0000000
 NucSpn=           0           0           0           0           0           0           0           0           0           0
 AtZEff=  -0.0000000  -0.0000000  -0.0000000  -0.0000000  -0.0000000  -0.0000000  -0.0000000  -0.0000000  -0.0000000  -0.0000000
 NQMom=    0.0000000   0.0000000   0.0000000   0.0000000   0.0000000   0.0000000   0.0000000   0.0000000   0.0000000   0.0000000
 NMagM=    0.0000000   0.0000000   0.0000000   0.0000000   0.0000000   0.0000000   0.0000000   0.0000000   0.0000000   0.0000000
 AtZNuc=   6.0000000   6.0000000   6.0000000   6.0000000   6.0000000   6.0000000   6.0000000   6.0000000   6.0000000   6.0000000

  Atom        61          62          63          64          65          66          67          68          69          70
 IAtWgt=          12          12          12          12          12          12          35          35          35          35
 AtmWgt=  12.0000000  12.0000000  12.0000000  12.0000000  12.0000000  12.0000000  34.9688527  34.9688527  34.9688527  34.9688527
 NucSpn=           0           0           0           0           0           0           3           3           3           3
 AtZEff=  -0.0000000  -0.0000000  -0.0000000  -0.0000000  -0.0000000  -0.0000000  -0.0000000  -0.0000000  -0.0000000  -0.0000000
 NQMom=    0.0000000   0.0000000   0.0000000   0.0000000   0.0000000   0.0000000  -8.1650000  -8.1650000  -8.1650000  -8.1650000
 NMagM=    0.0000000   0.0000000   0.0000000   0.0000000   0.0000000   0.0000000   0.8218740   0.8218740   0.8218740   0.8218740
 AtZNuc=   6.0000000   6.0000000   6.0000000   6.0000000   6.0000000   6.0000000  17.0000000  17.0000000  17.0000000  17.0000000

  Atom        71          72
 IAtWgt=          35          35
 AtmWgt=  34.9688527  34.9688527
 NucSpn=           3           3
 AtZEff=  -0.0000000  -0.0000000
 NQMom=   -8.1650000  -8.1650000
 NMagM=    0.8218740   0.8218740
 AtZNuc=  17.0000000  17.0000000
 Leave Link  101 at Thu Jul 14 22:03:32 2022, MaxMem=  1342177280 cpu:              12.9 elap:               0.3
 (Enter /home/mkliu/g16/l103.exe)

 GradGradGradGradGradGradGradGradGradGradGradGradGradGradGradGradGradGrad
 Berny optimization.
 Initialization pass.
                           ----------------------------
                           !    Initial Parameters    !
                           ! (Angstroms and Degrees)  !
 --------------------------                            --------------------------
 ! Name  Definition              Value          Derivative Info.                !
 --------------------------------------------------------------------------------
 ! R1    R(1,2)                  1.552          estimate D2E/DX2                !
 ! R2    R(1,4)                  1.4849         estimate D2E/DX2                !
 ! R3    R(1,7)                  1.5051         estimate D2E/DX2                !
 ! R4    R(1,67)                 1.7916         estimate D2E/DX2                !
 ! R5    R(2,3)                  1.5628         estimate D2E/DX2                !
 ! R6    R(2,10)                 1.481          estimate D2E/DX2                !
 ! R7    R(2,68)                 1.7965         estimate D2E/DX2                !
 ! R8    R(3,5)                  1.4872         estimate D2E/DX2                !
 ! R9    R(3,12)                 1.5148         estimate D2E/DX2                !
 ! R10   R(3,69)                 1.7691         estimate D2E/DX2                !
 ! R11   R(4,5)                  1.3713         estimate D2E/DX2                !
 ! R12   R(4,6)                  1.3849         estimate D2E/DX2                !
 ! R13   R(5,15)                 1.3741         estimate D2E/DX2                !
 ! R14   R(6,8)                  1.4364         estimate D2E/DX2                !
 ! R15   R(6,17)                 1.4006         estimate D2E/DX2                !
 ! R16   R(7,8)                  1.4051         estimate D2E/DX2                !
 ! R17   R(7,9)                  1.3938         estimate D2E/DX2                !
 ! R18   R(8,20)                 1.4096         estimate D2E/DX2                !
 ! R19   R(9,11)                 1.4616         estimate D2E/DX2                !
 ! R20   R(9,22)                 1.4003         estimate D2E/DX2                !
 ! R21   R(10,11)                1.3805         estimate D2E/DX2                !
 ! R22   R(10,13)                1.4127         estimate D2E/DX2                !
 ! R23   R(11,25)                1.42           estimate D2E/DX2                !
 ! R24   R(12,13)                1.4065         estimate D2E/DX2                !
 ! R25   R(12,14)                1.374          estimate D2E/DX2                !
 ! R26   R(13,27)                1.3839         estimate D2E/DX2                !
 ! R27   R(14,16)                1.5244         estimate D2E/DX2                !
 ! R28   R(14,29)                1.4427         estimate D2E/DX2                !
 ! R29   R(15,16)                1.5142         estimate D2E/DX2                !
 ! R30   R(15,18)                1.402          estimate D2E/DX2                !
 ! R31   R(16,32)                1.4969         estimate D2E/DX2                !
 ! R32   R(16,70)                1.7912         estimate D2E/DX2                !
 ! R33   R(17,18)                1.4177         estimate D2E/DX2                !
 ! R34   R(17,19)                1.445          estimate D2E/DX2                !
 ! R35   R(18,33)                1.4171         estimate D2E/DX2                !
 ! R36   R(19,21)                1.453          estimate D2E/DX2                !
 ! R37   R(19,35)                1.3998         estimate D2E/DX2                !
 ! R38   R(20,21)                1.4518         estimate D2E/DX2                !
 ! R39   R(20,23)                1.402          estimate D2E/DX2                !
 ! R40   R(21,38)                1.4009         estimate D2E/DX2                !
 ! R41   R(22,23)                1.421          estimate D2E/DX2                !
 ! R42   R(22,24)                1.4372         estimate D2E/DX2                !
 ! R43   R(23,40)                1.4305         estimate D2E/DX2                !
 ! R44   R(24,26)                1.3738         estimate D2E/DX2                !
 ! R45   R(24,41)                1.4429         estimate D2E/DX2                !
 ! R46   R(25,26)                1.437          estimate D2E/DX2                !
 ! R47   R(25,28)                1.4034         estimate D2E/DX2                !
 ! R48   R(26,44)                1.4409         estimate D2E/DX2                !
 ! R49   R(27,28)                1.4047         estimate D2E/DX2                !
 ! R50   R(27,30)                1.4358         estimate D2E/DX2                !
 ! R51   R(28,45)                1.4441         estimate D2E/DX2                !
 ! R52   R(29,30)                1.3789         estimate D2E/DX2                !
 ! R53   R(29,31)                1.518          estimate D2E/DX2                !
 ! R54   R(30,47)                1.5193         estimate D2E/DX2                !
 ! R55   R(31,34)                1.5044         estimate D2E/DX2                !
 ! R56   R(31,49)                1.5072         estimate D2E/DX2                !
 ! R57   R(31,71)                1.8073         estimate D2E/DX2                !
 ! R58   R(32,33)                1.4274         estimate D2E/DX2                !
 ! R59   R(32,34)                1.3543         estimate D2E/DX2                !
 ! R60   R(33,36)                1.3704         estimate D2E/DX2                !
 ! R61   R(34,51)                1.4305         estimate D2E/DX2                !
 ! R62   R(35,36)                1.4433         estimate D2E/DX2                !
 ! R63   R(35,37)                1.4291         estimate D2E/DX2                !
 ! R64   R(36,52)                1.422          estimate D2E/DX2                !
 ! R65   R(37,39)                1.3761         estimate D2E/DX2                !
 ! R66   R(37,53)                1.4407         estimate D2E/DX2                !
 ! R67   R(38,39)                1.4344         estimate D2E/DX2                !
 ! R68   R(38,42)                1.4435         estimate D2E/DX2                !
 ! R69   R(39,57)                1.4357         estimate D2E/DX2                !
 ! R70   R(40,41)                1.4331         estimate D2E/DX2                !
 ! R71   R(40,42)                1.3793         estimate D2E/DX2                !
 ! R72   R(41,43)                1.3809         estimate D2E/DX2                !
 ! R73   R(42,58)                1.4353         estimate D2E/DX2                !
 ! R74   R(43,46)                1.4425         estimate D2E/DX2                !
 ! R75   R(43,59)                1.4356         estimate D2E/DX2                !
 ! R76   R(44,45)                1.4314         estimate D2E/DX2                !
 ! R77   R(44,46)                1.3783         estimate D2E/DX2                !
 ! R78   R(45,48)                1.3671         estimate D2E/DX2                !
 ! R79   R(46,61)                1.4286         estimate D2E/DX2                !
 ! R80   R(47,48)                1.5031         estimate D2E/DX2                !
 ! R81   R(47,50)                1.4993         estimate D2E/DX2                !
 ! R82   R(47,72)                1.8152         estimate D2E/DX2                !
 ! R83   R(48,62)                1.4215         estimate D2E/DX2                !
 ! R84   R(49,50)                1.3539         estimate D2E/DX2                !
 ! R85   R(49,54)                1.4321         estimate D2E/DX2                !
 ! R86   R(50,63)                1.4308         estimate D2E/DX2                !
 ! R87   R(51,52)                1.3873         estimate D2E/DX2                !
 ! R88   R(51,54)                1.4231         estimate D2E/DX2                !
 ! R89   R(52,53)                1.4337         estimate D2E/DX2                !
 ! R90   R(53,55)                1.3792         estimate D2E/DX2                !
 ! R91   R(54,56)                1.3861         estimate D2E/DX2                !
 ! R92   R(55,56)                1.4387         estimate D2E/DX2                !
 ! R93   R(55,60)                1.439          estimate D2E/DX2                !
 ! R94   R(56,64)                1.4218         estimate D2E/DX2                !
 ! R95   R(57,58)                1.4377         estimate D2E/DX2                !
 ! R96   R(57,60)                1.3824         estimate D2E/DX2                !
 ! R97   R(58,59)                1.3851         estimate D2E/DX2                !
 ! R98   R(59,65)                1.4446         estimate D2E/DX2                !
 ! R99   R(60,66)                1.4371         estimate D2E/DX2                !
 ! R100  R(61,62)                1.3926         estimate D2E/DX2                !
 ! R101  R(61,65)                1.4354         estimate D2E/DX2                !
 ! R102  R(62,63)                1.4309         estimate D2E/DX2                !
 ! R103  R(63,64)                1.3791         estimate D2E/DX2                !
 ! R104  R(64,66)                1.4383         estimate D2E/DX2                !
 ! R105  R(65,66)                1.3827         estimate D2E/DX2                !
 ! A1    A(2,1,4)              100.1343         estimate D2E/DX2                !
 ! A2    A(2,1,7)              118.6299         estimate D2E/DX2                !
 ! A3    A(2,1,67)             112.2759         estimate D2E/DX2                !
 ! A4    A(4,1,7)               99.2977         estimate D2E/DX2                !
 ! A5    A(4,1,67)             116.6484         estimate D2E/DX2                !
 ! A6    A(7,1,67)             109.2557         estimate D2E/DX2                !
 ! A7    A(1,2,3)              109.0877         estimate D2E/DX2                !
 ! A8    A(1,2,10)             107.6133         estimate D2E/DX2                !
 ! A9    A(1,2,68)             113.0696         estimate D2E/DX2                !
 ! A10   A(3,2,10)             102.7604         estimate D2E/DX2                !
 ! A11   A(3,2,68)             114.5944         estimate D2E/DX2                !
 ! A12   A(10,2,68)            109.0087         estimate D2E/DX2                !
 ! A13   A(2,3,5)              103.3806         estimate D2E/DX2                !
 ! A14   A(2,3,12)             105.0107         estimate D2E/DX2                !
 ! A15   A(2,3,69)             117.6432         estimate D2E/DX2                !
 ! A16   A(5,3,12)             102.1274         estimate D2E/DX2                !
 ! A17   A(5,3,69)             113.8566         estimate D2E/DX2                !
 ! A18   A(12,3,69)            113.1518         estimate D2E/DX2                !
 ! A19   A(1,4,5)              116.1986         estimate D2E/DX2                !
 ! A20   A(1,4,6)              111.9776         estimate D2E/DX2                !
 ! A21   A(5,4,6)              122.7585         estimate D2E/DX2                !
 ! A22   A(3,5,4)              109.9356         estimate D2E/DX2                !
 ! A23   A(3,5,15)             122.8271         estimate D2E/DX2                !
 ! A24   A(4,5,15)             118.1692         estimate D2E/DX2                !
 ! A25   A(4,6,8)              107.61           estimate D2E/DX2                !
 ! A26   A(4,6,17)             120.8193         estimate D2E/DX2                !
 ! A27   A(8,6,17)             121.7605         estimate D2E/DX2                !
 ! A28   A(1,7,8)              110.0146         estimate D2E/DX2                !
 ! A29   A(1,7,9)              122.4427         estimate D2E/DX2                !
 ! A30   A(8,7,9)              117.6585         estimate D2E/DX2                !
 ! A31   A(6,8,7)              107.4547         estimate D2E/DX2                !
 ! A32   A(6,8,20)             119.4614         estimate D2E/DX2                !
 ! A33   A(7,8,20)             124.7199         estimate D2E/DX2                !
 ! A34   A(7,9,11)             116.0828         estimate D2E/DX2                !
 ! A35   A(7,9,22)             115.6845         estimate D2E/DX2                !
 ! A36   A(11,9,22)            118.0087         estimate D2E/DX2                !
 ! A37   A(2,10,11)            126.4102         estimate D2E/DX2                !
 ! A38   A(2,10,13)            111.8254         estimate D2E/DX2                !
 ! A39   A(11,10,13)           118.8023         estimate D2E/DX2                !
 ! A40   A(9,11,10)            118.2206         estimate D2E/DX2                !
 ! A41   A(9,11,25)            117.1381         estimate D2E/DX2                !
 ! A42   A(10,11,25)           115.2433         estimate D2E/DX2                !
 ! A43   A(3,12,13)            109.0936         estimate D2E/DX2                !
 ! A44   A(3,12,14)            126.3357         estimate D2E/DX2                !
 ! A45   A(13,12,14)           119.5075         estimate D2E/DX2                !
 ! A46   A(10,13,12)           108.1349         estimate D2E/DX2                !
 ! A47   A(10,13,27)           124.689          estimate D2E/DX2                !
 ! A48   A(12,13,27)           121.0383         estimate D2E/DX2                !
 ! A49   A(12,14,16)           118.3242         estimate D2E/DX2                !
 ! A50   A(12,14,29)           119.0299         estimate D2E/DX2                !
 ! A51   A(16,14,29)           120.9759         estimate D2E/DX2                !
 ! A52   A(5,15,16)            122.6498         estimate D2E/DX2                !
 ! A53   A(5,15,18)            119.3229         estimate D2E/DX2                !
 ! A54   A(16,15,18)           110.6573         estimate D2E/DX2                !
 ! A55   A(14,16,15)           104.2453         estimate D2E/DX2                !
 ! A56   A(14,16,32)           109.4185         estimate D2E/DX2                !
 ! A57   A(14,16,70)           110.7177         estimate D2E/DX2                !
 ! A58   A(15,16,32)           100.8896         estimate D2E/DX2                !
 ! A59   A(15,16,70)           116.681          estimate D2E/DX2                !
 ! A60   A(32,16,70)           114.0397         estimate D2E/DX2                !
 ! A61   A(6,17,18)            114.8715         estimate D2E/DX2                !
 ! A62   A(6,17,19)            118.952          estimate D2E/DX2                !
 ! A63   A(18,17,19)           120.6443         estimate D2E/DX2                !
 ! A64   A(15,18,17)           122.8907         estimate D2E/DX2                !
 ! A65   A(15,18,33)           108.8935         estimate D2E/DX2                !
 ! A66   A(17,18,33)           120.7227         estimate D2E/DX2                !
 ! A67   A(17,19,21)           119.1585         estimate D2E/DX2                !
 ! A68   A(17,19,35)           116.5047         estimate D2E/DX2                !
 ! A69   A(21,19,35)           119.0113         estimate D2E/DX2                !
 ! A70   A(8,20,21)            119.753          estimate D2E/DX2                !
 ! A71   A(8,20,23)            114.1088         estimate D2E/DX2                !
 ! A72   A(21,20,23)           120.2229         estimate D2E/DX2                !
 ! A73   A(19,21,20)           119.4749         estimate D2E/DX2                !
 ! A74   A(19,21,38)           118.1867         estimate D2E/DX2                !
 ! A75   A(20,21,38)           116.8404         estimate D2E/DX2                !
 ! A76   A(9,22,23)            122.7672         estimate D2E/DX2                !
 ! A77   A(9,22,24)            122.3575         estimate D2E/DX2                !
 ! A78   A(23,22,24)           106.8847         estimate D2E/DX2                !
 ! A79   A(20,23,22)           119.4978         estimate D2E/DX2                !
 ! A80   A(20,23,40)           121.1534         estimate D2E/DX2                !
 ! A81   A(22,23,40)           108.7751         estimate D2E/DX2                !
 ! A82   A(22,24,26)           119.0932         estimate D2E/DX2                !
 ! A83   A(22,24,41)           109.1234         estimate D2E/DX2                !
 ! A84   A(26,24,41)           119.849          estimate D2E/DX2                !
 ! A85   A(11,25,26)           122.4248         estimate D2E/DX2                !
 ! A86   A(11,25,28)           122.9413         estimate D2E/DX2                !
 ! A87   A(26,25,28)           107.0078         estimate D2E/DX2                !
 ! A88   A(24,26,25)           118.9282         estimate D2E/DX2                !
 ! A89   A(24,26,44)           120.0211         estimate D2E/DX2                !
 ! A90   A(25,26,44)           108.9429         estimate D2E/DX2                !
 ! A91   A(13,27,28)           114.4566         estimate D2E/DX2                !
 ! A92   A(13,27,30)           118.7399         estimate D2E/DX2                !
 ! A93   A(28,27,30)           122.3641         estimate D2E/DX2                !
 ! A94   A(25,28,27)           119.3975         estimate D2E/DX2                !
 ! A95   A(25,28,45)           109.5574         estimate D2E/DX2                !
 ! A96   A(27,28,45)           119.8498         estimate D2E/DX2                !
 ! A97   A(14,29,30)           119.9185         estimate D2E/DX2                !
 ! A98   A(14,29,31)           118.8992         estimate D2E/DX2                !
 ! A99   A(30,29,31)           120.3398         estimate D2E/DX2                !
 ! A100  A(27,30,29)           119.711          estimate D2E/DX2                !
 ! A101  A(27,30,47)           116.3869         estimate D2E/DX2                !
 ! A102  A(29,30,47)           122.7412         estimate D2E/DX2                !
 ! A103  A(29,31,34)           109.6103         estimate D2E/DX2                !
 ! A104  A(29,31,49)           111.1346         estimate D2E/DX2                !
 ! A105  A(29,31,71)           108.0734         estimate D2E/DX2                !
 ! A106  A(34,31,49)           100.6841         estimate D2E/DX2                !
 ! A107  A(34,31,71)           113.9069         estimate D2E/DX2                !
 ! A108  A(49,31,71)           113.3141         estimate D2E/DX2                !
 ! A109  A(16,32,33)           110.6292         estimate D2E/DX2                !
 ! A110  A(16,32,34)           122.8459         estimate D2E/DX2                !
 ! A111  A(33,32,34)           117.8314         estimate D2E/DX2                !
 ! A112  A(18,33,32)           107.7575         estimate D2E/DX2                !
 ! A113  A(18,33,36)           118.4981         estimate D2E/DX2                !
 ! A114  A(32,33,36)           123.5004         estimate D2E/DX2                !
 ! A115  A(31,34,32)           122.1895         estimate D2E/DX2                !
 ! A116  A(31,34,51)           111.3242         estimate D2E/DX2                !
 ! A117  A(32,34,51)           119.4549         estimate D2E/DX2                !
 ! A118  A(19,35,36)           120.9413         estimate D2E/DX2                !
 ! A119  A(19,35,37)           121.5719         estimate D2E/DX2                !
 ! A120  A(36,35,37)           107.2494         estimate D2E/DX2                !
 ! A121  A(33,36,35)           121.4001         estimate D2E/DX2                !
 ! A122  A(33,36,52)           117.9171         estimate D2E/DX2                !
 ! A123  A(35,36,52)           109.1389         estimate D2E/DX2                !
 ! A124  A(35,37,39)           119.6805         estimate D2E/DX2                !
 ! A125  A(35,37,53)           107.4105         estimate D2E/DX2                !
 ! A126  A(39,37,53)           120.9477         estimate D2E/DX2                !
 ! A127  A(21,38,39)           121.7712         estimate D2E/DX2                !
 ! A128  A(21,38,42)           121.902          estimate D2E/DX2                !
 ! A129  A(39,38,42)           106.8841         estimate D2E/DX2                !
 ! A130  A(37,39,38)           119.6628         estimate D2E/DX2                !
 ! A131  A(37,39,57)           119.9218         estimate D2E/DX2                !
 ! A132  A(38,39,57)           108.8767         estimate D2E/DX2                !
 ! A133  A(23,40,41)           108.6478         estimate D2E/DX2                !
 ! A134  A(23,40,42)           119.0724         estimate D2E/DX2                !
 ! A135  A(41,40,42)           120.9718         estimate D2E/DX2                !
 ! A136  A(24,41,40)           106.2989         estimate D2E/DX2                !
 ! A137  A(24,41,43)           120.4441         estimate D2E/DX2                !
 ! A138  A(40,41,43)           119.1298         estimate D2E/DX2                !
 ! A139  A(38,42,40)           120.0689         estimate D2E/DX2                !
 ! A140  A(38,42,58)           108.4613         estimate D2E/DX2                !
 ! A141  A(40,42,58)           119.778          estimate D2E/DX2                !
 ! A142  A(41,43,46)           119.3674         estimate D2E/DX2                !
 ! A143  A(41,43,59)           120.1556         estimate D2E/DX2                !
 ! A144  A(46,43,59)           108.0233         estimate D2E/DX2                !
 ! A145  A(26,44,45)           106.9949         estimate D2E/DX2                !
 ! A146  A(26,44,46)           120.0972         estimate D2E/DX2                !
 ! A147  A(45,44,46)           120.1362         estimate D2E/DX2                !
 ! A148  A(28,45,44)           107.3622         estimate D2E/DX2                !
 ! A149  A(28,45,48)           119.5697         estimate D2E/DX2                !
 ! A150  A(44,45,48)           121.8352         estimate D2E/DX2                !
 ! A151  A(43,46,44)           120.1883         estimate D2E/DX2                !
 ! A152  A(43,46,61)           108.404          estimate D2E/DX2                !
 ! A153  A(44,46,61)           118.6171         estimate D2E/DX2                !
 ! A154  A(30,47,48)           112.76           estimate D2E/DX2                !
 ! A155  A(30,47,50)           110.5996         estimate D2E/DX2                !
 ! A156  A(30,47,72)           105.7873         estimate D2E/DX2                !
 ! A157  A(48,47,50)           101.3306         estimate D2E/DX2                !
 ! A158  A(48,47,72)           113.4199         estimate D2E/DX2                !
 ! A159  A(50,47,72)           113.1159         estimate D2E/DX2                !
 ! A160  A(45,48,47)           122.9237         estimate D2E/DX2                !
 ! A161  A(45,48,62)           118.0873         estimate D2E/DX2                !
 ! A162  A(47,48,62)           111.6086         estimate D2E/DX2                !
 ! A163  A(31,49,50)           122.9268         estimate D2E/DX2                !
 ! A164  A(31,49,54)           111.0641         estimate D2E/DX2                !
 ! A165  A(50,49,54)           118.6724         estimate D2E/DX2                !
 ! A166  A(47,50,49)           122.0035         estimate D2E/DX2                !
 ! A167  A(47,50,63)           110.151          estimate D2E/DX2                !
 ! A168  A(49,50,63)           120.2791         estimate D2E/DX2                !
 ! A169  A(34,51,52)           121.5869         estimate D2E/DX2                !
 ! A170  A(34,51,54)           108.236          estimate D2E/DX2                !
 ! A171  A(52,51,54)           119.1385         estimate D2E/DX2                !
 ! A172  A(36,52,51)           118.6222         estimate D2E/DX2                !
 ! A173  A(36,52,53)           106.748          estimate D2E/DX2                !
 ! A174  A(51,52,53)           121.4083         estimate D2E/DX2                !
 ! A175  A(37,53,52)           108.9709         estimate D2E/DX2                !
 ! A176  A(37,53,55)           119.0564         estimate D2E/DX2                !
 ! A177  A(52,53,55)           119.4657         estimate D2E/DX2                !
 ! A178  A(49,54,51)           108.1654         estimate D2E/DX2                !
 ! A179  A(49,54,56)           121.4197         estimate D2E/DX2                !
 ! A180  A(51,54,56)           119.4821         estimate D2E/DX2                !
 ! A181  A(53,55,56)           118.9299         estimate D2E/DX2                !
 ! A182  A(53,55,60)           119.8839         estimate D2E/DX2                !
 ! A183  A(56,55,60)           109.0468         estimate D2E/DX2                !
 ! A184  A(54,56,55)           121.3638         estimate D2E/DX2                !
 ! A185  A(54,56,64)           119.6252         estimate D2E/DX2                !
 ! A186  A(55,56,64)           107.2464         estimate D2E/DX2                !
 ! A187  A(39,57,58)           107.599          estimate D2E/DX2                !
 ! A188  A(39,57,60)           119.1472         estimate D2E/DX2                !
 ! A189  A(58,57,60)           120.066          estimate D2E/DX2                !
 ! A190  A(42,58,57)           107.8477         estimate D2E/DX2                !
 ! A191  A(42,58,59)           119.3494         estimate D2E/DX2                !
 ! A192  A(57,58,59)           120.2506         estimate D2E/DX2                !
 ! A193  A(43,59,58)           120.39           estimate D2E/DX2                !
 ! A194  A(43,59,65)           107.3206         estimate D2E/DX2                !
 ! A195  A(58,59,65)           119.4911         estimate D2E/DX2                !
 ! A196  A(55,60,57)           120.7718         estimate D2E/DX2                !
 ! A197  A(55,60,66)           106.7676         estimate D2E/DX2                !
 ! A198  A(57,60,66)           119.846          estimate D2E/DX2                !
 ! A199  A(46,61,62)           120.3117         estimate D2E/DX2                !
 ! A200  A(46,61,65)           107.6701         estimate D2E/DX2                !
 ! A201  A(62,61,65)           119.9693         estimate D2E/DX2                !
 ! A202  A(48,62,61)           120.9505         estimate D2E/DX2                !
 ! A203  A(48,62,63)           107.2228         estimate D2E/DX2                !
 ! A204  A(61,62,63)           120.3912         estimate D2E/DX2                !
 ! A205  A(50,63,62)           109.1852         estimate D2E/DX2                !
 ! A206  A(50,63,64)           121.5749         estimate D2E/DX2                !
 ! A207  A(62,63,64)           119.173          estimate D2E/DX2                !
 ! A208  A(56,64,63)           118.3802         estimate D2E/DX2                !
 ! A209  A(56,64,66)           108.6519         estimate D2E/DX2                !
 ! A210  A(63,64,66)           120.8762         estimate D2E/DX2                !
 ! A211  A(59,65,61)           108.5299         estimate D2E/DX2                !
 ! A212  A(59,65,66)           119.996          estimate D2E/DX2                !
 ! A213  A(61,65,66)           119.6624         estimate D2E/DX2                !
 ! A214  A(60,66,64)           108.2458         estimate D2E/DX2                !
 ! A215  A(60,66,65)           120.2117         estimate D2E/DX2                !
 ! A216  A(64,66,65)           119.7964         estimate D2E/DX2                !
 ! D1    D(4,1,2,3)             11.0598         estimate D2E/DX2                !
 ! D2    D(4,1,2,10)           -99.7385         estimate D2E/DX2                !
 ! D3    D(4,1,2,68)           139.8205         estimate D2E/DX2                !
 ! D4    D(7,1,2,3)            117.5926         estimate D2E/DX2                !
 ! D5    D(7,1,2,10)             6.7943         estimate D2E/DX2                !
 ! D6    D(7,1,2,68)          -113.6467         estimate D2E/DX2                !
 ! D7    D(67,1,2,3)          -113.3835         estimate D2E/DX2                !
 ! D8    D(67,1,2,10)          135.8182         estimate D2E/DX2                !
 ! D9    D(67,1,2,68)           15.3772         estimate D2E/DX2                !
 ! D10   D(2,1,4,5)             -9.8496         estimate D2E/DX2                !
 ! D11   D(2,1,4,6)            138.2404         estimate D2E/DX2                !
 ! D12   D(7,1,4,5)           -131.3489         estimate D2E/DX2                !
 ! D13   D(7,1,4,6)             16.7411         estimate D2E/DX2                !
 ! D14   D(67,1,4,5)           111.5188         estimate D2E/DX2                !
 ! D15   D(67,1,4,6)          -100.3913         estimate D2E/DX2                !
 ! D16   D(2,1,7,8)           -125.9225         estimate D2E/DX2                !
 ! D17   D(2,1,7,9)             18.8581         estimate D2E/DX2                !
 ! D18   D(4,1,7,8)            -18.9143         estimate D2E/DX2                !
 ! D19   D(4,1,7,9)            125.8663         estimate D2E/DX2                !
 ! D20   D(67,1,7,8)           103.6746         estimate D2E/DX2                !
 ! D21   D(67,1,7,9)          -111.5448         estimate D2E/DX2                !
 ! D22   D(1,2,3,5)             -9.1105         estimate D2E/DX2                !
 ! D23   D(1,2,3,12)          -115.8106         estimate D2E/DX2                !
 ! D24   D(1,2,3,69)           117.323          estimate D2E/DX2                !
 ! D25   D(10,2,3,5)           104.8854         estimate D2E/DX2                !
 ! D26   D(10,2,3,12)           -1.8148         estimate D2E/DX2                !
 ! D27   D(10,2,3,69)         -128.6812         estimate D2E/DX2                !
 ! D28   D(68,2,3,5)          -137.0194         estimate D2E/DX2                !
 ! D29   D(68,2,3,12)          116.2805         estimate D2E/DX2                !
 ! D30   D(68,2,3,69)          -10.5859         estimate D2E/DX2                !
 ! D31   D(1,2,10,11)          -32.6978         estimate D2E/DX2                !
 ! D32   D(1,2,10,13)          127.3959         estimate D2E/DX2                !
 ! D33   D(3,2,10,11)         -147.7652         estimate D2E/DX2                !
 ! D34   D(3,2,10,13)           12.3284         estimate D2E/DX2                !
 ! D35   D(68,2,10,11)          90.2725         estimate D2E/DX2                !
 ! D36   D(68,2,10,13)        -109.6339         estimate D2E/DX2                !
 ! D37   D(2,3,5,4)              3.0565         estimate D2E/DX2                !
 ! D38   D(2,3,5,15)          -143.2054         estimate D2E/DX2                !
 ! D39   D(12,3,5,4)           111.9262         estimate D2E/DX2                !
 ! D40   D(12,3,5,15)          -34.3357         estimate D2E/DX2                !
 ! D41   D(69,3,5,4)          -125.7476         estimate D2E/DX2                !
 ! D42   D(69,3,5,15)           87.9905         estimate D2E/DX2                !
 ! D43   D(2,3,12,13)           -9.0451         estimate D2E/DX2                !
 ! D44   D(2,3,12,14)          145.3278         estimate D2E/DX2                !
 ! D45   D(5,3,12,13)         -116.6639         estimate D2E/DX2                !
 ! D46   D(5,3,12,14)           37.709          estimate D2E/DX2                !
 ! D47   D(69,3,12,13)         120.53           estimate D2E/DX2                !
 ! D48   D(69,3,12,14)         -85.0971         estimate D2E/DX2                !
 ! D49   D(1,4,5,3)              4.5909         estimate D2E/DX2                !
 ! D50   D(1,4,5,15)           152.6251         estimate D2E/DX2                !
 ! D51   D(6,4,5,3)           -139.756          estimate D2E/DX2                !
 ! D52   D(6,4,5,15)             8.2782         estimate D2E/DX2                !
 ! D53   D(1,4,6,8)             -8.9439         estimate D2E/DX2                !
 ! D54   D(1,4,6,17)          -155.2915         estimate D2E/DX2                !
 ! D55   D(5,4,6,8)            136.7245         estimate D2E/DX2                !
 ! D56   D(5,4,6,17)            -9.6231         estimate D2E/DX2                !
 ! D57   D(3,5,15,16)           -2.3785         estimate D2E/DX2                !
 ! D58   D(3,5,15,18)          144.8106         estimate D2E/DX2                !
 ! D59   D(4,5,15,16)         -146.0605         estimate D2E/DX2                !
 ! D60   D(4,5,15,18)            1.1286         estimate D2E/DX2                !
 ! D61   D(4,6,8,7)             -3.8819         estimate D2E/DX2                !
 ! D62   D(4,6,8,20)          -153.5762         estimate D2E/DX2                !
 ! D63   D(17,6,8,7)           142.0822         estimate D2E/DX2                !
 ! D64   D(17,6,8,20)           -7.6122         estimate D2E/DX2                !
 ! D65   D(4,6,17,18)            1.2806         estimate D2E/DX2                !
 ! D66   D(4,6,17,19)          155.244          estimate D2E/DX2                !
 ! D67   D(8,6,17,18)         -140.3151         estimate D2E/DX2                !
 ! D68   D(8,6,17,19)           13.6482         estimate D2E/DX2                !
 ! D69   D(1,7,8,6)             15.0272         estimate D2E/DX2                !
 ! D70   D(1,7,8,20)           162.7148         estimate D2E/DX2                !
 ! D71   D(9,7,8,6)           -131.6406         estimate D2E/DX2                !
 ! D72   D(9,7,8,20)            16.0469         estimate D2E/DX2                !
 ! D73   D(1,7,9,11)           -21.9105         estimate D2E/DX2                !
 ! D74   D(1,7,9,22)          -166.5578         estimate D2E/DX2                !
 ! D75   D(8,7,9,11)           120.3706         estimate D2E/DX2                !
 ! D76   D(8,7,9,22)           -24.2767         estimate D2E/DX2                !
 ! D77   D(6,8,20,21)           -3.3905         estimate D2E/DX2                !
 ! D78   D(6,8,20,23)          149.6097         estimate D2E/DX2                !
 ! D79   D(7,8,20,21)         -147.5412         estimate D2E/DX2                !
 ! D80   D(7,8,20,23)            5.459          estimate D2E/DX2                !
 ! D81   D(7,9,11,10)           -1.7498         estimate D2E/DX2                !
 ! D82   D(7,9,11,25)         -146.7285         estimate D2E/DX2                !
 ! D83   D(22,9,11,10)         142.0497         estimate D2E/DX2                !
 ! D84   D(22,9,11,25)          -2.9291         estimate D2E/DX2                !
 ! D85   D(7,9,22,23)           12.9115         estimate D2E/DX2                !
 ! D86   D(7,9,22,24)          157.6676         estimate D2E/DX2                !
 ! D87   D(11,9,22,23)        -131.0291         estimate D2E/DX2                !
 ! D88   D(11,9,22,24)          13.727          estimate D2E/DX2                !
 ! D89   D(2,10,11,9)           32.1005         estimate D2E/DX2                !
 ! D90   D(2,10,11,25)         177.7246         estimate D2E/DX2                !
 ! D91   D(13,10,11,9)        -126.7562         estimate D2E/DX2                !
 ! D92   D(13,10,11,25)         18.8679         estimate D2E/DX2                !
 ! D93   D(2,10,13,12)         -18.8038         estimate D2E/DX2                !
 ! D94   D(2,10,13,27)        -171.2458         estimate D2E/DX2                !
 ! D95   D(11,10,13,12)        142.974          estimate D2E/DX2                !
 ! D96   D(11,10,13,27)         -9.468          estimate D2E/DX2                !
 ! D97   D(9,11,25,26)          -9.3665         estimate D2E/DX2                !
 ! D98   D(9,11,25,28)         136.172          estimate D2E/DX2                !
 ! D99   D(10,11,25,26)       -155.3763         estimate D2E/DX2                !
 ! D100  D(10,11,25,28)         -9.8378         estimate D2E/DX2                !
 ! D101  D(3,12,13,10)          16.9289         estimate D2E/DX2                !
 ! D102  D(3,12,13,27)         170.5708         estimate D2E/DX2                !
 ! D103  D(14,12,13,10)       -139.4715         estimate D2E/DX2                !
 ! D104  D(14,12,13,27)         14.1704         estimate D2E/DX2                !
 ! D105  D(3,12,14,16)          -2.5658         estimate D2E/DX2                !
 ! D106  D(3,12,14,29)        -167.9914         estimate D2E/DX2                !
 ! D107  D(13,12,14,16)        149.4236         estimate D2E/DX2                !
 ! D108  D(13,12,14,29)        -16.002          estimate D2E/DX2                !
 ! D109  D(10,13,27,28)        -10.2553         estimate D2E/DX2                !
 ! D110  D(10,13,27,30)        146.6847         estimate D2E/DX2                !
 ! D111  D(12,13,27,28)       -159.3825         estimate D2E/DX2                !
 ! D112  D(12,13,27,30)         -2.4425         estimate D2E/DX2                !
 ! D113  D(12,14,16,15)        -35.0413         estimate D2E/DX2                !
 ! D114  D(12,14,16,32)       -142.2686         estimate D2E/DX2                !
 ! D115  D(12,14,16,70)         91.2093         estimate D2E/DX2                !
 ! D116  D(29,14,16,15)        130.089          estimate D2E/DX2                !
 ! D117  D(29,14,16,32)         22.8617         estimate D2E/DX2                !
 ! D118  D(29,14,16,70)       -103.6603         estimate D2E/DX2                !
 ! D119  D(12,14,29,30)          6.5231         estimate D2E/DX2                !
 ! D120  D(12,14,29,31)        176.0525         estimate D2E/DX2                !
 ! D121  D(16,14,29,30)       -158.5044         estimate D2E/DX2                !
 ! D122  D(16,14,29,31)         11.025          estimate D2E/DX2                !
 ! D123  D(5,15,16,14)          38.5955         estimate D2E/DX2                !
 ! D124  D(5,15,16,32)         152.0576         estimate D2E/DX2                !
 ! D125  D(5,15,16,70)         -83.8206         estimate D2E/DX2                !
 ! D126  D(18,15,16,14)       -111.0797         estimate D2E/DX2                !
 ! D127  D(18,15,16,32)          2.3825         estimate D2E/DX2                !
 ! D128  D(18,15,16,70)        126.5042         estimate D2E/DX2                !
 ! D129  D(5,15,18,17)          -9.5078         estimate D2E/DX2                !
 ! D130  D(5,15,18,33)        -159.3202         estimate D2E/DX2                !
 ! D131  D(16,15,18,17)        141.3097         estimate D2E/DX2                !
 ! D132  D(16,15,18,33)         -8.5027         estimate D2E/DX2                !
 ! D133  D(14,16,32,33)        114.0433         estimate D2E/DX2                !
 ! D134  D(14,16,32,34)        -32.7628         estimate D2E/DX2                !
 ! D135  D(15,16,32,33)          4.5609         estimate D2E/DX2                !
 ! D136  D(15,16,32,34)       -142.2452         estimate D2E/DX2                !
 ! D137  D(70,16,32,33)       -121.3479         estimate D2E/DX2                !
 ! D138  D(70,16,32,34)         91.846          estimate D2E/DX2                !
 ! D139  D(6,17,18,15)           8.0736         estimate D2E/DX2                !
 ! D140  D(6,17,18,33)         154.4722         estimate D2E/DX2                !
 ! D141  D(19,17,18,15)       -145.4112         estimate D2E/DX2                !
 ! D142  D(19,17,18,33)          0.9873         estimate D2E/DX2                !
 ! D143  D(6,17,19,21)          -8.6876         estimate D2E/DX2                !
 ! D144  D(6,17,19,35)        -162.6904         estimate D2E/DX2                !
 ! D145  D(18,17,19,21)        143.7395         estimate D2E/DX2                !
 ! D146  D(18,17,19,35)        -10.2633         estimate D2E/DX2                !
 ! D147  D(15,18,33,32)         11.2314         estimate D2E/DX2                !
 ! D148  D(15,18,33,36)        157.6734         estimate D2E/DX2                !
 ! D149  D(17,18,33,32)       -139.3512         estimate D2E/DX2                !
 ! D150  D(17,18,33,36)          7.0908         estimate D2E/DX2                !
 ! D151  D(17,19,21,20)         -1.9049         estimate D2E/DX2                !
 ! D152  D(17,19,21,38)       -154.9415         estimate D2E/DX2                !
 ! D153  D(35,19,21,20)        151.4451         estimate D2E/DX2                !
 ! D154  D(35,19,21,38)         -1.5915         estimate D2E/DX2                !
 ! D155  D(17,19,35,36)         11.7492         estimate D2E/DX2                !
 ! D156  D(17,19,35,37)        152.4802         estimate D2E/DX2                !
 ! D157  D(21,19,35,36)       -142.2935         estimate D2E/DX2                !
 ! D158  D(21,19,35,37)         -1.5624         estimate D2E/DX2                !
 ! D159  D(8,20,21,19)           7.9439         estimate D2E/DX2                !
 ! D160  D(8,20,21,38)         161.3345         estimate D2E/DX2                !
 ! D161  D(23,20,21,19)       -143.3986         estimate D2E/DX2                !
 ! D162  D(23,20,21,38)          9.992          estimate D2E/DX2                !
 ! D163  D(8,20,23,22)         -17.353          estimate D2E/DX2                !
 ! D164  D(8,20,23,40)        -158.0754         estimate D2E/DX2                !
 ! D165  D(21,20,23,22)        135.5087         estimate D2E/DX2                !
 ! D166  D(21,20,23,40)         -5.2138         estimate D2E/DX2                !
 ! D167  D(19,21,38,39)          3.3411         estimate D2E/DX2                !
 ! D168  D(19,21,38,42)        145.3345         estimate D2E/DX2                !
 ! D169  D(20,21,38,39)       -150.4021         estimate D2E/DX2                !
 ! D170  D(20,21,38,42)         -8.4087         estimate D2E/DX2                !
 ! D171  D(9,22,23,20)           8.8059         estimate D2E/DX2                !
 ! D172  D(9,22,23,40)         153.9002         estimate D2E/DX2                !
 ! D173  D(24,22,23,20)       -140.5692         estimate D2E/DX2                !
 ! D174  D(24,22,23,40)          4.5251         estimate D2E/DX2                !
 ! D175  D(9,22,24,26)         -12.1951         estimate D2E/DX2                !
 ! D176  D(9,22,24,41)        -154.9248         estimate D2E/DX2                !
 ! D177  D(23,22,24,26)        137.3344         estimate D2E/DX2                !
 ! D178  D(23,22,24,41)         -5.3953         estimate D2E/DX2                !
 ! D179  D(20,23,40,41)        142.405          estimate D2E/DX2                !
 ! D180  D(20,23,40,42)         -1.5976         estimate D2E/DX2                !
 ! D181  D(22,23,40,41)         -2.0049         estimate D2E/DX2                !
 ! D182  D(22,23,40,42)       -146.0075         estimate D2E/DX2                !
 ! D183  D(22,24,26,25)         -0.4069         estimate D2E/DX2                !
 ! D184  D(22,24,26,44)       -138.8012         estimate D2E/DX2                !
 ! D185  D(41,24,26,25)        138.3185         estimate D2E/DX2                !
 ! D186  D(41,24,26,44)         -0.0758         estimate D2E/DX2                !
 ! D187  D(22,24,41,40)          4.1592         estimate D2E/DX2                !
 ! D188  D(22,24,41,43)        143.6353         estimate D2E/DX2                !
 ! D189  D(26,24,41,40)       -138.2436         estimate D2E/DX2                !
 ! D190  D(26,24,41,43)          1.2325         estimate D2E/DX2                !
 ! D191  D(11,25,26,24)         11.1838         estimate D2E/DX2                !
 ! D192  D(11,25,26,44)        153.7504         estimate D2E/DX2                !
 ! D193  D(28,25,26,24)       -139.0411         estimate D2E/DX2                !
 ! D194  D(28,25,26,44)          3.5255         estimate D2E/DX2                !
 ! D195  D(11,25,28,27)         -9.9915         estimate D2E/DX2                !
 ! D196  D(11,25,28,45)       -153.739          estimate D2E/DX2                !
 ! D197  D(26,25,28,27)        140.043          estimate D2E/DX2                !
 ! D198  D(26,25,28,45)         -3.7044         estimate D2E/DX2                !
 ! D199  D(24,26,44,45)        140.096          estimate D2E/DX2                !
 ! D200  D(24,26,44,46)         -1.5269         estimate D2E/DX2                !
 ! D201  D(25,26,44,45)         -1.9937         estimate D2E/DX2                !
 ! D202  D(25,26,44,46)       -143.6166         estimate D2E/DX2                !
 ! D203  D(13,27,28,25)         19.2806         estimate D2E/DX2                !
 ! D204  D(13,27,28,45)        159.3049         estimate D2E/DX2                !
 ! D205  D(30,27,28,25)       -136.7278         estimate D2E/DX2                !
 ! D206  D(30,27,28,45)          3.2965         estimate D2E/DX2                !
 ! D207  D(13,27,30,29)         -7.0763         estimate D2E/DX2                !
 ! D208  D(13,27,30,47)       -175.1013         estimate D2E/DX2                !
 ! D209  D(28,27,30,29)        147.9551         estimate D2E/DX2                !
 ! D210  D(28,27,30,47)        -20.0699         estimate D2E/DX2                !
 ! D211  D(25,28,45,44)          2.5071         estimate D2E/DX2                !
 ! D212  D(25,28,45,48)        146.8788         estimate D2E/DX2                !
 ! D213  D(27,28,45,44)       -141.0511         estimate D2E/DX2                !
 ! D214  D(27,28,45,48)          3.3206         estimate D2E/DX2                !
 ! D215  D(14,29,30,27)          5.0693         estimate D2E/DX2                !
 ! D216  D(14,29,30,47)        172.3029         estimate D2E/DX2                !
 ! D217  D(31,29,30,27)       -164.3076         estimate D2E/DX2                !
 ! D218  D(31,29,30,47)          2.9261         estimate D2E/DX2                !
 ! D219  D(14,29,31,34)        -36.0413         estimate D2E/DX2                !
 ! D220  D(14,29,31,49)       -146.4509         estimate D2E/DX2                !
 ! D221  D(14,29,31,71)         88.6255         estimate D2E/DX2                !
 ! D222  D(30,29,31,34)        133.4428         estimate D2E/DX2                !
 ! D223  D(30,29,31,49)         23.0332         estimate D2E/DX2                !
 ! D224  D(30,29,31,71)       -101.8904         estimate D2E/DX2                !
 ! D225  D(27,30,47,48)         28.5904         estimate D2E/DX2                !
 ! D226  D(27,30,47,50)        141.253          estimate D2E/DX2                !
 ! D227  D(27,30,47,72)        -95.919          estimate D2E/DX2                !
 ! D228  D(29,30,47,48)       -139.0382         estimate D2E/DX2                !
 ! D229  D(29,30,47,50)        -26.3757         estimate D2E/DX2                !
 ! D230  D(29,30,47,72)         96.4523         estimate D2E/DX2                !
 ! D231  D(29,31,34,32)         28.0319         estimate D2E/DX2                !
 ! D232  D(29,31,34,51)       -122.3669         estimate D2E/DX2                !
 ! D233  D(49,31,34,32)        145.2084         estimate D2E/DX2                !
 ! D234  D(49,31,34,51)         -5.1905         estimate D2E/DX2                !
 ! D235  D(71,31,34,32)        -93.1784         estimate D2E/DX2                !
 ! D236  D(71,31,34,51)        116.4227         estimate D2E/DX2                !
 ! D237  D(29,31,49,50)        -26.2367         estimate D2E/DX2                !
 ! D238  D(29,31,49,54)        123.3024         estimate D2E/DX2                !
 ! D239  D(34,31,49,50)       -142.2834         estimate D2E/DX2                !
 ! D240  D(34,31,49,54)          7.2557         estimate D2E/DX2                !
 ! D241  D(71,31,49,50)         95.6858         estimate D2E/DX2                !
 ! D242  D(71,31,49,54)       -114.775          estimate D2E/DX2                !
 ! D243  D(16,32,33,18)         -9.852          estimate D2E/DX2                !
 ! D244  D(16,32,33,36)       -154.2199         estimate D2E/DX2                !
 ! D245  D(34,32,33,18)        138.8081         estimate D2E/DX2                !
 ! D246  D(34,32,33,36)         -5.5598         estimate D2E/DX2                !
 ! D247  D(16,32,34,31)          7.0308         estimate D2E/DX2                !
 ! D248  D(16,32,34,51)        155.1302         estimate D2E/DX2                !
 ! D249  D(33,32,34,31)       -137.5615         estimate D2E/DX2                !
 ! D250  D(33,32,34,51)         10.538          estimate D2E/DX2                !
 ! D251  D(18,33,36,35)         -5.6707         estimate D2E/DX2                !
 ! D252  D(18,33,36,52)       -144.9701         estimate D2E/DX2                !
 ! D253  D(32,33,36,35)        135.1819         estimate D2E/DX2                !
 ! D254  D(32,33,36,52)         -4.1175         estimate D2E/DX2                !
 ! D255  D(31,34,51,52)        144.9916         estimate D2E/DX2                !
 ! D256  D(31,34,51,54)          1.4366         estimate D2E/DX2                !
 ! D257  D(32,34,51,52)         -6.3172         estimate D2E/DX2                !
 ! D258  D(32,34,51,54)       -149.8723         estimate D2E/DX2                !
 ! D259  D(19,35,36,33)         -4.0395         estimate D2E/DX2                !
 ! D260  D(19,35,36,52)        138.376          estimate D2E/DX2                !
 ! D261  D(37,35,36,33)       -149.6602         estimate D2E/DX2                !
 ! D262  D(37,35,36,52)         -7.2447         estimate D2E/DX2                !
 ! D263  D(19,35,37,39)          3.0592         estimate D2E/DX2                !
 ! D264  D(19,35,37,53)       -139.9809         estimate D2E/DX2                !
 ! D265  D(36,35,37,39)        148.4167         estimate D2E/DX2                !
 ! D266  D(36,35,37,53)          5.3766         estimate D2E/DX2                !
 ! D267  D(33,36,52,51)          8.4196         estimate D2E/DX2                !
 ! D268  D(33,36,52,53)        150.0667         estimate D2E/DX2                !
 ! D269  D(35,36,52,51)       -135.4823         estimate D2E/DX2                !
 ! D270  D(35,36,52,53)          6.1649         estimate D2E/DX2                !
 ! D271  D(35,37,39,38)         -1.3176         estimate D2E/DX2                !
 ! D272  D(35,37,39,57)       -140.5505         estimate D2E/DX2                !
 ! D273  D(53,37,39,38)        136.6969         estimate D2E/DX2                !
 ! D274  D(53,37,39,57)         -2.5359         estimate D2E/DX2                !
 ! D275  D(35,37,53,52)         -1.6584         estimate D2E/DX2                !
 ! D276  D(35,37,53,55)        140.1583         estimate D2E/DX2                !
 ! D277  D(39,37,53,52)       -144.1353         estimate D2E/DX2                !
 ! D278  D(39,37,53,55)         -2.3185         estimate D2E/DX2                !
 ! D279  D(21,38,39,37)         -1.9075         estimate D2E/DX2                !
 ! D280  D(21,38,39,57)        141.3574         estimate D2E/DX2                !
 ! D281  D(42,38,39,37)       -148.7945         estimate D2E/DX2                !
 ! D282  D(42,38,39,57)         -5.5296         estimate D2E/DX2                !
 ! D283  D(21,38,42,40)          1.8985         estimate D2E/DX2                !
 ! D284  D(21,38,42,58)       -141.0681         estimate D2E/DX2                !
 ! D285  D(39,38,42,40)        148.7324         estimate D2E/DX2                !
 ! D286  D(39,38,42,58)          5.7658         estimate D2E/DX2                !
 ! D287  D(37,39,57,58)        146.3659         estimate D2E/DX2                !
 ! D288  D(37,39,57,60)          5.2245         estimate D2E/DX2                !
 ! D289  D(38,39,57,58)          3.2119         estimate D2E/DX2                !
 ! D290  D(38,39,57,60)       -137.9295         estimate D2E/DX2                !
 ! D291  D(23,40,41,24)         -1.3283         estimate D2E/DX2                !
 ! D292  D(23,40,41,43)       -141.4403         estimate D2E/DX2                !
 ! D293  D(42,40,41,24)        141.8649         estimate D2E/DX2                !
 ! D294  D(42,40,41,43)          1.7529         estimate D2E/DX2                !
 ! D295  D(23,40,42,38)          3.3102         estimate D2E/DX2                !
 ! D296  D(23,40,42,58)        142.1477         estimate D2E/DX2                !
 ! D297  D(41,40,42,38)       -136.186          estimate D2E/DX2                !
 ! D298  D(41,40,42,58)          2.6515         estimate D2E/DX2                !
 ! D299  D(24,41,43,46)         -0.7943         estimate D2E/DX2                !
 ! D300  D(24,41,43,59)       -138.3153         estimate D2E/DX2                !
 ! D301  D(40,41,43,46)        133.6483         estimate D2E/DX2                !
 ! D302  D(40,41,43,59)         -3.8727         estimate D2E/DX2                !
 ! D303  D(38,42,58,57)         -3.8445         estimate D2E/DX2                !
 ! D304  D(38,42,58,59)        138.1771         estimate D2E/DX2                !
 ! D305  D(40,42,58,57)       -146.9371         estimate D2E/DX2                !
 ! D306  D(40,42,58,59)         -4.9155         estimate D2E/DX2                !
 ! D307  D(41,43,46,44)         -0.8123         estimate D2E/DX2                !
 ! D308  D(41,43,46,61)       -141.8476         estimate D2E/DX2                !
 ! D309  D(59,43,46,44)        141.3043         estimate D2E/DX2                !
 ! D310  D(59,43,46,61)          0.269          estimate D2E/DX2                !
 ! D311  D(41,43,59,58)          1.5967         estimate D2E/DX2                !
 ! D312  D(41,43,59,65)        142.9216         estimate D2E/DX2                !
 ! D313  D(46,43,59,58)       -140.167          estimate D2E/DX2                !
 ! D314  D(46,43,59,65)          1.1579         estimate D2E/DX2                !
 ! D315  D(26,44,45,28)         -0.2724         estimate D2E/DX2                !
 ! D316  D(26,44,45,48)       -143.6624         estimate D2E/DX2                !
 ! D317  D(46,44,45,28)        141.3326         estimate D2E/DX2                !
 ! D318  D(46,44,45,48)         -2.0574         estimate D2E/DX2                !
 ! D319  D(26,44,46,43)          1.9669         estimate D2E/DX2                !
 ! D320  D(26,44,46,61)        139.1457         estimate D2E/DX2                !
 ! D321  D(45,44,46,43)       -134.6781         estimate D2E/DX2                !
 ! D322  D(45,44,46,61)          2.5007         estimate D2E/DX2                !
 ! D323  D(28,45,48,47)          8.1541         estimate D2E/DX2                !
 ! D324  D(28,45,48,62)       -139.2878         estimate D2E/DX2                !
 ! D325  D(44,45,48,47)        147.2777         estimate D2E/DX2                !
 ! D326  D(44,45,48,62)         -0.1642         estimate D2E/DX2                !
 ! D327  D(43,46,61,62)        140.9167         estimate D2E/DX2                !
 ! D328  D(43,46,61,65)         -1.6004         estimate D2E/DX2                !
 ! D329  D(44,46,61,62)         -0.8257         estimate D2E/DX2                !
 ! D330  D(44,46,61,65)       -143.3428         estimate D2E/DX2                !
 ! D331  D(30,47,48,45)        -23.8796         estimate D2E/DX2                !
 ! D332  D(30,47,48,62)        125.4123         estimate D2E/DX2                !
 ! D333  D(50,47,48,45)       -142.1213         estimate D2E/DX2                !
 ! D334  D(50,47,48,62)          7.1705         estimate D2E/DX2                !
 ! D335  D(72,47,48,45)         96.3358         estimate D2E/DX2                !
 ! D336  D(72,47,48,62)       -114.3724         estimate D2E/DX2                !
 ! D337  D(30,47,50,49)         23.6576         estimate D2E/DX2                !
 ! D338  D(30,47,50,63)       -125.9612         estimate D2E/DX2                !
 ! D339  D(48,47,50,49)        143.4478         estimate D2E/DX2                !
 ! D340  D(48,47,50,63)         -6.171          estimate D2E/DX2                !
 ! D341  D(72,47,50,49)        -94.7973         estimate D2E/DX2                !
 ! D342  D(72,47,50,63)        115.5839         estimate D2E/DX2                !
 ! D343  D(45,48,62,61)          1.869          estimate D2E/DX2                !
 ! D344  D(45,48,62,63)        145.3329         estimate D2E/DX2                !
 ! D345  D(47,48,62,61)       -149.0615         estimate D2E/DX2                !
 ! D346  D(47,48,62,63)         -5.5976         estimate D2E/DX2                !
 ! D347  D(31,49,50,47)          2.3708         estimate D2E/DX2                !
 ! D348  D(31,49,50,63)        149.0178         estimate D2E/DX2                !
 ! D349  D(54,49,50,47)       -145.0005         estimate D2E/DX2                !
 ! D350  D(54,49,50,63)          1.6464         estimate D2E/DX2                !
 ! D351  D(31,49,54,51)         -6.9135         estimate D2E/DX2                !
 ! D352  D(31,49,54,56)       -150.7564         estimate D2E/DX2                !
 ! D353  D(50,49,54,51)        144.0749         estimate D2E/DX2                !
 ! D354  D(50,49,54,56)          0.232          estimate D2E/DX2                !
 ! D355  D(47,50,63,62)          3.2785         estimate D2E/DX2                !
 ! D356  D(47,50,63,64)        148.3277         estimate D2E/DX2                !
 ! D357  D(49,50,63,62)       -146.9438         estimate D2E/DX2                !
 ! D358  D(49,50,63,64)         -1.8946         estimate D2E/DX2                !
 ! D359  D(34,51,52,36)         -3.5013         estimate D2E/DX2                !
 ! D360  D(34,51,52,53)       -139.379          estimate D2E/DX2                !
 ! D361  D(54,51,52,36)        136.2607         estimate D2E/DX2                !
 ! D362  D(54,51,52,53)          0.383          estimate D2E/DX2                !
 ! D363  D(34,51,54,49)          3.3214         estimate D2E/DX2                !
 ! D364  D(34,51,54,56)        147.9844         estimate D2E/DX2                !
 ! D365  D(52,51,54,49)       -141.273          estimate D2E/DX2                !
 ! D366  D(52,51,54,56)          3.3899         estimate D2E/DX2                !
 ! D367  D(36,52,53,37)         -2.7755         estimate D2E/DX2                !
 ! D368  D(36,52,53,55)       -144.4113         estimate D2E/DX2                !
 ! D369  D(51,52,53,37)        137.5679         estimate D2E/DX2                !
 ! D370  D(51,52,53,55)         -4.0679         estimate D2E/DX2                !
 ! D371  D(37,53,55,56)       -133.9653         estimate D2E/DX2                !
 ! D372  D(37,53,55,60)          4.4235         estimate D2E/DX2                !
 ! D373  D(52,53,55,56)          3.8553         estimate D2E/DX2                !
 ! D374  D(52,53,55,60)        142.2441         estimate D2E/DX2                !
 ! D375  D(49,54,56,55)        136.3285         estimate D2E/DX2                !
 ! D376  D(49,54,56,64)         -1.9209         estimate D2E/DX2                !
 ! D377  D(51,54,56,55)         -3.5818         estimate D2E/DX2                !
 ! D378  D(51,54,56,64)       -141.8312         estimate D2E/DX2                !
 ! D379  D(53,55,56,54)         -0.0972         estimate D2E/DX2                !
 ! D380  D(53,55,56,64)        142.5952         estimate D2E/DX2                !
 ! D381  D(60,55,56,54)       -142.5711         estimate D2E/DX2                !
 ! D382  D(60,55,56,64)          0.1213         estimate D2E/DX2                !
 ! D383  D(53,55,60,57)         -1.7268         estimate D2E/DX2                !
 ! D384  D(53,55,60,66)       -143.3872         estimate D2E/DX2                !
 ! D385  D(56,55,60,57)        140.331          estimate D2E/DX2                !
 ! D386  D(56,55,60,66)         -1.3294         estimate D2E/DX2                !
 ! D387  D(54,56,64,63)          1.6705         estimate D2E/DX2                !
 ! D388  D(54,56,64,66)        144.6082         estimate D2E/DX2                !
 ! D389  D(55,56,64,63)       -141.7914         estimate D2E/DX2                !
 ! D390  D(55,56,64,66)          1.1463         estimate D2E/DX2                !
 ! D391  D(39,57,58,42)          0.4067         estimate D2E/DX2                !
 ! D392  D(39,57,58,59)       -141.2091         estimate D2E/DX2                !
 ! D393  D(60,57,58,42)        141.1242         estimate D2E/DX2                !
 ! D394  D(60,57,58,59)         -0.4916         estimate D2E/DX2                !
 ! D395  D(39,57,60,55)         -3.1201         estimate D2E/DX2                !
 ! D396  D(39,57,60,66)        133.6624         estimate D2E/DX2                !
 ! D397  D(58,57,60,55)       -139.4098         estimate D2E/DX2                !
 ! D398  D(58,57,60,66)         -2.6273         estimate D2E/DX2                !
 ! D399  D(42,58,59,43)          2.8135         estimate D2E/DX2                !
 ! D400  D(42,58,59,65)       -133.922          estimate D2E/DX2                !
 ! D401  D(57,58,59,43)        140.1194         estimate D2E/DX2                !
 ! D402  D(57,58,59,65)          3.3839         estimate D2E/DX2                !
 ! D403  D(43,59,65,61)         -2.157          estimate D2E/DX2                !
 ! D404  D(43,59,65,66)       -144.9211         estimate D2E/DX2                !
 ! D405  D(58,59,65,61)        139.5793         estimate D2E/DX2                !
 ! D406  D(58,59,65,66)         -3.1848         estimate D2E/DX2                !
 ! D407  D(55,60,66,64)          2.0222         estimate D2E/DX2                !
 ! D408  D(55,60,66,65)        144.9075         estimate D2E/DX2                !
 ! D409  D(57,60,66,64)       -140.0629         estimate D2E/DX2                !
 ! D410  D(57,60,66,65)          2.8223         estimate D2E/DX2                !
 ! D411  D(46,61,62,48)         -1.3963         estimate D2E/DX2                !
 ! D412  D(46,61,62,63)       -140.1562         estimate D2E/DX2                !
 ! D413  D(65,61,62,48)        136.5902         estimate D2E/DX2                !
 ! D414  D(65,61,62,63)         -2.1697         estimate D2E/DX2                !
 ! D415  D(46,61,65,59)          2.3278         estimate D2E/DX2                !
 ! D416  D(46,61,65,66)        145.2369         estimate D2E/DX2                !
 ! D417  D(62,61,65,59)       -140.3414         estimate D2E/DX2                !
 ! D418  D(62,61,65,66)          2.5678         estimate D2E/DX2                !
 ! D419  D(48,62,63,50)          1.3906         estimate D2E/DX2                !
 ! D420  D(48,62,63,64)       -144.625          estimate D2E/DX2                !
 ! D421  D(61,62,63,50)        145.0992         estimate D2E/DX2                !
 ! D422  D(61,62,63,64)         -0.9164         estimate D2E/DX2                !
 ! D423  D(50,63,64,56)          0.189          estimate D2E/DX2                !
 ! D424  D(50,63,64,66)       -138.1041         estimate D2E/DX2                !
 ! D425  D(62,63,64,56)        141.8978         estimate D2E/DX2                !
 ! D426  D(62,63,64,66)          3.6047         estimate D2E/DX2                !
 ! D427  D(56,64,66,60)         -1.9906         estimate D2E/DX2                !
 ! D428  D(56,64,66,65)       -145.0567         estimate D2E/DX2                !
 ! D429  D(63,64,66,60)        139.8535         estimate D2E/DX2                !
 ! D430  D(63,64,66,65)         -3.2126         estimate D2E/DX2                !
 ! D431  D(59,65,66,60)          0.0865         estimate D2E/DX2                !
 ! D432  D(59,65,66,64)        138.7576         estimate D2E/DX2                !
 ! D433  D(61,65,66,60)       -138.5947         estimate D2E/DX2                !
 ! D434  D(61,65,66,64)          0.0765         estimate D2E/DX2                !
 --------------------------------------------------------------------------------
 Trust Radius=3.00D-01 FncErr=1.00D-07 GrdErr=1.00D-06 EigMax=2.50D+02 EigMin=1.00D-04
 Number of steps in this run=    432 maximum allowed number of steps=    432.
 GradGradGradGradGradGradGradGradGradGradGradGradGradGradGradGradGradGrad

 Leave Link  103 at Thu Jul 14 22:03:33 2022, MaxMem=  1342177280 cpu:               1.4 elap:               0.0
 (Enter /home/mkliu/g16/l202.exe)
 Stoichiometry    C66Cl6
 Framework group  C1[X(C66Cl6)]
 Deg. of freedom   210
 Full point group                 C1      NOp   1
 Largest Abelian subgroup         C1      NOp   1
 Largest concise Abelian subgroup C1      NOp   1
[...]
 Alpha virt. eigenvalues --    1.08616   1.09073   1.09338   1.09676   1.10037
 Alpha virt. eigenvalues --    1.10437   1.10680   1.11068   1.11393   1.11753
 Alpha virt. eigenvalues --    1.12069   1.12095   1.12812   1.13128   1.13746
 Alpha virt. eigenvalues --    1.14168   1.14726   1.15028   1.15434   1.15592
 Alpha virt. eigenvalues --    1.16251   1.16856   1.17045   1.17701   1.17889
 Alpha virt. eigenvalues --    1.18378   1.18827   1.19132   1.19528   1.19612
 Alpha virt. eigenvalues --    1.20008   1.20202   1.20472   1.21198   1.21528
 Alpha virt. eigenvalues --    1.22004   1.22402   1.22551   1.22771   1.23188
 Alpha virt. eigenvalues --    1.24095   1.24825   1.24985   1.25875   1.26438
 Alpha virt. eigenvalues --    1.26667   1.27140   1.27331   1.27541   1.28017
 Alpha virt. eigenvalues --    1.28597   1.28870   1.29640   1.30071   1.30696
 Alpha virt. eigenvalues --    1.31118   1.31644   1.32140   1.32236   1.32380
 Alpha virt. eigenvalues --    1.33054   1.33297   1.33521   1.33783   1.34109
 Alpha virt. eigenvalues --    1.34152   1.34615   1.35089   1.35326   1.35953
 Alpha virt. eigenvalues --    1.36140   1.36303   1.36519   1.36776   1.37345
 Alpha virt. eigenvalues --    1.37571   1.37987   1.38515   1.38743   1.39669
 Alpha virt. eigenvalues --    1.39746   1.39994   1.40073   1.40690   1.40966
 Alpha virt. eigenvalues --    1.41319   1.41377   1.41621   1.41654   1.42032
 Alpha virt. eigenvalues --    1.42257   1.42263   1.42675   1.43165   1.43306
 Alpha virt. eigenvalues --    1.43372   1.43646   1.43945   1.44196   1.44263
 Alpha virt. eigenvalues --    1.44609   1.44834   1.45208   1.45286   1.45544
 Alpha virt. eigenvalues --    1.45881   1.46034   1.46304   1.46587   1.46821
 Alpha virt. eigenvalues --    1.47130   1.47307   1.47722   1.47809   1.48250
 Alpha virt. eigenvalues --    1.48620   1.48749   1.48938   1.49152   1.49401
 Alpha virt. eigenvalues --    1.49828   1.50324   1.50522   1.50815   1.50960
 Alpha virt. eigenvalues --    1.51363   1.51595   1.51725   1.51944   1.52323
 Alpha virt. eigenvalues --    1.52609   1.53341   1.53478   1.53898   1.54086
 Alpha virt. eigenvalues --    1.54637   1.54948   1.55143   1.55266   1.55992
 Alpha virt. eigenvalues --    1.56449   1.56648   1.57210   1.57458   1.57943
 Alpha virt. eigenvalues --    1.58175   1.58517   1.58971   1.59381   1.60028
 Alpha virt. eigenvalues --    1.60087   1.60431   1.60886   1.61355   1.61838
 Alpha virt. eigenvalues --    1.62360   1.63058   1.63248   1.63339   1.63905
 Alpha virt. eigenvalues --    1.64219   1.64401   1.65076   1.65386   1.65443
 Alpha virt. eigenvalues --    1.66069   1.66513   1.66882   1.67422   1.67681
 Alpha virt. eigenvalues --    1.67917   1.68156   1.68703   1.69051   1.69547
 Alpha virt. eigenvalues --    1.69730   1.70161   1.70484   1.70949   1.71228
 Alpha virt. eigenvalues --    1.71568   1.72083   1.72264   1.72630   1.73011
 Alpha virt. eigenvalues --    1.73563   1.73742   1.74274   1.74365   1.75355
 Alpha virt. eigenvalues --    1.75436   1.75666   1.76215   1.76412   1.77018
 Alpha virt. eigenvalues --    1.77084   1.77443   1.77829   1.78312   1.78988
 Alpha virt. eigenvalues --    1.79001   1.79895   1.80158   1.80522   1.80822
 Alpha virt. eigenvalues --    1.81364   1.82089   1.82493   1.83063   1.83641
 Alpha virt. eigenvalues --    1.83830   1.85119   1.85955   1.86364   1.86758
 Alpha virt. eigenvalues --    1.87068   1.87559   1.88099   1.89063   1.89458
 Alpha virt. eigenvalues --    1.89728   1.90305   1.90512   1.90952   1.91463
 Alpha virt. eigenvalues --    1.92204   1.92420   1.92871   1.93600   1.94207
 Alpha virt. eigenvalues --    1.94319   1.94714   1.95772   1.96134   1.96516
 Alpha virt. eigenvalues --    1.96828   1.97194   1.97658   1.98154   1.99314
 Alpha virt. eigenvalues --    1.99656   2.00084   2.00498   2.00704   2.00986
 Alpha virt. eigenvalues --    2.01324   2.01843   2.02102   2.02176   2.02378
 Alpha virt. eigenvalues --    2.02682   2.02949   2.03321   2.03942   2.04767
 Alpha virt. eigenvalues --    2.05366   2.05619   2.06528   2.06993   2.07110
 Alpha virt. eigenvalues --    2.07206   2.08239   2.08278   2.08539   2.08878
 Alpha virt. eigenvalues --    2.10019   2.10580   2.10875   2.11247   2.11591
 Alpha virt. eigenvalues --    2.12084   2.12363   2.12620   2.13420   2.13879
 Alpha virt. eigenvalues --    2.14393   2.15131   2.15632   2.15739   2.16221
 Alpha virt. eigenvalues --    2.17025   2.17557   2.17855   2.18096   2.18489
 Alpha virt. eigenvalues --    2.19265   2.19895   2.20368   2.20571   2.20950
 Alpha virt. eigenvalues --    2.21095   2.21515   2.22220   2.22540   2.23080
 Alpha virt. eigenvalues --    2.23242   2.23703   2.24237   2.24688   2.25167
 Alpha virt. eigenvalues --    2.25295   2.25763   2.26616   2.27081   2.27650
 Alpha virt. eigenvalues --    2.28336   2.28497   2.28881   2.29029   2.29661
 Alpha virt. eigenvalues --    2.30477   2.30923   2.31240   2.31794   2.31935
 Alpha virt. eigenvalues --    2.32470   2.32852   2.33196   2.33385   2.34055
 Alpha virt. eigenvalues --    2.35018   2.35478   2.36310   2.37187   2.37238
 Alpha virt. eigenvalues --    2.37556   2.37702   2.38674   2.38860   2.39602
 Alpha virt. eigenvalues --    2.40244   2.40474   2.40561   2.41408   2.41538
 Alpha virt. eigenvalues --    2.42042   2.42244   2.42323   2.42907   2.43545
 Alpha virt. eigenvalues --    2.43748   2.44479   2.45229   2.45296   2.45509
 Alpha virt. eigenvalues --    2.45770   2.46343   2.46523   2.47259   2.48230
 Alpha virt. eigenvalues --    2.48584   2.48625   2.49210   2.50029   2.50584
 Alpha virt. eigenvalues --    2.51279   2.51916   2.52244   2.52704   2.53327
 Alpha virt. eigenvalues --    2.53977   2.54407   2.54513   2.54800   2.55345
 Alpha virt. eigenvalues --    2.56037   2.56336   2.56606   2.56979   2.57443
 Alpha virt. eigenvalues --    2.57837   2.58128   2.58887   2.59461   2.60014
 Alpha virt. eigenvalues --    2.61000   2.61564   2.61727   2.62223   2.62745
 Alpha virt. eigenvalues --    2.63043   2.63279   2.63887   2.64534   2.64823
 Alpha virt. eigenvalues --    2.65339   2.65799   2.67713   2.68296   2.68466
 Alpha virt. eigenvalues --    2.69323   2.70276   2.70775   2.71415   2.72930
 Alpha virt. eigenvalues --    2.74103   2.74620   2.75752   2.76093   2.76459
 Alpha virt. eigenvalues --    2.78003   2.78652   2.79378   2.80604   2.81091
 Alpha virt. eigenvalues --    2.81717   2.81936   2.82606   2.82868   2.83909
 Alpha virt. eigenvalues --    2.84242   2.85384   2.86392   2.86637   2.87693
 Alpha virt. eigenvalues --    2.88484   2.88753   2.90308   2.91547   2.92037
 Alpha virt. eigenvalues --    2.92188   2.93136   2.93462   2.93802   2.94728
 Alpha virt. eigenvalues --    2.95384   2.95466   2.96008   2.96383   2.96694
 Alpha virt. eigenvalues --    2.96875   2.97325   2.97588   2.97964   2.98592
 Alpha virt. eigenvalues --    2.98912   2.99084   2.99860   3.00153   3.00407
 Alpha virt. eigenvalues --    3.00526   3.01289   3.01813   3.01932   3.02056
 Alpha virt. eigenvalues --    3.02925   3.03121   3.03447   3.03891   3.04654
 Alpha virt. eigenvalues --    3.04856   3.05402   3.05566   3.05821   3.06139
 Alpha virt. eigenvalues --    3.06656   3.07089   3.07267   3.07712   3.08080
 Alpha virt. eigenvalues --    3.08541   3.08905   3.09336   3.09501   3.09848
 Alpha virt. eigenvalues --    3.10062   3.10628   3.11083   3.11391   3.11719
 Alpha virt. eigenvalues --    3.12129   3.12487   3.12656   3.13136   3.13274
 Alpha virt. eigenvalues --    3.13594   3.14246   3.14440   3.14803   3.15453
 Alpha virt. eigenvalues --    3.15662   3.15760   3.16470   3.16911   3.17309
 Alpha virt. eigenvalues --    3.17704   3.18383   3.18657   3.19127   3.19340
 Alpha virt. eigenvalues --    3.20095   3.21105   3.21555   3.22831   3.23908
 Alpha virt. eigenvalues --    3.24757   3.24808   3.27272   3.29270   3.32086
 Alpha virt. eigenvalues --    3.35241   3.37647   3.39385   3.41545   3.41948
 Alpha virt. eigenvalues --    3.42771   3.43260   3.45421   3.45610   3.47208
 Alpha virt. eigenvalues --    3.47433   3.48059   3.49548   3.51097   3.51830
 Alpha virt. eigenvalues --    3.52165   3.52580   3.53686   3.54149   3.55666
 Alpha virt. eigenvalues --    3.56069   3.57333   3.58028   3.58995   3.60958
 Alpha virt. eigenvalues --    3.61396   3.62529   3.62773   3.63673   3.65249
 Alpha virt. eigenvalues --    3.66096   3.67095   3.68001   3.68498   3.69002
 Alpha virt. eigenvalues --    3.70210   3.70836   3.72308   3.72380   3.73129
 Alpha virt. eigenvalues --    3.75914   3.75931   3.77098   3.79509   3.80133
 Alpha virt. eigenvalues --    3.80832   3.82332   3.83109   3.83831   3.84325
 Alpha virt. eigenvalues --    3.84659   3.86390   3.87258   3.87601   3.87969
 Alpha virt. eigenvalues --    3.88790   3.89288   3.89797   3.90149   3.90522
 Alpha virt. eigenvalues --    3.92466   3.93067   3.96204   4.02208   4.05309
 Alpha virt. eigenvalues --    4.19160   4.21870   4.22478   4.24835   4.26417
 Alpha virt. eigenvalues --    4.27871   4.34550   4.34663   4.35680   4.37277
 Alpha virt. eigenvalues --    4.38112   4.42605   4.45546   4.49431   4.50938
 Alpha virt. eigenvalues --    4.54052   4.55088   4.58790   4.62126   4.64783
 Alpha virt. eigenvalues --    4.65116   4.66424   4.70512   4.75732   4.80678
 Alpha virt. eigenvalues --    4.82567   4.82831   4.87033   4.90928   4.95725
 Alpha virt. eigenvalues --    4.98744   5.00488   5.02393   5.04366   9.51436
 Alpha virt. eigenvalues --    9.56701   9.61122   9.65175   9.67195   9.70084
 Alpha virt. eigenvalues --   22.99577  23.20013  23.21692  23.22949  23.41561
 Alpha virt. eigenvalues --   23.43921  23.45108  23.50877  23.52632  23.60879
 Alpha virt. eigenvalues --   23.64298  23.65737  23.68727  23.69232  23.69724
 Alpha virt. eigenvalues --   23.73415  23.73665  23.75989  23.76447  23.78013
 Alpha virt. eigenvalues --   23.78819  23.80714  23.83369  23.84623  23.85383
 Alpha virt. eigenvalues --   23.86243  23.87192  23.88990  23.89920  23.90737
 Alpha virt. eigenvalues --   23.91930  23.93055  23.94041  23.94684  23.95147
 Alpha virt. eigenvalues --   23.96021  23.96341  23.96450  23.97121  23.97510
 Alpha virt. eigenvalues --   23.98138  23.98565  23.98853  23.99834  24.00934
 Alpha virt. eigenvalues --   24.01680  24.02691  24.03401  24.03839  24.04846
 Alpha virt. eigenvalues --   24.06556  24.06653  24.07103  24.08062  24.08121
 Alpha virt. eigenvalues --   24.08969  24.09531  24.09839  24.10014  24.10522
 Alpha virt. eigenvalues --   24.11388  24.11726  24.13940  24.14584  24.15327
 Alpha virt. eigenvalues --   24.18027  25.53061  25.59312  25.60427  25.67724
 Alpha virt. eigenvalues --   25.70245  25.73366  25.77261  25.83060  25.86332
 Alpha virt. eigenvalues --   25.87811  25.89927  26.04535  26.14619  26.24010
 Alpha virt. eigenvalues --   26.30156  26.39364  26.49325  26.66491 215.46154
 Alpha virt. eigenvalues --  215.52182 215.57159 215.61851 215.64271 215.67328
          Condensed to atoms (all electrons):
 Mulliken charges:
               1
     1  C   -0.425041
     2  C   -0.285468
     3  C   -0.462041
     4  C    0.161464
     5  C    0.215803
     6  C    0.024139
     7  C    0.110340
     8  C    0.023403
     9  C    0.048836
    10  C    0.080500
    11  C    0.066124
    12  C    0.185717
    13  C    0.061833
    14  C    0.228722
    15  C    0.155084
    16  C   -0.667020
    17  C    0.018663
    18  C    0.032944
    19  C    0.018527
    20  C    0.026810
    21  C    0.020648
    22  C   -0.019546
    23  C    0.003767
    24  C    0.005330
    25  C   -0.011960
    26  C    0.001296
    27  C    0.087674
    28  C   -0.003316
    29  C    0.158267
    30  C    0.124254
    31  C   -0.669787
    32  C    0.169431
    33  C    0.019059
    34  C    0.179388
    35  C   -0.001579
    36  C   -0.009633
    37  C   -0.004316
    38  C   -0.005623
    39  C   -0.002523
    40  C   -0.000984
    41  C    0.001925
    42  C   -0.002545
    43  C    0.000608
    44  C   -0.002370
    45  C    0.024323
    46  C    0.008366
    47  C   -0.652778
    48  C    0.139587
    49  C    0.175779
    50  C    0.185799
    51  C    0.040379
    52  C    0.001742
    53  C    0.002325
    54  C    0.029538
    55  C    0.001213
    56  C   -0.000662
    57  C    0.001891
    58  C    0.001518
    59  C    0.003512
    60  C    0.004603
    61  C   -0.003045
    62  C    0.037553
    63  C    0.030668
    64  C    0.000722
    65  C    0.005422
    66  C   -0.001313
    67  Cl   0.047324
    68  Cl   0.070652
    69  Cl   0.066403
    70  Cl   0.051869
    71  Cl   0.043619
    72  Cl   0.026188
 Sum of Mulliken charges =  -0.00000
 Mulliken charges with hydrogens summed into heavy atoms:
               1
     1  C   -0.425041
     2  C   -0.285468
     3  C   -0.462041
     4  C    0.161464
     5  C    0.215803
     6  C    0.024139
     7  C    0.110340
     8  C    0.023403
     9  C    0.048836
    10  C    0.080500
    11  C    0.066124
    12  C    0.185717
    13  C    0.061833
    14  C    0.228722
    15  C    0.155084
    16  C   -0.667020
    17  C    0.018663
    18  C    0.032944
    19  C    0.018527
    20  C    0.026810
    21  C    0.020648
    22  C   -0.019546
    23  C    0.003767
    24  C    0.005330
    25  C   -0.011960
    26  C    0.001296
    27  C    0.087674
    28  C   -0.003316
    29  C    0.158267
    30  C    0.124254
    31  C   -0.669787
    32  C    0.169431
    33  C    0.019059
    34  C    0.179388
    35  C   -0.001579
    36  C   -0.009633
    37  C   -0.004316
    38  C   -0.005623
    39  C   -0.002523
    40  C   -0.000984
    41  C    0.001925
    42  C   -0.002545
    43  C    0.000608
    44  C   -0.002370
    45  C    0.024323
    46  C    0.008366
    47  C   -0.652778
    48  C    0.139587
    49  C    0.175779
    50  C    0.185799
    51  C    0.040379
    52  C    0.001742
    53  C    0.002325
    54  C    0.029538
    55  C    0.001213
    56  C   -0.000662
    57  C    0.001891
    58  C    0.001518
    59  C    0.003512
    60  C    0.004603
    61  C   -0.003045
    62  C    0.037553
    63  C    0.030668
    64  C    0.000722
    65  C    0.005422
    66  C   -0.001313
    67  Cl   0.047324
    68  Cl   0.070652
    69  Cl   0.066403
    70  Cl   0.051869
    71  Cl   0.043619
    72  Cl   0.026188
 Electronic spatial extent (au):  <R**2>=          32458.7442
 Charge=             -0.0000 electrons
 Dipole moment (field-independent basis, Debye):
    X=              3.4638    Y=             -3.2360    Z=             -1.6171  Tot=              5.0084
 Quadrupole moment (field-independent basis, Debye-Ang):
   XX=           -457.8245   YY=           -459.8241   ZZ=           -446.5348
   XY=             -1.0616   XZ=             -1.4657   YZ=             -4.1773
 Traceless Quadrupole moment (field-independent basis, Debye-Ang):
   XX=             -3.0967   YY=             -5.0963   ZZ=              8.1929
   XY=             -1.0616   XZ=             -1.4657   YZ=             -4.1773
 Octapole moment (field-independent basis, Debye-Ang**2):
  XXX=            -42.0934  YYY=             16.6775  ZZZ=             11.5812  XYY=            -28.7910
  XXY=             32.3908  XXZ=              6.7148  XZZ=            -49.1205  YZZ=              6.1423
  YYZ=              2.9049  XYZ=            -14.1216
 Hexadecapole moment (field-independent basis, Debye-Ang**3):
 XXXX=         -21320.5739 YYYY=         -15368.5961 ZZZZ=         -11266.0637 XXXY=             -3.1773
 XXXZ=             -3.5798 YYYX=             -0.4661 YYYZ=             43.9537 ZZZX=            -33.5188
 ZZZY=              7.0318 XXYY=          -6092.7666 XXZZ=          -5391.6143 YYZZ=          -4438.5295
 XXYZ=             16.0645 YYXZ=            -47.3686 ZZXY=              5.5865
 N-N= 1.374609939234D+04 E-N=-3.988229117328D+04  KE= 5.260077366005D+03
 No NMR shielding tensors so no spin-rotation constants.
 Leave Link  601 at Thu Jul 14 23:20:30 2022, MaxMem=  1342177280 cpu:              66.0 elap:               1.6
 (Enter /home/mkliu/g16/l9999.exe)
 1\1\GINC-NODE02\FOpt\RB3LYP\6-311G(d,p)\C66Cl6\MKLIU\14-Jul-2022\0\\#P
  opt b3lyp/6-311G(d, p) empiricaldispersion=GD3\\force\\0,1\C,-1.34072
 09462,1.8636848169,-3.9157104225\C,0.1865109102,2.238328073,-4.0009381
 344\C,0.9570927772,0.8636791921,-4.3287123407\C,-1.345473757,0.3637988
 989,-3.9624417061\C,-0.1070942134,-0.1892914037,-4.2158761902\C,-2.219
 2262555,-0.1670911867,-3.0059278272\C,-2.0012735513,2.1085436663,-2.56
 89003686\C,-2.6906233018,0.942305937,-2.1771510613\C,-1.4841688154,2.9
 762443307,-1.5881622962\C,0.7176404061,2.6154133997,-2.6483817778\C,-0
 .0240057972,3.2411157944,-1.6389878453\C,1.877811917,0.6759617592,-3.1
 279128788\C,1.8444684792,1.8339695241,-2.3115903895\C,2.225248079,-0.5
 377291376,-2.5734705715\C,0.1840634733,-1.4269048166,-3.667318317\C,1.
 591765387,-1.7977166554,-3.1893359796\C,-1.9800326808,-1.4305981413,-2
 .4367194406\C,-0.781529747,-2.0865879102,-2.8855091504\C,-2.5005527871
 ,-1.7273928993,-1.1007821347\C,-3.1093415591,0.7147722207,-0.846601102
 9\C,-3.110621407,-0.6488847256,-0.3104733985\C,-2.0882727547,2.9014017
 631,-0.3152114366\C,-2.956926576,1.8166467494,0.0318245045\C,-1.399571
 6345,3.3034392465,0.9034110332\C,0.6605010249,3.4379069014,-0.40928636
 96\C,-0.0459972816,3.5796129303,0.8597468124\C,2.4050263408,1.83133303
 91,-1.0126268439\C,1.9063445468,2.8192835387,-0.1328994364\C,2.8342353
 001,-0.5655928886,-1.2626063551\C,2.9818161414,0.608100776,-0.51987767
 01\C,3.1335993735,-1.92899322,-0.6204425736\C,1.2919187839,-2.80871544
 92,-2.1078797719\C,-0.1178287983,-3.0415330981,-2.0386507362\C,2.03971
 92455,-2.9273224694,-0.9743760411\C,-1.9525074361,-2.8318321713,-0.415
 4203315\C,-0.7228412291,-3.4679397283,-0.8764045955\C,-1.9463414294,-2
 .9087510375,1.0164266587\C,-3.1625198167,-0.7925491191,1.0945372268\C,
 -2.5560314701,-1.908972416,1.7625937128\C,-2.9013393092,1.6263538071,1
 .461920852\C,-1.940533455,2.5516298401,2.0162716136\C,-3.0316776646,0.
 354801814,1.9830190757\C,-1.1242845606,2.1520939866,3.072599352\C,0.81
 72871161,3.1207523174,1.922344303\C,2.0333681788,2.6494637148,1.306057
 8768\C,0.2934139106,2.4472894846,3.0275515185\C,3.477536759,0.59521773
 34,0.9260155362\C,2.7030802808,1.5675321314,1.8134918262\C,3.018733753
 2,-1.8765399721,0.8957773368\C,3.2000457027,-0.7285023351,1.607170332\
 C,1.449720683,-3.4576935094,0.2162797694\C,0.0855736874,-3.7743664361,
 0.2648840047\C,-0.6815588416,-3.4703082238,1.4517440935\C,2.0832380185
 ,-2.8581293021,1.3632251231\C,-0.0556546303,-2.9658089997,2.5858099297
 \C,1.364054155,-2.6607578997,2.5454774662\C,-1.9515893558,-1.449344398
 1,2.9970902491\C,-2.2465170135,-0.0410722894,3.1334360247\C,-1.2880839
 548,0.8323027945,3.6522198252\C,-0.7073967326,-1.9474242585,3.38427234
 81\C,1.002513918,1.3169267446,3.570415152\C,2.1919001974,0.8933373882,
 2.9643900136\C,2.4877109835,-0.5158431703,2.8335198219\C,1.5828143302,
 -1.4660043135,3.3106621412\C,0.0270970567,0.3250409925,3.9917387674\C,
 0.3106102476,-1.0307933842,3.8626256636\Cl,-2.3885252083,2.5729941926,
 -5.232431666\Cl,0.5705386732,3.6068201785,-5.1124321202\Cl,1.871057317
 5,0.8048031224,-5.8860679591\Cl,2.6493438701,-2.51986514,-4.5055460311
 \Cl,4.8072514745,-2.4916983927,-1.1576385286\Cl,5.2894865777,1.0065841
 44,0.9321419586\\Version=ES64L-G16RevA.03\State=1-A\HF=-5276.7839364\R
 MSD=3.154e-09\RMSF=2.229e-05\Dipole=-1.3638611,-0.1757796,1.4112697\Qu
 adrupole=-3.5946617,5.5537191,-1.9590573,3.6890764,-0.2738775,1.532992
 \PG=C01 [X(C66Cl6)]\\@


 ... THE UNIVERSE IS NOT ONLY QUEERER THAN WE SUPPOSE,
 BUT QUEERER THAN WE CAN SUPPOSE ... 

                                   -- J. B. S. HALDANE
 Job cpu time:       2 days 13 hours  9 minutes 17.5 seconds.
 Elapsed time:       0 days  1 hours 16 minutes 37.7 seconds.
 File lengths (MBytes):  RWF=   1106 Int=      0 D2E=      0 Chk=    136 Scr=      1
 Normal termination of Gaussian 16 at Thu Jul 14 23:20:32 2022.
