 Entering Gaussian System, Link 0=g16
 Input=dn2vozydakdmo_addon_6.gjf
 Output=dn2vozydakdmo_addon_6.log
 Initial command:
 /home/mkliu/g16/l1.exe "/data/scratch/Gau-70185.inp" -scrdir="/data/scratch/"
 Entering Link 1 = /home/mkliu/g16/l1.exe PID=     70186.
  
 Copyright (c) 1988,1990,1992,1993,1995,1998,2003,2009,2016,
            Gaussian, Inc.  All Rights Reserved.
  
 This is part of the Gaussian(R) 16 program.  It is based on
 the Gaussian(R) 09 system (copyright 2009, Gaussian, Inc.),
 the Gaussian(R) 03 system (copyright 2003, Gaussian, Inc.),
 the Gaussian(R) 98 system (copyright 1998, Gaussian, Inc.),
 the Gaussian(R) 94 system (copyright 1995, Gaussian, Inc.),
 the Gaussian 92(TM) system (copyright 1992, Gaussian, Inc.),
 the Gaussian 90(TM) system (copyright 1990, Gaussian, Inc.),
 the Gaussian 88(TM) system (copyright 1988, Gaussian, Inc.),
 the Gaussian 86(TM) system (copyright 1986, Carnegie Mellon
 University), and the Gaussian 82(TM) system (copyright 1983,
 Carnegie Mellon University). Gaussian is a federally registered
 trademark of Gaussian, Inc.
  
 This software contains proprietary and confidential information,
 including trade secrets, belonging to Gaussian, Inc.
  
 This software is provided under written license and may be
 used, copied, transmitted, or stored only in accord with that
 written license.
  
 The following legend is applicable only to US Government
 contracts under FAR:
  
                    RESTRICTED RIGHTS LEGEND
  
 Use, reproduction and disclosure by the US Government is
 subject to restrictions as set forth in subparagraphs (a)
 and (c) of the Commercial Computer Software - Restricted
 Rights clause in FAR 52.227-19.
  
 Gaussian, Inc.
 340 Quinnipiac St., Bldg. 40, Wallingford CT 06492
  
  
 ---------------------------------------------------------------
 Warning -- This program may not be used in any manner that
 competes with the business of Gaussian, Inc. or will provide
 assistance to any competitor of Gaussian, Inc.  The licensee
 of this program is prohibited from giving any competitor of
 Gaussian, Inc. access to this program.  By using this program,
 the user acknowledges that Gaussian, Inc. is engaged in the
 business of creating and licensing software in the field of
 computational chemistry and represents and warrants to the
 licensee that it is not a competitor of Gaussian, Inc. and that
 it will not use this program in any manner prohibited above.
 ---------------------------------------------------------------
  

 Cite this work as:
 Gaussian 16, Revision A.03,
 M. J. Frisch, G. W. Trucks, H. B. Schlegel, G. E. Scuseria, 
 M. A. Robb, J. R. Cheeseman, G. Scalmani, V. Barone, 
 G. A. Petersson, H. Nakatsuji, X. Li, M. Caricato, A. V. Marenich, 
 J. Bloino, B. G. Janesko, R. Gomperts, B. Mennucci, H. P. Hratchian, 
 J. V. Ortiz, A. F. Izmaylov, J. L. Sonnenberg, D. Williams-Young, 
 F. Ding, F. Lipparini, F. Egidi, J. Goings, B. Peng, A. Petrone, 
 T. Henderson, D. Ranasinghe, V. G. Zakrzewski, J. Gao, N. Rega, 
 G. Zheng, W. Liang, M. Hada, M. Ehara, K. Toyota, R. Fukuda, 
 J. Hasegawa, M. Ishida, T. Nakajima, Y. Honda, O. Kitao, H. Nakai, 
 T. Vreven, K. Throssell, J. A. Montgomery, Jr., J. E. Peralta, 
 F. Ogliaro, M. J. Bearpark, J. J. Heyd, E. N. Brothers, K. N. Kudin, 
 V. N. Staroverov, T. A. Keith, R. Kobayashi, J. Normand, 
 K. Raghavachari, A. P. Rendell, J. C. Burant, S. S. Iyengar, 
 J. Tomasi, M. Cossi, J. M. Millam, M. Klene, C. Adamo, R. Cammi, 
 J. W. Ochterski, R. L. Martin, K. Morokuma, O. Farkas, 
 J. B. Foresman, and D. J. Fox, Gaussian, Inc., Wallingford CT, 2016.
 
 ******************************************
 Gaussian 16:  ES64L-G16RevA.03 25-Dec-2016
                16-Jul-2022 
 ******************************************
 %mem=10GB
 %chk=dn2vozydakdmo_addon_6.chk
 %nprocshared=48
 Will use up to   48 processors via shared memory.
 -------------------------------------------------
 #P opt b3lyp/6-311G(d, p) empiricaldispersion=GD3
 -------------------------------------------------
 1/18=20,19=15,26=3,38=1/1,3;
 2/9=110,12=2,17=6,18=5,40=1/2;
 3/5=4,6=6,7=101,11=2,25=1,30=1,71=1,74=-5,124=31/1,2,3;
 4//1;
 5/5=2,38=5/2;
 6/7=2,8=2,9=2,10=2,28=1/1;
 7//1,2,3,16;
 1/18=20,19=15,26=3/3(2);
 2/9=110/2;
 99//99;
 2/9=110/2;
 3/5=4,6=6,7=101,11=2,25=1,30=1,71=1,74=-5,124=31/1,2,3;
 4/5=5,16=3,69=1/1;
 5/5=2,38=5/2;
 7//1,2,3,16;
 1/18=20,19=15,26=3/3(-5);
 2/9=110/2;
 6/7=2,8=2,9=2,10=2,19=2,28=1/1;
 99/9=1/99;
 Leave Link    1 at Sat Jul 16 21:32:27 2022, MaxMem=  1342177280 cpu:               2.8 elap:               0.1
 (Enter /home/mkliu/g16/l101.exe)
 -----
 force
 -----
 Symbolic Z-matrix:
 Charge =  0 Multiplicity = 1
 C                    -1.30004   1.8765   -3.87329 
 C                     0.20751   2.27719  -4.06627 
 C                     0.95448   0.90547  -4.28266 
 C                    -1.29516   0.37922  -3.89131 
 C                    -0.06654  -0.16477  -4.1459 
 C                    -2.15331  -0.15288  -2.93706 
 C                    -1.95806   2.09447  -2.54783 
 C                    -2.62242   0.93753  -2.1257 
 C                    -1.42601   2.93548  -1.56118 
 C                     0.85901   2.89949  -2.7833 
 C                    -0.03607   3.25051  -1.62676 
 C                     1.78365   0.69589  -3.05272 
 C                     1.79224   1.82269  -2.29029 
 C                     2.17156  -0.56058  -2.52134 
 C                     0.21582  -1.40092  -3.59751 
 C                     1.60549  -1.81376  -3.16535 
 C                    -1.93161  -1.41901  -2.37419 
 C                    -0.75048  -2.06302  -2.82084 
 C                    -2.48186  -1.72396  -1.06939 
 C                    -3.08108   0.69633  -0.80954 
 C                    -3.09116  -0.65725  -0.2909 
 C                    -2.05585   2.85677  -0.30122 
 C                    -2.92546   1.7907    0.0492 
 C                    -1.41294   3.27982   0.89898 
 C                     0.6125    3.43808  -0.41964 
 C                    -0.06941   3.56103   0.84124 
 C                     2.34746   1.79661  -1.00644 
 C                     1.88712   2.79792  -0.1264 
 C                     2.80729  -0.5971   -1.29434 
 C                     2.93674   0.60356  -0.51482 
 C                     3.12017  -1.93808  -0.63411 
 C                     1.29709  -2.82278  -2.09946 
 C                    -0.11046  -3.03883  -2.00983 
 C                     2.03834  -2.93325  -0.97081 
 C                    -1.93964  -2.82349  -0.39197 
 C                    -0.72315  -3.44579  -0.85088 
 C                    -1.94341  -2.90571   1.0388 
 C                    -3.14552  -0.79896   1.10536 
 C                    -2.54891  -1.91451   1.77647 
 C                    -2.8945    1.60746   1.46766 
 C                    -1.94577   2.5373    2.01064 
 C                    -3.02095   0.33699   1.98594 
 C                    -1.1113    2.12973   3.03411 
 C                     0.80545   3.10897   1.89054 
 C                     2.01233   2.63809   1.26347 
 C                     0.29883   2.42418   2.97396 
 C                     3.20471   0.54111   0.87951 
 C                     2.69155   1.52137   1.75836 
 C                     3.00956  -1.89895   0.86141 
 C                     3.16424  -0.74001   1.56494 
 C                     1.44377  -3.46499   0.21489 
 C                     0.09105  -3.75757   0.27663 
 C                    -0.67838  -3.45805   1.44822 
 C                     2.08209  -2.87079   1.34716 
 C                    -0.04653  -2.9476    2.56778 
 C                     1.35669  -2.65178   2.51534 
 C                    -1.94041  -1.4504    2.99559 
 C                    -2.22892  -0.04881   3.11866 
 C                    -1.26489   0.82222   3.60712 
 C                    -0.70078  -1.93747   3.36335 
 C                     1.01528   1.29115   3.51827 
 C                     2.20285   0.86977   2.94895 
 C                     2.48797  -0.53415   2.81899 
 C                     1.57383  -1.46121   3.27765 
 C                     0.03947   0.32046   3.94563 
 C                     0.31312  -1.03299   3.82721 
 Cl                   -2.37102   2.60853  -5.11407 
 Cl                    0.4204    3.32286  -5.48554 
 Cl                    1.94063   0.76933  -5.7518 
 Cl                    2.69489  -2.43736  -4.44416 
 Cl                    4.76069  -2.43797  -1.22983 
 Cl                    1.82663   4.38825  -3.16608 
 
 ITRead=  0  0  0  0  0  0  0  0  0  0  0  0  0  0  0  0  0  0  0  0
 ITRead=  0  0  0  0  0  0  0  0  0  0  0  0  0  0  0  0  0  0  0  0
 ITRead=  0  0  0  0  0  0  0  0  0  0  0  0  0  0  0  0  0  0  0  0
 ITRead=  0  0  0  0  0  0  0  0  0  0  0  0
 MicOpt= -1 -1 -1 -1 -1 -1 -1 -1 -1 -1 -1 -1 -1 -1 -1 -1 -1 -1 -1 -1
 MicOpt= -1 -1 -1 -1 -1 -1 -1 -1 -1 -1 -1 -1 -1 -1 -1 -1 -1 -1 -1 -1
 MicOpt= -1 -1 -1 -1 -1 -1 -1 -1 -1 -1 -1 -1 -1 -1 -1 -1 -1 -1 -1 -1
 MicOpt= -1 -1 -1 -1 -1 -1 -1 -1 -1 -1 -1 -1
 NAtoms=     72 NQM=       72 NQMF=       0 NMMI=      0 NMMIF=      0
                NMic=       0 NMicF=      0.
                    Isotopes and Nuclear Properties:
 (Nuclear quadrupole moments (NQMom) in fm**2, nuclear magnetic moments (NMagM)
  in nuclear magnetons)

  Atom         1           2           3           4           5           6           7           8           9          10
 IAtWgt=          12          12          12          12          12          12          12          12          12          12
 AtmWgt=  12.0000000  12.0000000  12.0000000  12.0000000  12.0000000  12.0000000  12.0000000  12.0000000  12.0000000  12.0000000
 NucSpn=           0           0           0           0           0           0           0           0           0           0
 AtZEff=  -0.0000000  -0.0000000  -0.0000000  -0.0000000  -0.0000000  -0.0000000  -0.0000000  -0.0000000  -0.0000000  -0.0000000
 NQMom=    0.0000000   0.0000000   0.0000000   0.0000000   0.0000000   0.0000000   0.0000000   0.0000000   0.0000000   0.0000000
 NMagM=    0.0000000   0.0000000   0.0000000   0.0000000   0.0000000   0.0000000   0.0000000   0.0000000   0.0000000   0.0000000
 AtZNuc=   6.0000000   6.0000000   6.0000000   6.0000000   6.0000000   6.0000000   6.0000000   6.0000000   6.0000000   6.0000000

  Atom        11          12          13          14          15          16          17          18          19          20
 IAtWgt=          12          12          12          12          12          12          12          12          12          12
 AtmWgt=  12.0000000  12.0000000  12.0000000  12.0000000  12.0000000  12.0000000  12.0000000  12.0000000  12.0000000  12.0000000
 NucSpn=           0           0           0           0           0           0           0           0           0           0
 AtZEff=  -0.0000000  -0.0000000  -0.0000000  -0.0000000  -0.0000000  -0.0000000  -0.0000000  -0.0000000  -0.0000000  -0.0000000
 NQMom=    0.0000000   0.0000000   0.0000000   0.0000000   0.0000000   0.0000000   0.0000000   0.0000000   0.0000000   0.0000000
 NMagM=    0.0000000   0.0000000   0.0000000   0.0000000   0.0000000   0.0000000   0.0000000   0.0000000   0.0000000   0.0000000
 AtZNuc=   6.0000000   6.0000000   6.0000000   6.0000000   6.0000000   6.0000000   6.0000000   6.0000000   6.0000000   6.0000000

  Atom        21          22          23          24          25          26          27          28          29          30
 IAtWgt=          12          12          12          12          12          12          12          12          12          12
 AtmWgt=  12.0000000  12.0000000  12.0000000  12.0000000  12.0000000  12.0000000  12.0000000  12.0000000  12.0000000  12.0000000
 NucSpn=           0           0           0           0           0           0           0           0           0           0
 AtZEff=  -0.0000000  -0.0000000  -0.0000000  -0.0000000  -0.0000000  -0.0000000  -0.0000000  -0.0000000  -0.0000000  -0.0000000
 NQMom=    0.0000000   0.0000000   0.0000000   0.0000000   0.0000000   0.0000000   0.0000000   0.0000000   0.0000000   0.0000000
 NMagM=    0.0000000   0.0000000   0.0000000   0.0000000   0.0000000   0.0000000   0.0000000   0.0000000   0.0000000   0.0000000
 AtZNuc=   6.0000000   6.0000000   6.0000000   6.0000000   6.0000000   6.0000000   6.0000000   6.0000000   6.0000000   6.0000000

  Atom        31          32          33          34          35          36          37          38          39          40
 IAtWgt=          12          12          12          12          12          12          12          12          12          12
 AtmWgt=  12.0000000  12.0000000  12.0000000  12.0000000  12.0000000  12.0000000  12.0000000  12.0000000  12.0000000  12.0000000
 NucSpn=           0           0           0           0           0           0           0           0           0           0
 AtZEff=  -0.0000000  -0.0000000  -0.0000000  -0.0000000  -0.0000000  -0.0000000  -0.0000000  -0.0000000  -0.0000000  -0.0000000
 NQMom=    0.0000000   0.0000000   0.0000000   0.0000000   0.0000000   0.0000000   0.0000000   0.0000000   0.0000000   0.0000000
 NMagM=    0.0000000   0.0000000   0.0000000   0.0000000   0.0000000   0.0000000   0.0000000   0.0000000   0.0000000   0.0000000
 AtZNuc=   6.0000000   6.0000000   6.0000000   6.0000000   6.0000000   6.0000000   6.0000000   6.0000000   6.0000000   6.0000000

  Atom        41          42          43          44          45          46          47          48          49          50
 IAtWgt=          12          12          12          12          12          12          12          12          12          12
 AtmWgt=  12.0000000  12.0000000  12.0000000  12.0000000  12.0000000  12.0000000  12.0000000  12.0000000  12.0000000  12.0000000
 NucSpn=           0           0           0           0           0           0           0           0           0           0
 AtZEff=  -0.0000000  -0.0000000  -0.0000000  -0.0000000  -0.0000000  -0.0000000  -0.0000000  -0.0000000  -0.0000000  -0.0000000
 NQMom=    0.0000000   0.0000000   0.0000000   0.0000000   0.0000000   0.0000000   0.0000000   0.0000000   0.0000000   0.0000000
 NMagM=    0.0000000   0.0000000   0.0000000   0.0000000   0.0000000   0.0000000   0.0000000   0.0000000   0.0000000   0.0000000
 AtZNuc=   6.0000000   6.0000000   6.0000000   6.0000000   6.0000000   6.0000000   6.0000000   6.0000000   6.0000000   6.0000000

  Atom        51          52          53          54          55          56          57          58          59          60
 IAtWgt=          12          12          12          12          12          12          12          12          12          12
 AtmWgt=  12.0000000  12.0000000  12.0000000  12.0000000  12.0000000  12.0000000  12.0000000  12.0000000  12.0000000  12.0000000
 NucSpn=           0           0           0           0           0           0           0           0           0           0
 AtZEff=  -0.0000000  -0.0000000  -0.0000000  -0.0000000  -0.0000000  -0.0000000  -0.0000000  -0.0000000  -0.0000000  -0.0000000
 NQMom=    0.0000000   0.0000000   0.0000000   0.0000000   0.0000000   0.0000000   0.0000000   0.0000000   0.0000000   0.0000000
 NMagM=    0.0000000   0.0000000   0.0000000   0.0000000   0.0000000   0.0000000   0.0000000   0.0000000   0.0000000   0.0000000
 AtZNuc=   6.0000000   6.0000000   6.0000000   6.0000000   6.0000000   6.0000000   6.0000000   6.0000000   6.0000000   6.0000000

  Atom        61          62          63          64          65          66          67          68          69          70
 IAtWgt=          12          12          12          12          12          12          35          35          35          35
 AtmWgt=  12.0000000  12.0000000  12.0000000  12.0000000  12.0000000  12.0000000  34.9688527  34.9688527  34.9688527  34.9688527
 NucSpn=           0           0           0           0           0           0           3           3           3           3
 AtZEff=  -0.0000000  -0.0000000  -0.0000000  -0.0000000  -0.0000000  -0.0000000  -0.0000000  -0.0000000  -0.0000000  -0.0000000
 NQMom=    0.0000000   0.0000000   0.0000000   0.0000000   0.0000000   0.0000000  -8.1650000  -8.1650000  -8.1650000  -8.1650000
 NMagM=    0.0000000   0.0000000   0.0000000   0.0000000   0.0000000   0.0000000   0.8218740   0.8218740   0.8218740   0.8218740
 AtZNuc=   6.0000000   6.0000000   6.0000000   6.0000000   6.0000000   6.0000000  17.0000000  17.0000000  17.0000000  17.0000000

  Atom        71          72
 IAtWgt=          35          35
 AtmWgt=  34.9688527  34.9688527
 NucSpn=           3           3
 AtZEff=  -0.0000000  -0.0000000
 NQMom=   -8.1650000  -8.1650000
 NMagM=    0.8218740   0.8218740
 AtZNuc=  17.0000000  17.0000000
 Leave Link  101 at Sat Jul 16 21:32:28 2022, MaxMem=  1342177280 cpu:              29.5 elap:               0.6
 (Enter /home/mkliu/g16/l103.exe)

 GradGradGradGradGradGradGradGradGradGradGradGradGradGradGradGradGradGrad
 Berny optimization.
 Initialization pass.
                           ----------------------------
                           !    Initial Parameters    !
                           ! (Angstroms and Degrees)  !
 --------------------------                            --------------------------
 ! Name  Definition              Value          Derivative Info.                !
 --------------------------------------------------------------------------------
 ! R1    R(1,2)                  1.5718         estimate D2E/DX2                !
 ! R2    R(1,4)                  1.4974         estimate D2E/DX2                !
 ! R3    R(1,7)                  1.4958         estimate D2E/DX2                !
 ! R4    R(1,67)                 1.7951         estimate D2E/DX2                !
 ! R5    R(2,3)                  1.5768         estimate D2E/DX2                !
 ! R6    R(2,10)                 1.5677         estimate D2E/DX2                !
 ! R7    R(2,68)                 1.7757         estimate D2E/DX2                !
 ! R8    R(3,5)                  1.4855         estimate D2E/DX2                !
 ! R9    R(3,12)                 1.4981         estimate D2E/DX2                !
 ! R10   R(3,69)                 1.7747         estimate D2E/DX2                !
 ! R11   R(4,5)                  1.3676         estimate D2E/DX2                !
 ! R12   R(4,6)                  1.3893         estimate D2E/DX2                !
 ! R13   R(5,15)                 1.3815         estimate D2E/DX2                !
 ! R14   R(6,8)                  1.4378         estimate D2E/DX2                !
 ! R15   R(6,17)                 1.4032         estimate D2E/DX2                !
 ! R16   R(7,8)                  1.3993         estimate D2E/DX2                !
 ! R17   R(7,9)                  1.4014         estimate D2E/DX2                !
 ! R18   R(8,20)                 1.4145         estimate D2E/DX2                !
 ! R19   R(9,11)                 1.4267         estimate D2E/DX2                !
 ! R20   R(9,22)                 1.4108         estimate D2E/DX2                !
 ! R21   R(10,11)                1.504          estimate D2E/DX2                !
 ! R22   R(10,13)                1.5078         estimate D2E/DX2                !
 ! R23   R(10,72)                1.8164         estimate D2E/DX2                !
 ! R24   R(11,25)                1.3831         estimate D2E/DX2                !
 ! R25   R(12,13)                1.3605         estimate D2E/DX2                !
 ! R26   R(12,14)                1.4183         estimate D2E/DX2                !
 ! R27   R(13,27)                1.399          estimate D2E/DX2                !
 ! R28   R(14,16)                1.5184         estimate D2E/DX2                !
 ! R29   R(14,29)                1.3824         estimate D2E/DX2                !
 ! R30   R(15,16)                1.5127         estimate D2E/DX2                !
 ! R31   R(15,18)                1.4055         estimate D2E/DX2                !
 ! R32   R(16,32)                1.4998         estimate D2E/DX2                !
 ! R33   R(16,70)                1.7919         estimate D2E/DX2                !
 ! R34   R(17,18)                1.4175         estimate D2E/DX2                !
 ! R35   R(17,19)                1.4485         estimate D2E/DX2                !
 ! R36   R(18,33)                1.4211         estimate D2E/DX2                !
 ! R37   R(19,21)                1.4544         estimate D2E/DX2                !
 ! R38   R(19,35)                1.4007         estimate D2E/DX2                !
 ! R39   R(20,21)                1.4496         estimate D2E/DX2                !
 ! R40   R(20,23)                1.3997         estimate D2E/DX2                !
 ! R41   R(21,38)                1.4045         estimate D2E/DX2                !
 ! R42   R(22,23)                1.4197         estimate D2E/DX2                !
 ! R43   R(22,24)                1.4258         estimate D2E/DX2                !
 ! R44   R(23,40)                1.4306         estimate D2E/DX2                !
 ! R45   R(24,26)                1.3739         estimate D2E/DX2                !
 ! R46   R(24,41)                1.4391         estimate D2E/DX2                !
 ! R47   R(25,26)                1.4387         estimate D2E/DX2                !
 ! R48   R(25,28)                1.4562         estimate D2E/DX2                !
 ! R49   R(26,44)                1.439          estimate D2E/DX2                !
 ! R50   R(27,28)                1.4103         estimate D2E/DX2                !
 ! R51   R(27,30)                1.4186         estimate D2E/DX2                !
 ! R52   R(28,45)                1.4046         estimate D2E/DX2                !
 ! R53   R(29,30)                1.4374         estimate D2E/DX2                !
 ! R54   R(29,31)                1.5271         estimate D2E/DX2                !
 ! R55   R(30,47)                1.4212         estimate D2E/DX2                !
 ! R56   R(31,34)                1.508          estimate D2E/DX2                !
 ! R57   R(31,49)                1.5001         estimate D2E/DX2                !
 ! R58   R(31,71)                1.8155         estimate D2E/DX2                !
 ! R59   R(32,33)                1.4268         estimate D2E/DX2                !
 ! R60   R(32,34)                1.3548         estimate D2E/DX2                !
 ! R61   R(33,36)                1.3727         estimate D2E/DX2                !
 ! R62   R(34,51)                1.429          estimate D2E/DX2                !
 ! R63   R(35,36)                1.4414         estimate D2E/DX2                !
 ! R64   R(35,37)                1.4331         estimate D2E/DX2                !
 ! R65   R(36,52)                1.4253         estimate D2E/DX2                !
 ! R66   R(37,39)                1.376          estimate D2E/DX2                !
 ! R67   R(37,53)                1.4398         estimate D2E/DX2                !
 ! R68   R(38,39)                1.432          estimate D2E/DX2                !
 ! R69   R(38,42)                1.4427         estimate D2E/DX2                !
 ! R70   R(39,57)                1.4394         estimate D2E/DX2                !
 ! R71   R(40,41)                1.4351         estimate D2E/DX2                !
 ! R72   R(40,42)                1.3779         estimate D2E/DX2                !
 ! R73   R(41,43)                1.382          estimate D2E/DX2                !
 ! R74   R(42,58)                1.435          estimate D2E/DX2                !
 ! R75   R(43,46)                1.4418         estimate D2E/DX2                !
 ! R76   R(43,59)                1.4358         estimate D2E/DX2                !
 ! R77   R(44,45)                1.4393         estimate D2E/DX2                !
 ! R78   R(44,46)                1.3782         estimate D2E/DX2                !
 ! R79   R(45,48)                1.3976         estimate D2E/DX2                !
 ! R80   R(46,61)                1.4468         estimate D2E/DX2                !
 ! R81   R(47,48)                1.413          estimate D2E/DX2                !
 ! R82   R(47,50)                1.4535         estimate D2E/DX2                !
 ! R83   R(48,62)                1.4425         estimate D2E/DX2                !
 ! R84   R(49,50)                1.3646         estimate D2E/DX2                !
 ! R85   R(49,54)                1.4285         estimate D2E/DX2                !
 ! R86   R(50,63)                1.4396         estimate D2E/DX2                !
 ! R87   R(51,52)                1.3854         estimate D2E/DX2                !
 ! R88   R(51,54)                1.4292         estimate D2E/DX2                !
 ! R89   R(52,53)                1.4333         estimate D2E/DX2                !
 ! R90   R(53,55)                1.3832         estimate D2E/DX2                !
 ! R91   R(54,56)                1.3924         estimate D2E/DX2                !
 ! R92   R(55,56)                1.435          estimate D2E/DX2                !
 ! R93   R(55,60)                1.4427         estimate D2E/DX2                !
 ! R94   R(56,64)                1.4303         estimate D2E/DX2                !
 ! R95   R(57,58)                1.4363         estimate D2E/DX2                !
 ! R96   R(57,60)                1.3817         estimate D2E/DX2                !
 ! R97   R(58,59)                1.388          estimate D2E/DX2                !
 ! R98   R(59,65)                1.4379         estimate D2E/DX2                !
 ! R99   R(60,66)                1.4357         estimate D2E/DX2                !
 ! R100  R(61,62)                1.3828         estimate D2E/DX2                !
 ! R101  R(61,65)                1.4412         estimate D2E/DX2                !
 ! R102  R(62,63)                1.4385         estimate D2E/DX2                !
 ! R103  R(63,64)                1.3804         estimate D2E/DX2                !
 ! R104  R(64,66)                1.4404         estimate D2E/DX2                !
 ! R105  R(65,66)                1.3859         estimate D2E/DX2                !
 ! A1    A(2,1,4)              104.4958         estimate D2E/DX2                !
 ! A2    A(2,1,7)              119.577          estimate D2E/DX2                !
 ! A3    A(2,1,67)             112.5448         estimate D2E/DX2                !
 ! A4    A(4,1,7)               99.0795         estimate D2E/DX2                !
 ! A5    A(4,1,67)             113.6648         estimate D2E/DX2                !
 ! A6    A(7,1,67)             106.8947         estimate D2E/DX2                !
 ! A7    A(1,2,3)              104.4442         estimate D2E/DX2                !
 ! A8    A(1,2,10)             113.5346         estimate D2E/DX2                !
 ! A9    A(1,2,68)             111.3            estimate D2E/DX2                !
 ! A10   A(3,2,10)             105.1151         estimate D2E/DX2                !
 ! A11   A(3,2,68)             110.2308         estimate D2E/DX2                !
 ! A12   A(10,2,68)            111.7479         estimate D2E/DX2                !
 ! A13   A(2,3,5)              106.7695         estimate D2E/DX2                !
 ! A14   A(2,3,12)             105.7373         estimate D2E/DX2                !
 ! A15   A(2,3,69)             116.3323         estimate D2E/DX2                !
 ! A16   A(5,3,12)             101.7742         estimate D2E/DX2                !
 ! A17   A(5,3,69)             113.7594         estimate D2E/DX2                !
 ! A18   A(12,3,69)            111.1846         estimate D2E/DX2                !
 ! A19   A(1,4,5)              113.7601         estimate D2E/DX2                !
 ! A20   A(1,4,6)              111.8818         estimate D2E/DX2                !
 ! A21   A(5,4,6)              122.0357         estimate D2E/DX2                !
 ! A22   A(3,5,4)              110.3684         estimate D2E/DX2                !
 ! A23   A(3,5,15)             122.7343         estimate D2E/DX2                !
 ! A24   A(4,5,15)             117.7522         estimate D2E/DX2                !
 ! A25   A(4,6,8)              107.3774         estimate D2E/DX2                !
 ! A26   A(4,6,17)             121.5675         estimate D2E/DX2                !
 ! A27   A(8,6,17)             120.6285         estimate D2E/DX2                !
 ! A28   A(1,7,8)              110.8365         estimate D2E/DX2                !
 ! A29   A(1,7,9)              122.9781         estimate D2E/DX2                !
 ! A30   A(8,7,9)              117.649          estimate D2E/DX2                !
 ! A31   A(6,8,7)              107.5705         estimate D2E/DX2                !
 ! A32   A(6,8,20)             120.1015         estimate D2E/DX2                !
 ! A33   A(7,8,20)             125.1437         estimate D2E/DX2                !
 ! A34   A(7,9,11)             118.0367         estimate D2E/DX2                !
 ! A35   A(7,9,22)             115.2007         estimate D2E/DX2                !
 ! A36   A(11,9,22)            119.2291         estimate D2E/DX2                !
 ! A37   A(2,10,11)            118.3361         estimate D2E/DX2                !
 ! A38   A(2,10,13)            103.9642         estimate D2E/DX2                !
 ! A39   A(2,10,72)            111.9797         estimate D2E/DX2                !
 ! A40   A(11,10,13)           106.4745         estimate D2E/DX2                !
 ! A41   A(11,10,72)           106.726          estimate D2E/DX2                !
 ! A42   A(13,10,72)           108.9368         estimate D2E/DX2                !
 ! A43   A(9,11,10)            124.3056         estimate D2E/DX2                !
 ! A44   A(9,11,25)            116.5308         estimate D2E/DX2                !
 ! A45   A(10,11,25)           115.0698         estimate D2E/DX2                !
 ! A46   A(3,12,13)            110.3482         estimate D2E/DX2                !
 ! A47   A(3,12,14)            125.6566         estimate D2E/DX2                !
 ! A48   A(13,12,14)           121.4679         estimate D2E/DX2                !
 ! A49   A(10,13,12)           113.8486         estimate D2E/DX2                !
 ! A50   A(10,13,27)           123.9872         estimate D2E/DX2                !
 ! A51   A(12,13,27)           120.0879         estimate D2E/DX2                !
 ! A52   A(12,14,16)           118.0518         estimate D2E/DX2                !
 ! A53   A(12,14,29)           118.7986         estimate D2E/DX2                !
 ! A54   A(16,14,29)           121.7418         estimate D2E/DX2                !
 ! A55   A(5,15,16)            123.0489         estimate D2E/DX2                !
 ! A56   A(5,15,18)            120.0244         estimate D2E/DX2                !
 ! A57   A(16,15,18)           110.1917         estimate D2E/DX2                !
 ! A58   A(14,16,15)           103.7924         estimate D2E/DX2                !
 ! A59   A(14,16,32)           109.2981         estimate D2E/DX2                !
 ! A60   A(14,16,70)           111.2997         estimate D2E/DX2                !
 ! A61   A(15,16,32)           101.4045         estimate D2E/DX2                !
 ! A62   A(15,16,70)           116.7172         estimate D2E/DX2                !
 ! A63   A(32,16,70)           113.4573         estimate D2E/DX2                !
 ! A64   A(6,17,18)            114.5312         estimate D2E/DX2                !
 ! A65   A(6,17,19)            119.4231         estimate D2E/DX2                !
 ! A66   A(18,17,19)           120.312          estimate D2E/DX2                !
 ! A67   A(15,18,17)           122.2071         estimate D2E/DX2                !
 ! A68   A(15,18,33)           109.2204         estimate D2E/DX2                !
 ! A69   A(17,18,33)           120.4913         estimate D2E/DX2                !
 ! A70   A(17,19,21)           119.1372         estimate D2E/DX2                !
 ! A71   A(17,19,35)           116.9912         estimate D2E/DX2                !
 ! A72   A(21,19,35)           118.6242         estimate D2E/DX2                !
 ! A73   A(8,20,21)            119.6301         estimate D2E/DX2                !
 ! A74   A(8,20,23)            113.6701         estimate D2E/DX2                !
 ! A75   A(21,20,23)           120.7524         estimate D2E/DX2                !
 ! A76   A(19,21,20)           119.3703         estimate D2E/DX2                !
 ! A77   A(19,21,38)           118.3174         estimate D2E/DX2                !
 ! A78   A(20,21,38)           116.7552         estimate D2E/DX2                !
 ! A79   A(9,22,23)            122.3974         estimate D2E/DX2                !
 ! A80   A(9,22,24)            122.2706         estimate D2E/DX2                !
 ! A81   A(23,22,24)           106.9322         estimate D2E/DX2                !
 ! A82   A(20,23,22)           120.2496         estimate D2E/DX2                !
 ! A83   A(20,23,40)           120.7013         estimate D2E/DX2                !
 ! A84   A(22,23,40)           109.1268         estimate D2E/DX2                !
 ! A85   A(22,24,26)           117.796          estimate D2E/DX2                !
 ! A86   A(22,24,41)           109.2812         estimate D2E/DX2                !
 ! A87   A(26,24,41)           120.0102         estimate D2E/DX2                !
 ! A88   A(11,25,26)           123.6562         estimate D2E/DX2                !
 ! A89   A(11,25,28)           121.7757         estimate D2E/DX2                !
 ! A90   A(26,25,28)           106.019          estimate D2E/DX2                !
 ! A91   A(24,26,25)           118.8717         estimate D2E/DX2                !
 ! A92   A(24,26,44)           119.9728         estimate D2E/DX2                !
 ! A93   A(25,26,44)           108.9079         estimate D2E/DX2                !
 ! A94   A(13,27,28)           115.4585         estimate D2E/DX2                !
 ! A95   A(13,27,30)           119.9056         estimate D2E/DX2                !
 ! A96   A(28,27,30)           121.0953         estimate D2E/DX2                !
 ! A97   A(25,28,27)           118.1757         estimate D2E/DX2                !
 ! A98   A(25,28,45)           109.1056         estimate D2E/DX2                !
 ! A99   A(27,28,45)           120.5015         estimate D2E/DX2                !
 ! A100  A(14,29,30)           120.0472         estimate D2E/DX2                !
 ! A101  A(14,29,31)           120.0772         estimate D2E/DX2                !
 ! A102  A(30,29,31)           118.7242         estimate D2E/DX2                !
 ! A103  A(27,30,29)           118.5012         estimate D2E/DX2                !
 ! A104  A(27,30,47)           117.083          estimate D2E/DX2                !
 ! A105  A(29,30,47)           120.8201         estimate D2E/DX2                !
 ! A106  A(29,31,34)           109.6319         estimate D2E/DX2                !
 ! A107  A(29,31,49)           113.1418         estimate D2E/DX2                !
 ! A108  A(29,31,71)           106.5623         estimate D2E/DX2                !
 ! A109  A(34,31,49)           100.7726         estimate D2E/DX2                !
 ! A110  A(34,31,71)           113.1582         estimate D2E/DX2                !
 ! A111  A(49,31,71)           113.6367         estimate D2E/DX2                !
 ! A112  A(16,32,33)           110.4482         estimate D2E/DX2                !
 ! A113  A(16,32,34)           122.3037         estimate D2E/DX2                !
 ! A114  A(33,32,34)           118.3627         estimate D2E/DX2                !
 ! A115  A(18,33,32)           107.7253         estimate D2E/DX2                !
 ! A116  A(18,33,36)           118.9726         estimate D2E/DX2                !
 ! A117  A(32,33,36)           122.5642         estimate D2E/DX2                !
 ! A118  A(31,34,32)           121.6479         estimate D2E/DX2                !
 ! A119  A(31,34,51)           111.025          estimate D2E/DX2                !
 ! A120  A(32,34,51)           119.5982         estimate D2E/DX2                !
 ! A121  A(19,35,36)           120.7728         estimate D2E/DX2                !
 ! A122  A(19,35,37)           121.7934         estimate D2E/DX2                !
 ! A123  A(36,35,37)           107.1759         estimate D2E/DX2                !
 ! A124  A(33,36,35)           121.1657         estimate D2E/DX2                !
 ! A125  A(33,36,52)           118.5414         estimate D2E/DX2                !
 ! A126  A(35,36,52)           108.9471         estimate D2E/DX2                !
 ! A127  A(35,37,39)           119.6736         estimate D2E/DX2                !
 ! A128  A(35,37,53)           107.6728         estimate D2E/DX2                !
 ! A129  A(39,37,53)           120.7005         estimate D2E/DX2                !
 ! A130  A(21,38,39)           121.8951         estimate D2E/DX2                !
 ! A131  A(21,38,42)           121.6019         estimate D2E/DX2                !
 ! A132  A(39,38,42)           106.9389         estimate D2E/DX2                !
 ! A133  A(37,39,38)           119.5545         estimate D2E/DX2                !
 ! A134  A(37,39,57)           120.0194         estimate D2E/DX2                !
 ! A135  A(38,39,57)           108.7757         estimate D2E/DX2                !
 ! A136  A(23,40,41)           107.8466         estimate D2E/DX2                !
 ! A137  A(23,40,42)           119.2779         estimate D2E/DX2                !
 ! A138  A(41,40,42)           121.0478         estimate D2E/DX2                !
 ! A139  A(24,41,40)           106.667          estimate D2E/DX2                !
 ! A140  A(24,41,43)           120.0436         estimate D2E/DX2                !
 ! A141  A(40,41,43)           119.2285         estimate D2E/DX2                !
 ! A142  A(38,42,40)           120.287          estimate D2E/DX2                !
 ! A143  A(38,42,58)           108.5282         estimate D2E/DX2                !
 ! A144  A(40,42,58)           119.6126         estimate D2E/DX2                !
 ! A145  A(41,43,46)           119.9622         estimate D2E/DX2                !
 ! A146  A(41,43,59)           119.9684         estimate D2E/DX2                !
 ! A147  A(46,43,59)           107.8932         estimate D2E/DX2                !
 ! A148  A(26,44,45)           107.1503         estimate D2E/DX2                !
 ! A149  A(26,44,46)           120.3867         estimate D2E/DX2                !
 ! A150  A(45,44,46)           119.2207         estimate D2E/DX2                !
 ! A151  A(28,45,44)           108.6104         estimate D2E/DX2                !
 ! A152  A(28,45,48)           118.9875         estimate D2E/DX2                !
 ! A153  A(44,45,48)           120.9747         estimate D2E/DX2                !
 ! A154  A(43,46,44)           119.5898         estimate D2E/DX2                !
 ! A155  A(43,46,61)           107.9801         estimate D2E/DX2                !
 ! A156  A(44,46,61)           120.1873         estimate D2E/DX2                !
 ! A157  A(30,47,48)           120.7465         estimate D2E/DX2                !
 ! A158  A(30,47,50)           119.7437         estimate D2E/DX2                !
 ! A159  A(48,47,50)           107.9412         estimate D2E/DX2                !
 ! A160  A(45,48,47)           120.7015         estimate D2E/DX2                !
 ! A161  A(45,48,62)           119.2444         estimate D2E/DX2                !
 ! A162  A(47,48,62)           108.8446         estimate D2E/DX2                !
 ! A163  A(31,49,50)           121.8561         estimate D2E/DX2                !
 ! A164  A(31,49,54)           111.6617         estimate D2E/DX2                !
 ! A165  A(50,49,54)           118.4301         estimate D2E/DX2                !
 ! A166  A(47,50,49)           120.5712         estimate D2E/DX2                !
 ! A167  A(47,50,63)           107.3276         estimate D2E/DX2                !
 ! A168  A(49,50,63)           121.1531         estimate D2E/DX2                !
 ! A169  A(34,51,52)           121.4543         estimate D2E/DX2                !
 ! A170  A(34,51,54)           108.4705         estimate D2E/DX2                !
 ! A171  A(52,51,54)           119.2485         estimate D2E/DX2                !
 ! A172  A(36,52,51)           118.4465         estimate D2E/DX2                !
 ! A173  A(36,52,53)           107.1129         estimate D2E/DX2                !
 ! A174  A(51,52,53)           121.0954         estimate D2E/DX2                !
 ! A175  A(37,53,52)           108.6264         estimate D2E/DX2                !
 ! A176  A(37,53,55)           119.3373         estimate D2E/DX2                !
 ! A177  A(52,53,55)           119.5713         estimate D2E/DX2                !
 ! A178  A(49,54,51)           107.6641         estimate D2E/DX2                !
 ! A179  A(49,54,56)           121.0991         estimate D2E/DX2                !
 ! A180  A(51,54,56)           119.8272         estimate D2E/DX2                !
 ! A181  A(53,55,56)           119.5503         estimate D2E/DX2                !
 ! A182  A(53,55,60)           119.8397         estimate D2E/DX2                !
 ! A183  A(56,55,60)           108.6181         estimate D2E/DX2                !
 ! A184  A(54,56,55)           120.5073         estimate D2E/DX2                !
 ! A185  A(54,56,64)           119.9325         estimate D2E/DX2                !
 ! A186  A(55,56,64)           107.4921         estimate D2E/DX2                !
 ! A187  A(39,57,58)           107.5957         estimate D2E/DX2                !
 ! A188  A(39,57,60)           119.4086         estimate D2E/DX2                !
 ! A189  A(58,57,60)           120.0937         estimate D2E/DX2                !
 ! A190  A(42,58,57)           107.7939         estimate D2E/DX2                !
 ! A191  A(42,58,59)           119.4988         estimate D2E/DX2                !
 ! A192  A(57,58,59)           120.1999         estimate D2E/DX2                !
 ! A193  A(43,59,58)           120.3518         estimate D2E/DX2                !
 ! A194  A(43,59,65)           108.3415         estimate D2E/DX2                !
 ! A195  A(58,59,65)           119.5957         estimate D2E/DX2                !
 ! A196  A(55,60,57)           120.4579         estimate D2E/DX2                !
 ! A197  A(55,60,66)           107.3982         estimate D2E/DX2                !
 ! A198  A(57,60,66)           119.8341         estimate D2E/DX2                !
 ! A199  A(46,61,62)           120.5996         estimate D2E/DX2                !
 ! A200  A(46,61,65)           107.681          estimate D2E/DX2                !
 ! A201  A(62,61,65)           119.8905         estimate D2E/DX2                !
 ! A202  A(48,62,61)           119.5457         estimate D2E/DX2                !
 ! A203  A(48,62,63)           107.4062         estimate D2E/DX2                !
 ! A204  A(61,62,63)           120.3216         estimate D2E/DX2                !
 ! A205  A(50,63,62)           108.1428         estimate D2E/DX2                !
 ! A206  A(50,63,64)           120.2994         estimate D2E/DX2                !
 ! A207  A(62,63,64)           119.6162         estimate D2E/DX2                !
 ! A208  A(56,64,63)           118.8475         estimate D2E/DX2                !
 ! A209  A(56,64,66)           108.5377         estimate D2E/DX2                !
 ! A210  A(63,64,66)           120.4464         estimate D2E/DX2                !
 ! A211  A(59,65,61)           108.0203         estimate D2E/DX2                !
 ! A212  A(59,65,66)           119.9843         estimate D2E/DX2                !
 ! A213  A(61,65,66)           119.9156         estimate D2E/DX2                !
 ! A214  A(60,66,64)           107.9114         estimate D2E/DX2                !
 ! A215  A(60,66,65)           120.2255         estimate D2E/DX2                !
 ! A216  A(64,66,65)           119.7188         estimate D2E/DX2                !
 ! D1    D(4,1,2,3)              3.8175         estimate D2E/DX2                !
 ! D2    D(4,1,2,10)          -110.129          estimate D2E/DX2                !
 ! D3    D(4,1,2,68)           122.7446         estimate D2E/DX2                !
 ! D4    D(7,1,2,3)            113.3383         estimate D2E/DX2                !
 ! D5    D(7,1,2,10)            -0.6081         estimate D2E/DX2                !
 ! D6    D(7,1,2,68)          -127.7346         estimate D2E/DX2                !
 ! D7    D(67,1,2,3)          -119.9769         estimate D2E/DX2                !
 ! D8    D(67,1,2,10)          126.0767         estimate D2E/DX2                !
 ! D9    D(67,1,2,68)           -1.0498         estimate D2E/DX2                !
 ! D10   D(2,1,4,5)             -3.9609         estimate D2E/DX2                !
 ! D11   D(2,1,4,6)            139.3007         estimate D2E/DX2                !
 ! D12   D(7,1,4,5)           -127.8515         estimate D2E/DX2                !
 ! D13   D(7,1,4,6)             15.4101         estimate D2E/DX2                !
 ! D14   D(67,1,4,5)           119.1097         estimate D2E/DX2                !
 ! D15   D(67,1,4,6)           -97.6287         estimate D2E/DX2                !
 ! D16   D(2,1,7,8)           -130.4755         estimate D2E/DX2                !
 ! D17   D(2,1,7,9)             16.5431         estimate D2E/DX2                !
 ! D18   D(4,1,7,8)            -18.0077         estimate D2E/DX2                !
 ! D19   D(4,1,7,9)            129.0109         estimate D2E/DX2                !
 ! D20   D(67,1,7,8)           100.2442         estimate D2E/DX2                !
 ! D21   D(67,1,7,9)          -112.7372         estimate D2E/DX2                !
 ! D22   D(1,2,3,5)             -2.6831         estimate D2E/DX2                !
 ! D23   D(1,2,3,12)          -110.5215         estimate D2E/DX2                !
 ! D24   D(1,2,3,69)           125.5345         estimate D2E/DX2                !
 ! D25   D(10,2,3,5)           117.0978         estimate D2E/DX2                !
 ! D26   D(10,2,3,12)            9.2594         estimate D2E/DX2                !
 ! D27   D(10,2,3,69)         -114.6846         estimate D2E/DX2                !
 ! D28   D(68,2,3,5)          -122.333          estimate D2E/DX2                !
 ! D29   D(68,2,3,12)          129.8286         estimate D2E/DX2                !
 ! D30   D(68,2,3,69)            5.8847         estimate D2E/DX2                !
 ! D31   D(1,2,10,11)           -9.7719         estimate D2E/DX2                !
 ! D32   D(1,2,10,13)          108.0096         estimate D2E/DX2                !
 ! D33   D(1,2,10,72)         -134.5398         estimate D2E/DX2                !
 ! D34   D(3,2,10,11)         -123.316          estimate D2E/DX2                !
 ! D35   D(3,2,10,13)           -5.5345         estimate D2E/DX2                !
 ! D36   D(3,2,10,72)          111.9161         estimate D2E/DX2                !
 ! D37   D(68,2,10,11)         117.1202         estimate D2E/DX2                !
 ! D38   D(68,2,10,13)        -125.0983         estimate D2E/DX2                !
 ! D39   D(68,2,10,72)          -7.6477         estimate D2E/DX2                !
 ! D40   D(2,3,5,4)              0.3897         estimate D2E/DX2                !
 ! D41   D(2,3,5,15)          -145.6214         estimate D2E/DX2                !
 ! D42   D(12,3,5,4)           111.01           estimate D2E/DX2                !
 ! D43   D(12,3,5,15)          -35.0011         estimate D2E/DX2                !
 ! D44   D(69,3,5,4)          -129.3149         estimate D2E/DX2                !
 ! D45   D(69,3,5,15)           84.674          estimate D2E/DX2                !
 ! D46   D(2,3,12,13)          -10.0163         estimate D2E/DX2                !
 ! D47   D(2,3,12,14)          152.0285         estimate D2E/DX2                !
 ! D48   D(5,3,12,13)         -121.4201         estimate D2E/DX2                !
 ! D49   D(5,3,12,14)           40.6247         estimate D2E/DX2                !
 ! D50   D(69,3,12,13)         117.1021         estimate D2E/DX2                !
 ! D51   D(69,3,12,14)         -80.8532         estimate D2E/DX2                !
 ! D52   D(1,4,5,3)              2.3187         estimate D2E/DX2                !
 ! D53   D(1,4,5,15)           150.2203         estimate D2E/DX2                !
 ! D54   D(6,4,5,3)           -136.7784         estimate D2E/DX2                !
 ! D55   D(6,4,5,15)            11.1232         estimate D2E/DX2                !
 ! D56   D(1,4,6,8)             -7.7685         estimate D2E/DX2                !
 ! D57   D(1,4,6,17)          -152.7366         estimate D2E/DX2                !
 ! D58   D(5,4,6,8)            132.0052         estimate D2E/DX2                !
 ! D59   D(5,4,6,17)           -12.9628         estimate D2E/DX2                !
 ! D60   D(3,5,15,16)           -3.9749         estimate D2E/DX2                !
 ! D61   D(3,5,15,18)          144.4127         estimate D2E/DX2                !
 ! D62   D(4,5,15,16)         -147.6617         estimate D2E/DX2                !
 ! D63   D(4,5,15,18)            0.726          estimate D2E/DX2                !
 ! D64   D(4,6,8,7)             -4.287          estimate D2E/DX2                !
 ! D65   D(4,6,8,20)          -156.1096         estimate D2E/DX2                !
 ! D66   D(17,6,8,7)           141.0753         estimate D2E/DX2                !
 ! D67   D(17,6,8,20)          -10.7474         estimate D2E/DX2                !
 ! D68   D(4,6,17,18)            2.3545         estimate D2E/DX2                !
 ! D69   D(4,6,17,19)          155.7786         estimate D2E/DX2                !
 ! D70   D(8,6,17,18)         -138.1028         estimate D2E/DX2                !
 ! D71   D(8,6,17,19)           15.3213         estimate D2E/DX2                !
 ! D72   D(1,7,8,6)             14.794          estimate D2E/DX2                !
 ! D73   D(1,7,8,20)           164.8211         estimate D2E/DX2                !
 ! D74   D(9,7,8,6)           -134.1733         estimate D2E/DX2                !
 ! D75   D(9,7,8,20)            15.8538         estimate D2E/DX2                !
 ! D76   D(1,7,9,11)           -20.6231         estimate D2E/DX2                !
 ! D77   D(1,7,9,22)          -170.1671         estimate D2E/DX2                !
 ! D78   D(8,7,9,11)           124.3227         estimate D2E/DX2                !
 ! D79   D(8,7,9,22)           -25.2213         estimate D2E/DX2                !
 ! D80   D(6,8,20,21)           -0.7853         estimate D2E/DX2                !
 ! D81   D(6,8,20,23)          152.2904         estimate D2E/DX2                !
 ! D82   D(7,8,20,21)         -147.382          estimate D2E/DX2                !
 ! D83   D(7,8,20,23)            5.6937         estimate D2E/DX2                !
 ! D84   D(7,9,11,10)            8.84           estimate D2E/DX2                !
 ! D85   D(7,9,11,25)         -147.2195         estimate D2E/DX2                !
 ! D86   D(22,9,11,10)         157.1349         estimate D2E/DX2                !
 ! D87   D(22,9,11,25)           1.0754         estimate D2E/DX2                !
 ! D88   D(7,9,22,23)           15.1129         estimate D2E/DX2                !
 ! D89   D(7,9,22,24)          159.0754         estimate D2E/DX2                !
 ! D90   D(11,9,22,23)        -134.0454         estimate D2E/DX2                !
 ! D91   D(11,9,22,24)           9.9172         estimate D2E/DX2                !
 ! D92   D(2,10,11,9)            6.4851         estimate D2E/DX2                !
 ! D93   D(2,10,11,25)         162.8559         estimate D2E/DX2                !
 ! D94   D(13,10,11,9)        -109.9625         estimate D2E/DX2                !
 ! D95   D(13,10,11,25)         46.4083         estimate D2E/DX2                !
 ! D96   D(72,10,11,9)         133.7907         estimate D2E/DX2                !
 ! D97   D(72,10,11,25)        -69.8385         estimate D2E/DX2                !
 ! D98   D(2,10,13,12)          -0.4829         estimate D2E/DX2                !
 ! D99   D(2,10,13,27)        -164.0388         estimate D2E/DX2                !
 ! D100  D(11,10,13,12)        125.2193         estimate D2E/DX2                !
 ! D101  D(11,10,13,27)        -38.3365         estimate D2E/DX2                !
 ! D102  D(72,10,13,12)       -120.0249         estimate D2E/DX2                !
 ! D103  D(72,10,13,27)         76.4193         estimate D2E/DX2                !
 ! D104  D(9,11,25,26)         -11.129          estimate D2E/DX2                !
 ! D105  D(9,11,25,28)         132.2317         estimate D2E/DX2                !
 ! D106  D(10,11,25,26)       -169.4096         estimate D2E/DX2                !
 ! D107  D(10,11,25,28)        -26.0489         estimate D2E/DX2                !
 ! D108  D(3,12,13,10)           6.7907         estimate D2E/DX2                !
 ! D109  D(3,12,13,27)         171.0507         estimate D2E/DX2                !
 ! D110  D(14,12,13,10)       -156.1315         estimate D2E/DX2                !
 ! D111  D(14,12,13,27)          8.1285         estimate D2E/DX2                !
 ! D112  D(3,12,14,16)          -5.9276         estimate D2E/DX2                !
 ! D113  D(3,12,14,29)        -172.6303         estimate D2E/DX2                !
 ! D114  D(13,12,14,16)        154.2641         estimate D2E/DX2                !
 ! D115  D(13,12,14,29)        -12.4386         estimate D2E/DX2                !
 ! D116  D(10,13,27,28)          5.3995         estimate D2E/DX2                !
 ! D117  D(10,13,27,30)        164.4178         estimate D2E/DX2                !
 ! D118  D(12,13,27,28)       -157.1892         estimate D2E/DX2                !
 ! D119  D(12,13,27,30)          1.8291         estimate D2E/DX2                !
 ! D120  D(12,14,16,15)        -33.8051         estimate D2E/DX2                !
 ! D121  D(12,14,16,32)       -141.3639         estimate D2E/DX2                !
 ! D122  D(12,14,16,70)         92.5355         estimate D2E/DX2                !
 ! D123  D(29,14,16,15)        132.485          estimate D2E/DX2                !
 ! D124  D(29,14,16,32)         24.9262         estimate D2E/DX2                !
 ! D125  D(29,14,16,70)       -101.1744         estimate D2E/DX2                !
 ! D126  D(12,14,29,30)          6.6804         estimate D2E/DX2                !
 ! D127  D(12,14,29,31)        174.2623         estimate D2E/DX2                !
 ! D128  D(16,14,29,30)       -159.5108         estimate D2E/DX2                !
 ! D129  D(16,14,29,31)          8.0712         estimate D2E/DX2                !
 ! D130  D(5,15,16,14)          39.9615         estimate D2E/DX2                !
 ! D131  D(5,15,16,32)         153.3316         estimate D2E/DX2                !
 ! D132  D(5,15,16,70)         -82.8785         estimate D2E/DX2                !
 ! D133  D(18,15,16,14)       -111.121          estimate D2E/DX2                !
 ! D134  D(18,15,16,32)          2.2491         estimate D2E/DX2                !
 ! D135  D(18,15,16,70)        126.039          estimate D2E/DX2                !
 ! D136  D(5,15,18,17)         -11.2797         estimate D2E/DX2                !
 ! D137  D(5,15,18,33)        -160.0052         estimate D2E/DX2                !
 ! D138  D(16,15,18,17)        140.8072         estimate D2E/DX2                !
 ! D139  D(16,15,18,33)         -7.9183         estimate D2E/DX2                !
 ! D140  D(14,16,32,33)        113.3582         estimate D2E/DX2                !
 ! D141  D(14,16,32,34)        -33.318          estimate D2E/DX2                !
 ! D142  D(15,16,32,33)          4.1915         estimate D2E/DX2                !
 ! D143  D(15,16,32,34)       -142.4848         estimate D2E/DX2                !
 ! D144  D(70,16,32,33)       -121.7878         estimate D2E/DX2                !
 ! D145  D(70,16,32,34)         91.536          estimate D2E/DX2                !
 ! D146  D(6,17,18,15)           9.4112         estimate D2E/DX2                !
 ! D147  D(6,17,18,33)         154.7395         estimate D2E/DX2                !
 ! D148  D(19,17,18,15)       -143.7561         estimate D2E/DX2                !
 ! D149  D(19,17,18,33)          1.5722         estimate D2E/DX2                !
 ! D150  D(6,17,19,21)          -8.4874         estimate D2E/DX2                !
 ! D151  D(6,17,19,35)        -162.5713         estimate D2E/DX2                !
 ! D152  D(18,17,19,21)        143.384          estimate D2E/DX2                !
 ! D153  D(18,17,19,35)        -10.6999         estimate D2E/DX2                !
 ! D154  D(15,18,33,32)         10.4554         estimate D2E/DX2                !
 ! D155  D(15,18,33,36)        155.8292         estimate D2E/DX2                !
 ! D156  D(17,18,33,32)       -138.8972         estimate D2E/DX2                !
 ! D157  D(17,18,33,36)          6.4766         estimate D2E/DX2                !
 ! D158  D(17,19,21,20)         -2.7598         estimate D2E/DX2                !
 ! D159  D(17,19,21,38)       -155.6388         estimate D2E/DX2                !
 ! D160  D(35,19,21,20)        150.9016         estimate D2E/DX2                !
 ! D161  D(35,19,21,38)         -1.9773         estimate D2E/DX2                !
 ! D162  D(17,19,35,36)         12.0695         estimate D2E/DX2                !
 ! D163  D(17,19,35,37)        152.7376         estimate D2E/DX2                !
 ! D164  D(21,19,35,36)       -142.1515         estimate D2E/DX2                !
 ! D165  D(21,19,35,37)         -1.4834         estimate D2E/DX2                !
 ! D166  D(8,20,21,19)           7.3311         estimate D2E/DX2                !
 ! D167  D(8,20,21,38)         160.6235         estimate D2E/DX2                !
 ! D168  D(23,20,21,19)       -143.8151         estimate D2E/DX2                !
 ! D169  D(23,20,21,38)          9.4773         estimate D2E/DX2                !
 ! D170  D(8,20,23,22)         -16.5016         estimate D2E/DX2                !
 ! D171  D(8,20,23,40)        -158.4465         estimate D2E/DX2                !
 ! D172  D(21,20,23,22)        136.2401         estimate D2E/DX2                !
 ! D173  D(21,20,23,40)         -5.7048         estimate D2E/DX2                !
 ! D174  D(19,21,38,39)          3.9186         estimate D2E/DX2                !
 ! D175  D(19,21,38,42)        145.7131         estimate D2E/DX2                !
 ! D176  D(20,21,38,39)       -149.6638         estimate D2E/DX2                !
 ! D177  D(20,21,38,42)         -7.8693         estimate D2E/DX2                !
 ! D178  D(9,22,23,20)           6.5976         estimate D2E/DX2                !
 ! D179  D(9,22,23,40)         152.4733         estimate D2E/DX2                !
 ! D180  D(24,22,23,20)       -142.0714         estimate D2E/DX2                !
 ! D181  D(24,22,23,40)          3.8042         estimate D2E/DX2                !
 ! D182  D(9,22,24,26)         -10.8821         estimate D2E/DX2                !
 ! D183  D(9,22,24,41)        -152.4553         estimate D2E/DX2                !
 ! D184  D(23,22,24,26)        137.8357         estimate D2E/DX2                !
 ! D185  D(23,22,24,41)         -3.7374         estimate D2E/DX2                !
 ! D186  D(20,23,40,41)        143.2405         estimate D2E/DX2                !
 ! D187  D(20,23,40,42)         -0.0513         estimate D2E/DX2                !
 ! D188  D(22,23,40,41)         -2.4544         estimate D2E/DX2                !
 ! D189  D(22,23,40,42)       -145.7461         estimate D2E/DX2                !
 ! D190  D(22,24,26,25)          1.0259         estimate D2E/DX2                !
 ! D191  D(22,24,26,44)       -137.1474         estimate D2E/DX2                !
 ! D192  D(41,24,26,25)        138.379          estimate D2E/DX2                !
 ! D193  D(41,24,26,44)          0.2056         estimate D2E/DX2                !
 ! D194  D(22,24,41,40)          2.246          estimate D2E/DX2                !
 ! D195  D(22,24,41,43)        141.8844         estimate D2E/DX2                !
 ! D196  D(26,24,41,40)       -138.34           estimate D2E/DX2                !
 ! D197  D(26,24,41,43)          1.2984         estimate D2E/DX2                !
 ! D198  D(11,25,26,24)         10.2635         estimate D2E/DX2                !
 ! D199  D(11,25,26,44)        152.6275         estimate D2E/DX2                !
 ! D200  D(28,25,26,24)       -137.878          estimate D2E/DX2                !
 ! D201  D(28,25,26,44)          4.486          estimate D2E/DX2                !
 ! D202  D(11,25,28,27)        -10.6492         estimate D2E/DX2                !
 ! D203  D(11,25,28,45)       -153.295          estimate D2E/DX2                !
 ! D204  D(26,25,28,27)        138.2322         estimate D2E/DX2                !
 ! D205  D(26,25,28,45)         -4.4135         estimate D2E/DX2                !
 ! D206  D(24,26,44,45)        138.9311         estimate D2E/DX2                !
 ! D207  D(24,26,44,46)         -1.7117         estimate D2E/DX2                !
 ! D208  D(25,26,44,45)         -2.9499         estimate D2E/DX2                !
 ! D209  D(25,26,44,46)       -143.5927         estimate D2E/DX2                !
 ! D210  D(13,27,28,25)         20.938          estimate D2E/DX2                !
 ! D211  D(13,27,28,45)        159.2249         estimate D2E/DX2                !
 ! D212  D(30,27,28,25)       -137.8096         estimate D2E/DX2                !
 ! D213  D(30,27,28,45)          0.4773         estimate D2E/DX2                !
 ! D214  D(13,27,30,29)         -7.2136         estimate D2E/DX2                !
 ! D215  D(13,27,30,47)       -166.0344         estimate D2E/DX2                !
 ! D216  D(28,27,30,29)        150.6043         estimate D2E/DX2                !
 ! D217  D(28,27,30,47)         -8.2165         estimate D2E/DX2                !
 ! D218  D(25,28,45,44)          2.671          estimate D2E/DX2                !
 ! D219  D(25,28,45,48)        146.5129         estimate D2E/DX2                !
 ! D220  D(27,28,45,44)       -138.9583         estimate D2E/DX2                !
 ! D221  D(27,28,45,48)          4.8835         estimate D2E/DX2                !
 ! D222  D(14,29,30,27)          2.8229         estimate D2E/DX2                !
 ! D223  D(14,29,30,47)        160.8254         estimate D2E/DX2                !
 ! D224  D(31,29,30,27)       -164.9258         estimate D2E/DX2                !
 ! D225  D(31,29,30,47)         -6.9233         estimate D2E/DX2                !
 ! D226  D(14,29,31,34)        -33.5792         estimate D2E/DX2                !
 ! D227  D(14,29,31,49)       -145.1882         estimate D2E/DX2                !
 ! D228  D(14,29,31,71)         89.2204         estimate D2E/DX2                !
 ! D229  D(30,29,31,34)        134.1658         estimate D2E/DX2                !
 ! D230  D(30,29,31,49)         22.5568         estimate D2E/DX2                !
 ! D231  D(30,29,31,71)       -103.0347         estimate D2E/DX2                !
 ! D232  D(27,30,47,48)         10.8476         estimate D2E/DX2                !
 ! D233  D(27,30,47,50)        149.6733         estimate D2E/DX2                !
 ! D234  D(29,30,47,48)       -147.4546         estimate D2E/DX2                !
 ! D235  D(29,30,47,50)         -8.6289         estimate D2E/DX2                !
 ! D236  D(29,31,34,32)         26.0803         estimate D2E/DX2                !
 ! D237  D(29,31,34,51)       -123.0666         estimate D2E/DX2                !
 ! D238  D(49,31,34,32)        145.5932         estimate D2E/DX2                !
 ! D239  D(49,31,34,51)         -3.5537         estimate D2E/DX2                !
 ! D240  D(71,31,34,32)        -92.7197         estimate D2E/DX2                !
 ! D241  D(71,31,34,51)        118.1334         estimate D2E/DX2                !
 ! D242  D(29,31,49,50)        -25.1311         estimate D2E/DX2                !
 ! D243  D(29,31,49,54)        123.0697         estimate D2E/DX2                !
 ! D244  D(34,31,49,50)       -142.0835         estimate D2E/DX2                !
 ! D245  D(34,31,49,54)          6.1173         estimate D2E/DX2                !
 ! D246  D(71,31,49,50)         96.5671         estimate D2E/DX2                !
 ! D247  D(71,31,49,54)       -115.2322         estimate D2E/DX2                !
 ! D248  D(16,32,33,18)         -9.0883         estimate D2E/DX2                !
 ! D249  D(16,32,33,36)       -152.9428         estimate D2E/DX2                !
 ! D250  D(34,32,33,18)        139.0625         estimate D2E/DX2                !
 ! D251  D(34,32,33,36)         -4.7921         estimate D2E/DX2                !
 ! D252  D(16,32,34,31)          7.5936         estimate D2E/DX2                !
 ! D253  D(16,32,34,51)        154.1899         estimate D2E/DX2                !
 ! D254  D(33,32,34,31)       -136.6052         estimate D2E/DX2                !
 ! D255  D(33,32,34,51)          9.9911         estimate D2E/DX2                !
 ! D256  D(18,33,36,35)         -5.1913         estimate D2E/DX2                !
 ! D257  D(18,33,36,52)       -144.7352         estimate D2E/DX2                !
 ! D258  D(32,33,36,35)        134.8521         estimate D2E/DX2                !
 ! D259  D(32,33,36,52)         -4.6918         estimate D2E/DX2                !
 ! D260  D(31,34,51,52)        143.8157         estimate D2E/DX2                !
 ! D261  D(31,34,51,54)         -0.104          estimate D2E/DX2                !
 ! D262  D(32,34,51,52)         -6.0458         estimate D2E/DX2                !
 ! D263  D(32,34,51,54)       -149.9655         estimate D2E/DX2                !
 ! D264  D(19,35,36,33)         -4.3642         estimate D2E/DX2                !
 ! D265  D(19,35,36,52)        138.5749         estimate D2E/DX2                !
 ! D266  D(37,35,36,33)       -150.0413         estimate D2E/DX2                !
 ! D267  D(37,35,36,52)         -7.1021         estimate D2E/DX2                !
 ! D268  D(19,35,37,39)          3.1303         estimate D2E/DX2                !
 ! D269  D(19,35,37,53)       -139.8337         estimate D2E/DX2                !
 ! D270  D(36,35,37,39)        148.3805         estimate D2E/DX2                !
 ! D271  D(36,35,37,53)          5.4166         estimate D2E/DX2                !
 ! D272  D(33,36,52,51)          8.6277         estimate D2E/DX2                !
 ! D273  D(33,36,52,53)        150.0158         estimate D2E/DX2                !
 ! D274  D(35,36,52,51)       -135.4263         estimate D2E/DX2                !
 ! D275  D(35,36,52,53)          5.9619         estimate D2E/DX2                !
 ! D276  D(35,37,39,38)         -1.2118         estimate D2E/DX2                !
 ! D277  D(35,37,39,57)       -140.2338         estimate D2E/DX2                !
 ! D278  D(53,37,39,38)        136.9189         estimate D2E/DX2                !
 ! D279  D(53,37,39,57)         -2.1031         estimate D2E/DX2                !
 ! D280  D(35,37,53,52)         -1.8182         estimate D2E/DX2                !
 ! D281  D(35,37,53,55)        140.0722         estimate D2E/DX2                !
 ! D282  D(39,37,53,52)       -144.3277         estimate D2E/DX2                !
 ! D283  D(39,37,53,55)         -2.4372         estimate D2E/DX2                !
 ! D284  D(21,38,39,37)         -2.3382         estimate D2E/DX2                !
 ! D285  D(21,38,39,57)        140.8124         estimate D2E/DX2                !
 ! D286  D(42,38,39,37)       -148.926          estimate D2E/DX2                !
 ! D287  D(42,38,39,57)         -5.7754         estimate D2E/DX2                !
 ! D288  D(21,38,42,40)          2.4645         estimate D2E/DX2                !
 ! D289  D(21,38,42,58)       -140.595          estimate D2E/DX2                !
 ! D290  D(39,38,42,40)        149.1717         estimate D2E/DX2                !
 ! D291  D(39,38,42,58)          6.1122         estimate D2E/DX2                !
 ! D292  D(37,39,57,58)        146.2291         estimate D2E/DX2                !
 ! D293  D(37,39,57,60)          4.7301         estimate D2E/DX2                !
 ! D294  D(38,39,57,58)          3.2787         estimate D2E/DX2                !
 ! D295  D(38,39,57,60)       -138.2202         estimate D2E/DX2                !
 ! D296  D(23,40,41,24)          0.1216         estimate D2E/DX2                !
 ! D297  D(23,40,41,43)       -139.9083         estimate D2E/DX2                !
 ! D298  D(42,40,41,24)        142.6354         estimate D2E/DX2                !
 ! D299  D(42,40,41,43)          2.6056         estimate D2E/DX2                !
 ! D300  D(23,40,42,38)          1.7216         estimate D2E/DX2                !
 ! D301  D(23,40,42,58)        140.7682         estimate D2E/DX2                !
 ! D302  D(41,40,42,38)       -136.6634         estimate D2E/DX2                !
 ! D303  D(41,40,42,58)          2.3832         estimate D2E/DX2                !
 ! D304  D(24,41,43,46)         -1.3151         estimate D2E/DX2                !
 ! D305  D(24,41,43,59)       -139.1977         estimate D2E/DX2                !
 ! D306  D(40,41,43,46)        133.3755         estimate D2E/DX2                !
 ! D307  D(40,41,43,59)         -4.5072         estimate D2E/DX2                !
 ! D308  D(38,42,58,57)         -4.1412         estimate D2E/DX2                !
 ! D309  D(38,42,58,59)        137.9089         estimate D2E/DX2                !
 ! D310  D(40,42,58,57)       -147.4913         estimate D2E/DX2                !
 ! D311  D(40,42,58,59)         -5.4412         estimate D2E/DX2                !
 ! D312  D(41,43,46,44)         -0.1783         estimate D2E/DX2                !
 ! D313  D(41,43,46,61)       -142.5714         estimate D2E/DX2                !
 ! D314  D(59,43,46,44)        142.1949         estimate D2E/DX2                !
 ! D315  D(59,43,46,61)         -0.1982         estimate D2E/DX2                !
 ! D316  D(41,43,59,58)          1.4476         estimate D2E/DX2                !
 ! D317  D(41,43,59,65)        144.2996         estimate D2E/DX2                !
 ! D318  D(46,43,59,58)       -140.9228         estimate D2E/DX2                !
 ! D319  D(46,43,59,65)          1.9292         estimate D2E/DX2                !
 ! D320  D(26,44,45,28)          0.1528         estimate D2E/DX2                !
 ! D321  D(26,44,45,48)       -142.8381         estimate D2E/DX2                !
 ! D322  D(46,44,45,28)        141.3381         estimate D2E/DX2                !
 ! D323  D(46,44,45,48)         -1.6528         estimate D2E/DX2                !
 ! D324  D(26,44,46,43)          1.6879         estimate D2E/DX2                !
 ! D325  D(26,44,46,61)        139.5047         estimate D2E/DX2                !
 ! D326  D(45,44,46,43)       -134.3399         estimate D2E/DX2                !
 ! D327  D(45,44,46,61)          3.4769         estimate D2E/DX2                !
 ! D328  D(28,45,48,47)         -2.2332         estimate D2E/DX2                !
 ! D329  D(28,45,48,62)       -141.9617         estimate D2E/DX2                !
 ! D330  D(44,45,48,47)        137.0617         estimate D2E/DX2                !
 ! D331  D(44,45,48,62)         -2.6669         estimate D2E/DX2                !
 ! D332  D(43,46,61,62)        141.1704         estimate D2E/DX2                !
 ! D333  D(43,46,61,65)         -1.5976         estimate D2E/DX2                !
 ! D334  D(44,46,61,62)         -0.9568         estimate D2E/DX2                !
 ! D335  D(44,46,61,65)       -143.7249         estimate D2E/DX2                !
 ! D336  D(30,47,48,45)         -5.8259         estimate D2E/DX2                !
 ! D337  D(30,47,48,62)        137.5926         estimate D2E/DX2                !
 ! D338  D(50,47,48,45)       -148.8963         estimate D2E/DX2                !
 ! D339  D(50,47,48,62)         -5.4778         estimate D2E/DX2                !
 ! D340  D(30,47,50,49)          6.8649         estimate D2E/DX2                !
 ! D341  D(30,47,50,63)       -137.5951         estimate D2E/DX2                !
 ! D342  D(48,47,50,49)        150.3714         estimate D2E/DX2                !
 ! D343  D(48,47,50,63)          5.9114         estimate D2E/DX2                !
 ! D344  D(45,48,62,61)          5.1684         estimate D2E/DX2                !
 ! D345  D(45,48,62,63)        146.9691         estimate D2E/DX2                !
 ! D346  D(47,48,62,61)       -138.8668         estimate D2E/DX2                !
 ! D347  D(47,48,62,63)          2.9339         estimate D2E/DX2                !
 ! D348  D(31,49,50,47)         11.1035         estimate D2E/DX2                !
 ! D349  D(31,49,50,63)        150.6826         estimate D2E/DX2                !
 ! D350  D(54,49,50,47)       -135.0553         estimate D2E/DX2                !
 ! D351  D(54,49,50,63)          4.5238         estimate D2E/DX2                !
 ! D352  D(31,49,54,51)         -6.5715         estimate D2E/DX2                !
 ! D353  D(31,49,54,56)       -149.865          estimate D2E/DX2                !
 ! D354  D(50,49,54,51)        142.8342         estimate D2E/DX2                !
 ! D355  D(50,49,54,56)         -0.4593         estimate D2E/DX2                !
 ! D356  D(47,50,63,62)         -4.0939         estimate D2E/DX2                !
 ! D357  D(47,50,63,64)        138.4477         estimate D2E/DX2                !
 ! D358  D(49,50,63,62)       -148.3044         estimate D2E/DX2                !
 ! D359  D(49,50,63,64)         -5.7628         estimate D2E/DX2                !
 ! D360  D(34,51,52,36)         -3.5077         estimate D2E/DX2                !
 ! D361  D(34,51,52,53)       -139.3614         estimate D2E/DX2                !
 ! D362  D(54,51,52,36)        136.6854         estimate D2E/DX2                !
 ! D363  D(54,51,52,53)          0.8318         estimate D2E/DX2                !
 ! D364  D(34,51,54,49)          4.0161         estimate D2E/DX2                !
 ! D365  D(34,51,54,56)        147.8617         estimate D2E/DX2                !
 ! D366  D(52,51,54,49)       -140.829          estimate D2E/DX2                !
 ! D367  D(52,51,54,56)          3.0167         estimate D2E/DX2                !
 ! D368  D(36,52,53,37)         -2.5469         estimate D2E/DX2                !
 ! D369  D(36,52,53,55)       -144.3335         estimate D2E/DX2                !
 ! D370  D(51,52,53,37)        137.6039         estimate D2E/DX2                !
 ! D371  D(51,52,53,55)         -4.1827         estimate D2E/DX2                !
 ! D372  D(37,53,55,56)       -134.1306         estimate D2E/DX2                !
 ! D373  D(37,53,55,60)          4.3125         estimate D2E/DX2                !
 ! D374  D(52,53,55,56)          3.6146         estimate D2E/DX2                !
 ! D375  D(52,53,55,60)        142.0577         estimate D2E/DX2                !
 ! D376  D(49,54,56,55)        135.4051         estimate D2E/DX2                !
 ! D377  D(49,54,56,64)         -2.4822         estimate D2E/DX2                !
 ! D378  D(51,54,56,55)         -3.5613         estimate D2E/DX2                !
 ! D379  D(51,54,56,64)       -141.4485         estimate D2E/DX2                !
 ! D380  D(53,55,56,54)          0.205          estimate D2E/DX2                !
 ! D381  D(53,55,56,64)        142.6647         estimate D2E/DX2                !
 ! D382  D(60,55,56,54)       -142.4083         estimate D2E/DX2                !
 ! D383  D(60,55,56,64)          0.0513         estimate D2E/DX2                !
 ! D384  D(53,55,60,57)         -1.6864         estimate D2E/DX2                !
 ! D385  D(53,55,60,66)       -143.7849         estimate D2E/DX2                !
 ! D386  D(56,55,60,57)        140.8006         estimate D2E/DX2                !
 ! D387  D(56,55,60,66)         -1.298          estimate D2E/DX2                !
 ! D388  D(54,56,64,63)          1.2898         estimate D2E/DX2                !
 ! D389  D(54,56,64,66)        143.9347         estimate D2E/DX2                !
 ! D390  D(55,56,64,63)       -141.426          estimate D2E/DX2                !
 ! D391  D(55,56,64,66)          1.219          estimate D2E/DX2                !
 ! D392  D(39,57,58,42)          0.548          estimate D2E/DX2                !
 ! D393  D(39,57,58,59)       -141.1865         estimate D2E/DX2                !
 ! D394  D(60,57,58,42)        141.7337         estimate D2E/DX2                !
 ! D395  D(60,57,58,59)         -0.0008         estimate D2E/DX2                !
 ! D396  D(39,57,60,55)         -2.8422         estimate D2E/DX2                !
 ! D397  D(39,57,60,66)        134.6446         estimate D2E/DX2                !
 ! D398  D(58,57,60,55)       -139.5396         estimate D2E/DX2                !
 ! D399  D(58,57,60,66)         -2.0528         estimate D2E/DX2                !
 ! D400  D(42,58,59,43)          3.5508         estimate D2E/DX2                !
 ! D401  D(42,58,59,65)       -135.2101         estimate D2E/DX2                !
 ! D402  D(57,58,59,43)        140.9017         estimate D2E/DX2                !
 ! D403  D(57,58,59,65)          2.1408         estimate D2E/DX2                !
 ! D404  D(43,59,65,61)         -2.9266         estimate D2E/DX2                !
 ! D405  D(43,59,65,66)       -145.4108         estimate D2E/DX2                !
 ! D406  D(58,59,65,61)        140.2538         estimate D2E/DX2                !
 ! D407  D(58,59,65,66)         -2.2304         estimate D2E/DX2                !
 ! D408  D(55,60,66,64)          2.0353         estimate D2E/DX2                !
 ! D409  D(55,60,66,65)        144.34           estimate D2E/DX2                !
 ! D410  D(57,60,66,64)       -140.3438         estimate D2E/DX2                !
 ! D411  D(57,60,66,65)          1.9608         estimate D2E/DX2                !
 ! D412  D(46,61,62,48)         -3.4021         estimate D2E/DX2                !
 ! D413  D(46,61,62,63)       -140.2771         estimate D2E/DX2                !
 ! D414  D(65,61,62,48)        134.9225         estimate D2E/DX2                !
 ! D415  D(65,61,62,63)         -1.9524         estimate D2E/DX2                !
 ! D416  D(46,61,65,59)          2.7839         estimate D2E/DX2                !
 ! D417  D(46,61,65,66)        145.2985         estimate D2E/DX2                !
 ! D418  D(62,61,65,59)       -140.2965         estimate D2E/DX2                !
 ! D419  D(62,61,65,66)          2.2181         estimate D2E/DX2                !
 ! D420  D(48,62,63,50)          0.7933         estimate D2E/DX2                !
 ! D421  D(48,62,63,64)       -142.0483         estimate D2E/DX2                !
 ! D422  D(61,62,63,50)        142.2402         estimate D2E/DX2                !
 ! D423  D(61,62,63,64)         -0.6014         estimate D2E/DX2                !
 ! D424  D(50,63,64,56)          2.6985         estimate D2E/DX2                !
 ! D425  D(50,63,64,66)       -135.4435         estimate D2E/DX2                !
 ! D426  D(62,63,64,56)        141.0313         estimate D2E/DX2                !
 ! D427  D(62,63,64,66)          2.8894         estimate D2E/DX2                !
 ! D428  D(56,64,66,60)         -2.0315         estimate D2E/DX2                !
 ! D429  D(56,64,66,65)       -144.5611         estimate D2E/DX2                !
 ! D430  D(63,64,66,60)        139.9099         estimate D2E/DX2                !
 ! D431  D(63,64,66,65)         -2.6197         estimate D2E/DX2                !
 ! D432  D(59,65,66,60)          0.1861         estimate D2E/DX2                !
 ! D433  D(59,65,66,64)        138.1232         estimate D2E/DX2                !
 ! D434  D(61,65,66,60)       -137.8911         estimate D2E/DX2                !
 ! D435  D(61,65,66,64)          0.046          estimate D2E/DX2                !
 --------------------------------------------------------------------------------
 Trust Radius=3.00D-01 FncErr=1.00D-07 GrdErr=1.00D-06 EigMax=2.50D+02 EigMin=1.00D-04
 Number of steps in this run=    432 maximum allowed number of steps=    432.
 GradGradGradGradGradGradGradGradGradGradGradGradGradGradGradGradGradGrad

 Leave Link  103 at Sat Jul 16 21:32:28 2022, MaxMem=  1342177280 cpu:               1.8 elap:               0.0
 (Enter /home/mkliu/g16/l202.exe)
 Stoichiometry    C66Cl6
 Framework group  C1[X(C66Cl6)]
 Deg. of freedom   210
 Full point group                 C1      NOp   1
 Largest Abelian subgroup         C1      NOp   1
[...]
 Alpha virt. eigenvalues --    1.12411   1.12586   1.12787   1.13253   1.13455
 Alpha virt. eigenvalues --    1.13773   1.14568   1.15165   1.15309   1.15935
 Alpha virt. eigenvalues --    1.16398   1.16903   1.17286   1.17658   1.17902
 Alpha virt. eigenvalues --    1.18571   1.18753   1.19187   1.19622   1.19782
 Alpha virt. eigenvalues --    1.20153   1.20305   1.20445   1.20969   1.21339
 Alpha virt. eigenvalues --    1.21805   1.22310   1.22891   1.23027   1.23699
 Alpha virt. eigenvalues --    1.23997   1.24407   1.24846   1.25190   1.26179
 Alpha virt. eigenvalues --    1.26485   1.26924   1.27132   1.27702   1.28065
 Alpha virt. eigenvalues --    1.28316   1.28914   1.29042   1.29844   1.30371
 Alpha virt. eigenvalues --    1.30874   1.31037   1.31372   1.31965   1.32393
 Alpha virt. eigenvalues --    1.32601   1.32717   1.32960   1.33476   1.33591
 Alpha virt. eigenvalues --    1.34104   1.34731   1.34834   1.35029   1.35432
 Alpha virt. eigenvalues --    1.35711   1.36639   1.36761   1.37237   1.37646
 Alpha virt. eigenvalues --    1.37933   1.38394   1.38810   1.39083   1.39355
 Alpha virt. eigenvalues --    1.39637   1.39857   1.40226   1.40282   1.40900
 Alpha virt. eigenvalues --    1.41104   1.41200   1.41447   1.41849   1.42121
 Alpha virt. eigenvalues --    1.42188   1.42315   1.42565   1.43168   1.43198
 Alpha virt. eigenvalues --    1.43645   1.43777   1.44053   1.44620   1.44711
 Alpha virt. eigenvalues --    1.44894   1.45174   1.45397   1.45552   1.45840
 Alpha virt. eigenvalues --    1.46241   1.46335   1.46488   1.46774   1.47179
 Alpha virt. eigenvalues --    1.47291   1.47688   1.47858   1.48197   1.48439
 Alpha virt. eigenvalues --    1.48676   1.48793   1.49065   1.49211   1.49604
 Alpha virt. eigenvalues --    1.50043   1.50393   1.50557   1.50816   1.51031
 Alpha virt. eigenvalues --    1.51671   1.51715   1.52005   1.52184   1.52456
 Alpha virt. eigenvalues --    1.52947   1.53054   1.53448   1.53803   1.54152
 Alpha virt. eigenvalues --    1.54455   1.54621   1.55161   1.55373   1.55950
 Alpha virt. eigenvalues --    1.56123   1.56639   1.57076   1.57258   1.57579
 Alpha virt. eigenvalues --    1.58392   1.58909   1.59252   1.59632   1.59997
 Alpha virt. eigenvalues --    1.60495   1.61012   1.61136   1.61771   1.62141
 Alpha virt. eigenvalues --    1.62551   1.63064   1.63416   1.63667   1.64125
 Alpha virt. eigenvalues --    1.64770   1.65179   1.65461   1.65615   1.65980
 Alpha virt. eigenvalues --    1.66298   1.66490   1.66899   1.67171   1.67526
 Alpha virt. eigenvalues --    1.68187   1.68364   1.68602   1.69406   1.69516
 Alpha virt. eigenvalues --    1.69781   1.69959   1.70423   1.70909   1.71260
 Alpha virt. eigenvalues --    1.71571   1.71979   1.72177   1.72984   1.73105
 Alpha virt. eigenvalues --    1.73615   1.73742   1.74265   1.74495   1.74890
 Alpha virt. eigenvalues --    1.75252   1.75965   1.76138   1.76575   1.77212
 Alpha virt. eigenvalues --    1.77494   1.77891   1.78208   1.78761   1.78858
 Alpha virt. eigenvalues --    1.79319   1.79988   1.80074   1.80555   1.80771
 Alpha virt. eigenvalues --    1.81477   1.81911   1.82686   1.83093   1.83367
 Alpha virt. eigenvalues --    1.84290   1.84497   1.85487   1.85775   1.86491
 Alpha virt. eigenvalues --    1.87081   1.87441   1.88185   1.88575   1.88897
 Alpha virt. eigenvalues --    1.89654   1.90090   1.90590   1.91074   1.91595
 Alpha virt. eigenvalues --    1.91999   1.92167   1.92618   1.93192   1.93596
 Alpha virt. eigenvalues --    1.93814   1.94273   1.95192   1.95465   1.95756
 Alpha virt. eigenvalues --    1.96298   1.97041   1.97557   1.98044   1.98405
 Alpha virt. eigenvalues --    1.99670   1.99776   2.00576   2.00623   2.01040
 Alpha virt. eigenvalues --    2.01532   2.01553   2.01890   2.02067   2.02305
 Alpha virt. eigenvalues --    2.02661   2.03278   2.03571   2.04196   2.04604
 Alpha virt. eigenvalues --    2.05390   2.06312   2.06601   2.06671   2.07151
 Alpha virt. eigenvalues --    2.07268   2.07666   2.08140   2.08371   2.09078
 Alpha virt. eigenvalues --    2.09724   2.10276   2.10589   2.10735   2.11509
 Alpha virt. eigenvalues --    2.11606   2.12514   2.12593   2.13356   2.13689
 Alpha virt. eigenvalues --    2.14411   2.15283   2.15521   2.15781   2.15862
 Alpha virt. eigenvalues --    2.16768   2.17005   2.17954   2.18027   2.18820
 Alpha virt. eigenvalues --    2.19334   2.19641   2.19997   2.20309   2.20618
 Alpha virt. eigenvalues --    2.21255   2.21592   2.22373   2.22609   2.22733
 Alpha virt. eigenvalues --    2.23260   2.24403   2.24436   2.24751   2.25311
 Alpha virt. eigenvalues --    2.25607   2.25954   2.26369   2.26968   2.27656
 Alpha virt. eigenvalues --    2.27798   2.27952   2.28704   2.28783   2.28897
 Alpha virt. eigenvalues --    2.29878   2.30660   2.30876   2.31767   2.32106
 Alpha virt. eigenvalues --    2.33033   2.33138   2.33461   2.33708   2.34137
 Alpha virt. eigenvalues --    2.34721   2.35506   2.36048   2.36453   2.37125
 Alpha virt. eigenvalues --    2.37379   2.38089   2.38921   2.39275   2.39574
 Alpha virt. eigenvalues --    2.39855   2.40306   2.40366   2.41089   2.41251
 Alpha virt. eigenvalues --    2.41961   2.42044   2.42210   2.43104   2.43408
 Alpha virt. eigenvalues --    2.44223   2.44541   2.44928   2.45260   2.45756
 Alpha virt. eigenvalues --    2.45822   2.46968   2.47223   2.47689   2.48228
 Alpha virt. eigenvalues --    2.48607   2.49181   2.50039   2.50843   2.51037
 Alpha virt. eigenvalues --    2.51392   2.51736   2.52788   2.53124   2.53503
 Alpha virt. eigenvalues --    2.54138   2.54380   2.54945   2.55282   2.55584
 Alpha virt. eigenvalues --    2.56228   2.56478   2.56512   2.57390   2.57917
 Alpha virt. eigenvalues --    2.58179   2.58346   2.58798   2.59316   2.60366
 Alpha virt. eigenvalues --    2.60798   2.61114   2.62077   2.62269   2.62699
 Alpha virt. eigenvalues --    2.62975   2.63396   2.63842   2.64318   2.64938
 Alpha virt. eigenvalues --    2.65606   2.66800   2.67811   2.68804   2.68981
 Alpha virt. eigenvalues --    2.69903   2.70493   2.70977   2.72296   2.73046
 Alpha virt. eigenvalues --    2.73431   2.74431   2.75880   2.76014   2.77090
 Alpha virt. eigenvalues --    2.77718   2.78233   2.79688   2.80471   2.81053
 Alpha virt. eigenvalues --    2.81772   2.82390   2.82998   2.83381   2.83966
 Alpha virt. eigenvalues --    2.84777   2.85745   2.86650   2.86830   2.87292
 Alpha virt. eigenvalues --    2.88360   2.89579   2.90690   2.91318   2.92016
 Alpha virt. eigenvalues --    2.92905   2.93136   2.93555   2.93989   2.94658
 Alpha virt. eigenvalues --    2.94845   2.95181   2.95733   2.96122   2.96471
 Alpha virt. eigenvalues --    2.96840   2.97201   2.97785   2.98153   2.98278
 Alpha virt. eigenvalues --    2.98723   2.99299   2.99463   2.99806   3.00499
 Alpha virt. eigenvalues --    3.00958   3.01514   3.01771   3.02087   3.02800
 Alpha virt. eigenvalues --    3.02867   3.03165   3.03362   3.03856   3.04603
 Alpha virt. eigenvalues --    3.04693   3.05028   3.05330   3.05504   3.05872
 Alpha virt. eigenvalues --    3.06244   3.06355   3.06883   3.07255   3.08028
 Alpha virt. eigenvalues --    3.08616   3.09184   3.09438   3.09711   3.10102
 Alpha virt. eigenvalues --    3.10716   3.11010   3.11080   3.11167   3.11557
 Alpha virt. eigenvalues --    3.12060   3.12365   3.12566   3.12770   3.13198
 Alpha virt. eigenvalues --    3.13430   3.13937   3.14255   3.14544   3.15111
 Alpha virt. eigenvalues --    3.15299   3.16069   3.16404   3.16943   3.17521
 Alpha virt. eigenvalues --    3.17661   3.18244   3.18592   3.19075   3.19227
 Alpha virt. eigenvalues --    3.19432   3.20562   3.21305   3.22661   3.23498
 Alpha virt. eigenvalues --    3.24178   3.24460   3.27279   3.27784   3.31826
 Alpha virt. eigenvalues --    3.35800   3.37972   3.38327   3.40925   3.42193
 Alpha virt. eigenvalues --    3.42892   3.44146   3.45823   3.46115   3.47194
 Alpha virt. eigenvalues --    3.47769   3.48336   3.49415   3.51455   3.51562
 Alpha virt. eigenvalues --    3.51803   3.52180   3.53203   3.54791   3.55997
 Alpha virt. eigenvalues --    3.56483   3.57076   3.57859   3.58908   3.60215
 Alpha virt. eigenvalues --    3.61151   3.62326   3.62714   3.63273   3.65471
 Alpha virt. eigenvalues --    3.66582   3.66810   3.67295   3.68472   3.69726
 Alpha virt. eigenvalues --    3.70028   3.71077   3.71854   3.72618   3.73101
 Alpha virt. eigenvalues --    3.75717   3.76099   3.76997   3.78577   3.78957
 Alpha virt. eigenvalues --    3.80681   3.82478   3.83612   3.84073   3.84701
 Alpha virt. eigenvalues --    3.85069   3.85925   3.87136   3.87790   3.88306
 Alpha virt. eigenvalues --    3.88445   3.89287   3.89779   3.90196   3.90358
 Alpha virt. eigenvalues --    3.91520   3.92715   3.95104   4.02042   4.06022
 Alpha virt. eigenvalues --    4.18522   4.21708   4.22806   4.23283   4.25542
 Alpha virt. eigenvalues --    4.27804   4.33455   4.35505   4.36484   4.37538
 Alpha virt. eigenvalues --    4.37959   4.42892   4.43796   4.49969   4.50799
 Alpha virt. eigenvalues --    4.52239   4.54447   4.59902   4.62246   4.64621
 Alpha virt. eigenvalues --    4.65603   4.66660   4.70922   4.76470   4.82029
 Alpha virt. eigenvalues --    4.82212   4.85462   4.86693   4.89285   4.96237
 Alpha virt. eigenvalues --    4.99043   5.01529   5.02374   5.03996   9.49865
 Alpha virt. eigenvalues --    9.57633   9.63654   9.64735   9.70602   9.72077
 Alpha virt. eigenvalues --   22.99690  23.19926  23.21421  23.23025  23.42418
 Alpha virt. eigenvalues --   23.43287  23.45841  23.49899  23.52212  23.60999
 Alpha virt. eigenvalues --   23.62812  23.65823  23.67468  23.68707  23.70644
 Alpha virt. eigenvalues --   23.72190  23.74303  23.75174  23.75668  23.77978
 Alpha virt. eigenvalues --   23.79350  23.81828  23.82454  23.84104  23.84478
 Alpha virt. eigenvalues --   23.86282  23.88539  23.89014  23.89813  23.90870
 Alpha virt. eigenvalues --   23.92135  23.92904  23.93271  23.94113  23.94751
 Alpha virt. eigenvalues --   23.95686  23.96000  23.96803  23.97036  23.97583
 Alpha virt. eigenvalues --   23.97834  23.98646  23.98976  23.99806  24.00622
 Alpha virt. eigenvalues --   24.01338  24.02969  24.03240  24.03658  24.05644
 Alpha virt. eigenvalues --   24.06767  24.07464  24.07566  24.08264  24.08733
 Alpha virt. eigenvalues --   24.08898  24.09749  24.09965  24.10371  24.11008
 Alpha virt. eigenvalues --   24.11877  24.13032  24.13837  24.14770  24.15002
 Alpha virt. eigenvalues --   24.18922  25.54563  25.55550  25.64568  25.69001
 Alpha virt. eigenvalues --   25.72806  25.75925  25.80298  25.82097  25.87898
 Alpha virt. eigenvalues --   25.89279  25.91604  25.98634  26.08575  26.23312
 Alpha virt. eigenvalues --   26.36745  26.42571  26.51184  26.73165 215.44156
 Alpha virt. eigenvalues --  215.53221 215.60063 215.61462 215.67940 215.69830
          Condensed to atoms (all electrons):
 Mulliken charges:
               1
     1  C   -0.437124
     2  C   -0.153150
     3  C   -0.477718
     4  C    0.162049
     5  C    0.210702
     6  C    0.028162
     7  C    0.104293
     8  C    0.031230
     9  C    0.044102
    10  C   -0.509064
    11  C    0.163160
    12  C    0.177693
    13  C    0.183359
    14  C    0.245614
    15  C    0.148069
    16  C   -0.665933
    17  C    0.022154
    18  C    0.033806
    19  C    0.014840
    20  C    0.027016
    21  C    0.025942
    22  C   -0.016211
    23  C    0.006116
    24  C    0.003257
    25  C    0.017860
    26  C    0.006312
    27  C    0.079081
    28  C    0.020248
    29  C    0.116838
    30  C    0.080951
    31  C   -0.644888
    32  C    0.164484
    33  C    0.021203
    34  C    0.187683
    35  C    0.000505
    36  C   -0.010817
    37  C   -0.004937
    38  C   -0.007374
    39  C   -0.002436
    40  C   -0.002363
    41  C   -0.001898
    42  C   -0.001890
    43  C    0.005017
    44  C    0.005458
    45  C   -0.009898
    46  C    0.001695
    47  C   -0.018317
    48  C    0.001167
    49  C    0.143071
    50  C    0.024346
    51  C    0.036192
    52  C    0.000528
    53  C    0.001658
    54  C    0.033683
    55  C    0.004609
    56  C   -0.006088
    57  C    0.001555
    58  C    0.001987
    59  C    0.002483
    60  C    0.003855
    61  C    0.003803
    62  C    0.001005
    63  C    0.000031
    64  C    0.008769
    65  C    0.003546
    66  C   -0.002675
    67  Cl   0.053298
    68  Cl   0.097840
    69  Cl   0.068678
    70  Cl   0.052996
    71  Cl   0.033102
    72  Cl   0.055679
 Sum of Mulliken charges =  -0.00000
 Mulliken charges with hydrogens summed into heavy atoms:
               1
     1  C   -0.437124
     2  C   -0.153150
     3  C   -0.477718
     4  C    0.162049
     5  C    0.210702
     6  C    0.028162
     7  C    0.104293
     8  C    0.031230
     9  C    0.044102
    10  C   -0.509064
    11  C    0.163160
    12  C    0.177693
    13  C    0.183359
    14  C    0.245614
    15  C    0.148069
    16  C   -0.665933
    17  C    0.022154
    18  C    0.033806
    19  C    0.014840
    20  C    0.027016
    21  C    0.025942
    22  C   -0.016211
    23  C    0.006116
    24  C    0.003257
    25  C    0.017860
    26  C    0.006312
    27  C    0.079081
    28  C    0.020248
    29  C    0.116838
    30  C    0.080951
    31  C   -0.644888
    32  C    0.164484
    33  C    0.021203
    34  C    0.187683
    35  C    0.000505
    36  C   -0.010817
    37  C   -0.004937
    38  C   -0.007374
    39  C   -0.002436
    40  C   -0.002363
    41  C   -0.001898
    42  C   -0.001890
    43  C    0.005017
    44  C    0.005458
    45  C   -0.009898
    46  C    0.001695
    47  C   -0.018317
    48  C    0.001167
    49  C    0.143071
    50  C    0.024346
    51  C    0.036192
    52  C    0.000528
    53  C    0.001658
    54  C    0.033683
    55  C    0.004609
    56  C   -0.006088
    57  C    0.001555
    58  C    0.001987
    59  C    0.002483
    60  C    0.003855
    61  C    0.003803
    62  C    0.001005
    63  C    0.000031
    64  C    0.008769
    65  C    0.003546
    66  C   -0.002675
    67  Cl   0.053298
    68  Cl   0.097840
    69  Cl   0.068678
    70  Cl   0.052996
    71  Cl   0.033102
    72  Cl   0.055679
 Electronic spatial extent (au):  <R**2>=          32418.2291
 Charge=             -0.0000 electrons
 Dipole moment (field-independent basis, Debye):
    X=             -4.6160    Y=             -1.8328    Z=              1.3067  Tot=              5.1356
 Quadrupole moment (field-independent basis, Debye-Ang):
   XX=           -458.6943   YY=           -457.4130   ZZ=           -445.1664
   XY=              0.9133   XZ=              2.3332   YZ=              3.3002
 Traceless Quadrupole moment (field-independent basis, Debye-Ang):
   XX=             -4.9364   YY=             -3.6551   ZZ=              8.5915
   XY=              0.9133   XZ=              2.3332   YZ=              3.3002
 Octapole moment (field-independent basis, Debye-Ang**2):
  XXX=             83.2381  YYY=             -6.3937  ZZZ=            -17.0120  XYY=             32.4462
  XXY=             23.0807  XXZ=             -7.5535  XZZ=             40.6314  YZZ=             14.7993
  YYZ=              2.2879  XYZ=             -7.2409
 Hexadecapole moment (field-independent basis, Debye-Ang**3):
 XXXX=         -22307.4829 YYYY=         -15065.2384 ZZZZ=         -10455.9753 XXXY=             -0.2961
 XXXZ=            -44.1295 YYYX=            -22.3367 YYYZ=            -14.7092 ZZZX=            -10.2975
 ZZZY=            -40.0909 XXYY=          -6191.7681 XXZZ=          -5475.4020 YYZZ=          -4242.8692
 XXYZ=            -19.0103 YYXZ=            -36.0854 ZZXY=             12.7236
 N-N= 1.377478828933D+04 E-N=-3.994006370792D+04  KE= 5.260058014052D+03
 No NMR shielding tensors so no spin-rotation constants.
 Leave Link  601 at Sat Jul 16 23:02:28 2022, MaxMem=  1342177280 cpu:              79.6 elap:               1.9
 (Enter /home/mkliu/g16/l9999.exe)
 1\1\GINC-NODE02\FOpt\RB3LYP\6-311G(d,p)\C66Cl6\MKLIU\16-Jul-2022\0\\#P
  opt b3lyp/6-311G(d, p) empiricaldispersion=GD3\\force\\0,1\C,-1.31627
 46205,1.8684812336,-3.8876899591\C,0.2048345685,2.2922127187,-4.104449
 4482\C,0.9592545372,0.8737540665,-4.3016999253\C,-1.3332626394,0.36816
 89242,-3.9581341555\C,-0.1000738136,-0.1866480738,-4.2142914046\C,-2.2
 034982569,-0.1686883949,-2.9972847565\C,-1.9360133872,2.084014681,-2.5
 306296578\C,-2.6536569061,0.9342135086,-2.1549753529\C,-1.440959948,2.
 9632260115,-1.5558311485\C,0.8815471547,2.9278761035,-2.7883353091\C,-
 0.0326826435,3.3044782673,-1.6104774135\C,1.7974868708,0.7136449029,-3
 .0602962432\C,1.8213973845,1.8462537335,-2.3060550484\C,2.2012151993,-
 0.5475094521,-2.5234874623\C,0.1893437498,-1.4302023525,-3.6654314461\
 C,1.5893144746,-1.8010427907,-3.1724633307\C,-1.9742658198,-1.43457767
 12,-2.4337943937\C,-0.7777896023,-2.0899144608,-2.8824504518\C,-2.4957
 245523,-1.7323513975,-1.0937936913\C,-3.094059081,0.7091051464,-0.8319
 076086\C,-3.1045436335,-0.6604370066,-0.3017247164\C,-2.0885312339,2.8
 983925288,-0.2914555734\C,-2.9612290035,1.8086757947,0.0454180363\C,-1
 .4255368449,3.3110542948,0.915260807\C,0.6243472848,3.4912802679,-0.40
 96977935\C,-0.0652833464,3.5878393336,0.8533265126\C,2.3921834763,1.85
 22180129,-1.0087744879\C,1.9281744518,2.8503976014,-0.1227439457\C,2.8
 256947627,-0.5865910642,-1.2840404866\C,2.9783950471,0.6320751499,-0.5
 067992849\C,3.1228221204,-1.9455341826,-0.625167478\C,1.2886543593,-2.
 8271151135,-2.1052882782\C,-0.1199540367,-3.0524168013,-2.0365113761\C
 ,2.0405818442,-2.9556812924,-0.976045456\C,-1.9508377275,-2.8409147891
 ,-0.4092511081\C,-0.7230998206,-3.4795268396,-0.8728632662\C,-1.944568
 5503,-2.9194247564,1.0207636954\C,-3.1573633014,-0.8048154623,1.102853
 0631\C,-2.5506363448,-1.9220127016,1.7686494643\C,-2.9101742636,1.6175
 986343,1.4745548294\C,-1.9510576256,2.5494128804,2.0263137787\C,-3.026
 8914601,0.3435784631,1.9917204626\C,-1.1147423197,2.1415019618,3.06312
 76238\C,0.8111705596,3.1247505117,1.9042713728\C,2.0380844387,2.665454
 5867,1.2664583555\C,0.3025557969,2.438590024,2.9972401399\C,3.22118176
 92,0.5527260089,0.8906390975\C,2.7104774479,1.5380753381,1.7704460892\
 C,3.0140738612,-1.8995274832,0.8909533603\C,3.1765095535,-0.735793983,
 1.5894979506\C,1.4544891853,-3.4855655472,0.2167799777\C,0.0864608627,
 -3.7920599667,0.2669933349\C,-0.6750151193,-3.4849432325,1.455166042\C
 ,2.0905829872,-2.8865475898,1.3649581787\C,-0.0472962423,-2.9806771532
 ,2.5867527573\C,1.3739682492,-2.6811945731,2.5493777808\C,-1.938788867
 3,-1.4590923559,3.001721687\C,-2.2336102308,-0.0522877339,3.1358786903
 \C,-1.2670315901,0.8227562735,3.6420885042\C,-0.6958593902,-1.95826327
 71,3.3867816043\C,1.025601347,1.2984268304,3.5519735657\C,2.2154184585
 ,0.876968428,2.9741012989\C,2.5061636125,-0.5330786364,2.8518344161\C,
 1.5976536636,-1.4849209519,3.3187888972\C,0.0474903234,0.3145526013,3.
 981778483\C,0.3260871683,-1.0462745334,3.8649731912\Cl,-2.5147481883,2
 .5838898572,-5.0872312601\Cl,0.3820073377,3.3464679645,-5.5286557892\C
 l,2.0052916555,0.7251866485,-5.7770973874\Cl,2.6870853755,-2.505814255
 3,-4.4655876072\Cl,4.8142497682,-2.4951504917,-1.1400958796\Cl,1.89371
 98139,4.4375741184,-3.151639577\\Version=ES64L-G16RevA.03\State=1-A\HF
 =-5276.7648586\RMSD=9.400e-09\RMSF=1.979e-05\Dipole=-0.9429764,-0.4183
 832,1.7372698\Quadrupole=0.4708272,0.8967862,-1.3676134,4.1431619,2.91
 15062,3.6368744\PG=C01 [X(C66Cl6)]\\@


 A CHEMICAL PHYSICIST MAKES PRECISE MEASUREMENTS ON IMPURE COMPOUNDS.
 A THEORETICAL PHYSICAL CHEMIST MAKES IMPRECISE
     MEASUREMENTS ON PURE COMPOUNDS.
 AN EXPERIMENTAL PHYSICAL CHEMIST MAKES IMPRECISE
     MEASUREMENTS ON IMPURE COMPOUNDS.
 Job cpu time:       2 days 23 hours 25 minutes 36.8 seconds.
 Elapsed time:       0 days  1 hours 29 minutes 28.0 seconds.
 File lengths (MBytes):  RWF=   1106 Int=      0 D2E=      0 Chk=    136 Scr=      1
 Normal termination of Gaussian 16 at Sat Jul 16 23:02:30 2022.
