 Entering Gaussian System, Link 0=g16
 Input=dn2vp30v16osg_addon_7.gjf
 Output=dn2vp30v16osg_addon_7.log
 Initial command:
 /home/mkliu/g16/l1.exe "/data/scratch/Gau-59740.inp" -scrdir="/data/scratch/"
 Entering Link 1 = /home/mkliu/g16/l1.exe PID=     59741.
  
 Copyright (c) 1988,1990,1992,1993,1995,1998,2003,2009,2016,
            Gaussian, Inc.  All Rights Reserved.
  
 This is part of the Gaussian(R) 16 program.  It is based on
 the Gaussian(R) 09 system (copyright 2009, Gaussian, Inc.),
 the Gaussian(R) 03 system (copyright 2003, Gaussian, Inc.),
 the Gaussian(R) 98 system (copyright 1998, Gaussian, Inc.),
 the Gaussian(R) 94 system (copyright 1995, Gaussian, Inc.),
 the Gaussian 92(TM) system (copyright 1992, Gaussian, Inc.),
 the Gaussian 90(TM) system (copyright 1990, Gaussian, Inc.),
 the Gaussian 88(TM) system (copyright 1988, Gaussian, Inc.),
 the Gaussian 86(TM) system (copyright 1986, Carnegie Mellon
 University), and the Gaussian 82(TM) system (copyright 1983,
 Carnegie Mellon University). Gaussian is a federally registered
 trademark of Gaussian, Inc.
  
 This software contains proprietary and confidential information,
 including trade secrets, belonging to Gaussian, Inc.
  
 This software is provided under written license and may be
 used, copied, transmitted, or stored only in accord with that
 written license.
  
 The following legend is applicable only to US Government
 contracts under FAR:
  
                    RESTRICTED RIGHTS LEGEND
  
 Use, reproduction and disclosure by the US Government is
 subject to restrictions as set forth in subparagraphs (a)
 and (c) of the Commercial Computer Software - Restricted
 Rights clause in FAR 52.227-19.
  
 Gaussian, Inc.
 340 Quinnipiac St., Bldg. 40, Wallingford CT 06492
  
  
 ---------------------------------------------------------------
 Warning -- This program may not be used in any manner that
 competes with the business of Gaussian, Inc. or will provide
 assistance to any competitor of Gaussian, Inc.  The licensee
 of this program is prohibited from giving any competitor of
 Gaussian, Inc. access to this program.  By using this program,
 the user acknowledges that Gaussian, Inc. is engaged in the
 business of creating and licensing software in the field of
 computational chemistry and represents and warrants to the
 licensee that it is not a competitor of Gaussian, Inc. and that
 it will not use this program in any manner prohibited above.
 ---------------------------------------------------------------
  

 Cite this work as:
 Gaussian 16, Revision A.03,
 M. J. Frisch, G. W. Trucks, H. B. Schlegel, G. E. Scuseria, 
 M. A. Robb, J. R. Cheeseman, G. Scalmani, V. Barone, 
 G. A. Petersson, H. Nakatsuji, X. Li, M. Caricato, A. V. Marenich, 
 J. Bloino, B. G. Janesko, R. Gomperts, B. Mennucci, H. P. Hratchian, 
 J. V. Ortiz, A. F. Izmaylov, J. L. Sonnenberg, D. Williams-Young, 
 F. Ding, F. Lipparini, F. Egidi, J. Goings, B. Peng, A. Petrone, 
 T. Henderson, D. Ranasinghe, V. G. Zakrzewski, J. Gao, N. Rega, 
 G. Zheng, W. Liang, M. Hada, M. Ehara, K. Toyota, R. Fukuda, 
 J. Hasegawa, M. Ishida, T. Nakajima, Y. Honda, O. Kitao, H. Nakai, 
 T. Vreven, K. Throssell, J. A. Montgomery, Jr., J. E. Peralta, 
 F. Ogliaro, M. J. Bearpark, J. J. Heyd, E. N. Brothers, K. N. Kudin, 
 V. N. Staroverov, T. A. Keith, R. Kobayashi, J. Normand, 
 K. Raghavachari, A. P. Rendell, J. C. Burant, S. S. Iyengar, 
 J. Tomasi, M. Cossi, J. M. Millam, M. Klene, C. Adamo, R. Cammi, 
 J. W. Ochterski, R. L. Martin, K. Morokuma, O. Farkas, 
 J. B. Foresman, and D. J. Fox, Gaussian, Inc., Wallingford CT, 2016.
 
 ******************************************
 Gaussian 16:  ES64L-G16RevA.03 25-Dec-2016
                16-Jul-2022 
 ******************************************
 %mem=10GB
 %chk=dn2vp30v16osg_addon_7.chk
 %nprocshared=48
 Will use up to   48 processors via shared memory.
 -------------------------------------------------
 #P opt b3lyp/6-311G(d, p) empiricaldispersion=GD3
 -------------------------------------------------
 1/18=20,19=15,26=3,38=1/1,3;
 2/9=110,12=2,17=6,18=5,40=1/2;
 3/5=4,6=6,7=101,11=2,25=1,30=1,71=1,74=-5,124=31/1,2,3;
 4//1;
 5/5=2,38=5/2;
 6/7=2,8=2,9=2,10=2,28=1/1;
 7//1,2,3,16;
 1/18=20,19=15,26=3/3(2);
 2/9=110/2;
 99//99;
 2/9=110/2;
 3/5=4,6=6,7=101,11=2,25=1,30=1,71=1,74=-5,124=31/1,2,3;
 4/5=5,16=3,69=1/1;
 5/5=2,38=5/2;
 7//1,2,3,16;
 1/18=20,19=15,26=3/3(-5);
 2/9=110/2;
 6/7=2,8=2,9=2,10=2,19=2,28=1/1;
 99/9=1/99;
 Leave Link    1 at Sat Jul 16 16:25:07 2022, MaxMem=  1342177280 cpu:               3.0 elap:               0.1
 (Enter /home/mkliu/g16/l101.exe)
 -----
 force
 -----
 Symbolic Z-matrix:
 Charge =  0 Multiplicity = 2
 C                    -1.30333   1.86601  -3.87872 
 C                     0.19911   2.25605  -4.08454 
 C                     0.93928   0.884    -4.28165 
 C                    -1.32939   0.36769  -3.9285 
 C                    -0.09729  -0.17432  -4.1636 
 C                    -2.18067  -0.1646   -2.96257 
 C                    -1.91585   2.07164  -2.53417 
 C                    -2.61107   0.92362  -2.13149 
 C                    -1.36749   2.89575  -1.543 
 C                     0.85127   2.91187  -2.81708 
 C                     0.01968   3.25626  -1.59925 
 C                     1.74959   0.69745  -3.03233 
 C                     1.78593   1.85457  -2.28271 
 C                     2.12508  -0.52744  -2.49916 
 C                     0.1852   -1.41453  -3.61046 
 C                     1.57686  -1.791    -3.1461 
 C                    -1.9545   -1.43356  -2.39531 
 C                    -0.77891  -2.08077  -2.84771 
 C                    -2.48684  -1.7437   -1.08481 
 C                    -3.06891   0.67485  -0.81696 
 C                    -3.09043  -0.68145  -0.30322 
 C                    -2.00905   2.8111   -0.29725 
 C                    -2.90394   1.75767   0.04851 
 C                    -1.38163   3.23542   0.89845 
 C                     0.67344   3.46361  -0.41101 
 C                    -0.0348    3.51677   0.83847 
 C                     2.33688   1.8477   -1.0123 
 C                     2.1063    3.05228  -0.13082 
 C                     2.73976  -0.55661  -1.24154 
 C                     2.87261   0.65454  -0.51825 
 C                     2.88012  -1.84568  -0.55344 
 C                     1.27553  -2.82779  -2.11213 
 C                    -0.11547  -3.04823  -2.02083 
 C                     2.03281  -2.92171  -0.96408 
 C                    -1.93181  -2.84492  -0.40709 
 C                    -0.72582  -3.47257  -0.85479 
 C                    -1.93802  -2.93219   1.0278 
 C                    -3.14915  -0.82516   1.09311 
 C                    -2.55178  -1.94674   1.76447 
 C                    -2.89095   1.57251   1.45918 
 C                    -1.93783   2.49878   2.00145 
 C                    -3.03472   0.30158   1.97936 
 C                    -1.12875   2.09522   3.03819 
 C                     0.81276   3.07646   1.90027 
 C                     2.04688   2.66839   1.31537 
 C                     0.27596   2.39542   2.98069 
 C                     3.43271   0.61368   0.89249 
 C                     2.68438   1.56679   1.7854 
 C                     2.98336  -1.85699   0.86713 
 C                     3.17284  -0.6925    1.5808 
 C                     1.45103  -3.50341   0.23082 
 C                     0.09427  -3.78742   0.27632 
 C                    -0.68341  -3.49232   1.44925 
 C                     2.07591  -2.87909   1.35924 
 C                    -0.05937  -2.97314   2.57175 
 C                     1.34716  -2.65656   2.5136 
 C                    -1.95636  -1.48443   2.98934 
 C                    -2.25814  -0.08433   3.1206 
 C                    -1.3047    0.78729   3.61877 
 C                    -0.71372  -1.96563   3.3548 
 C                     0.97635   1.27604   3.51799 
 C                     2.16172   0.88464   2.92591 
 C                     2.46688  -0.51144   2.79583 
 C                     1.55883  -1.45951   3.26679 
 C                     0.00631   0.29922   3.94163 
 C                     0.30166  -1.04719   3.81207 
 Cl                   -2.40255   2.63474  -5.07159 
 Cl                    0.3917    3.26562  -5.53408 
 Cl                    1.956     0.73904  -5.73019 
 Cl                    2.70149  -2.38165  -4.4283 
 Cl                    1.77732   4.39845  -3.2461 
 Cl                    3.38104   4.28656  -0.41993 
 Cl                    5.19749   1.03772   0.75855 
 
 ITRead=  0  0  0  0  0  0  0  0  0  0  0  0  0  0  0  0  0  0  0  0
 ITRead=  0  0  0  0  0  0  0  0  0  0  0  0  0  0  0  0  0  0  0  0
 ITRead=  0  0  0  0  0  0  0  0  0  0  0  0  0  0  0  0  0  0  0  0
 ITRead=  0  0  0  0  0  0  0  0  0  0  0  0  0
 MicOpt= -1 -1 -1 -1 -1 -1 -1 -1 -1 -1 -1 -1 -1 -1 -1 -1 -1 -1 -1 -1
 MicOpt= -1 -1 -1 -1 -1 -1 -1 -1 -1 -1 -1 -1 -1 -1 -1 -1 -1 -1 -1 -1
 MicOpt= -1 -1 -1 -1 -1 -1 -1 -1 -1 -1 -1 -1 -1 -1 -1 -1 -1 -1 -1 -1
 MicOpt= -1 -1 -1 -1 -1 -1 -1 -1 -1 -1 -1 -1 -1
 NAtoms=     73 NQM=       73 NQMF=       0 NMMI=      0 NMMIF=      0
                NMic=       0 NMicF=      0.
                    Isotopes and Nuclear Properties:
 (Nuclear quadrupole moments (NQMom) in fm**2, nuclear magnetic moments (NMagM)
  in nuclear magnetons)

  Atom         1           2           3           4           5           6           7           8           9          10
 IAtWgt=          12          12          12          12          12          12          12          12          12          12
 AtmWgt=  12.0000000  12.0000000  12.0000000  12.0000000  12.0000000  12.0000000  12.0000000  12.0000000  12.0000000  12.0000000
 NucSpn=           0           0           0           0           0           0           0           0           0           0
 AtZEff=  -0.0000000  -0.0000000  -0.0000000  -0.0000000  -0.0000000  -0.0000000  -0.0000000  -0.0000000  -0.0000000  -0.0000000
 NQMom=    0.0000000   0.0000000   0.0000000   0.0000000   0.0000000   0.0000000   0.0000000   0.0000000   0.0000000   0.0000000
 NMagM=    0.0000000   0.0000000   0.0000000   0.0000000   0.0000000   0.0000000   0.0000000   0.0000000   0.0000000   0.0000000
 AtZNuc=   6.0000000   6.0000000   6.0000000   6.0000000   6.0000000   6.0000000   6.0000000   6.0000000   6.0000000   6.0000000

  Atom        11          12          13          14          15          16          17          18          19          20
 IAtWgt=          12          12          12          12          12          12          12          12          12          12
 AtmWgt=  12.0000000  12.0000000  12.0000000  12.0000000  12.0000000  12.0000000  12.0000000  12.0000000  12.0000000  12.0000000
 NucSpn=           0           0           0           0           0           0           0           0           0           0
 AtZEff=  -0.0000000  -0.0000000  -0.0000000  -0.0000000  -0.0000000  -0.0000000  -0.0000000  -0.0000000  -0.0000000  -0.0000000
 NQMom=    0.0000000   0.0000000   0.0000000   0.0000000   0.0000000   0.0000000   0.0000000   0.0000000   0.0000000   0.0000000
 NMagM=    0.0000000   0.0000000   0.0000000   0.0000000   0.0000000   0.0000000   0.0000000   0.0000000   0.0000000   0.0000000
 AtZNuc=   6.0000000   6.0000000   6.0000000   6.0000000   6.0000000   6.0000000   6.0000000   6.0000000   6.0000000   6.0000000

  Atom        21          22          23          24          25          26          27          28          29          30
 IAtWgt=          12          12          12          12          12          12          12          12          12          12
 AtmWgt=  12.0000000  12.0000000  12.0000000  12.0000000  12.0000000  12.0000000  12.0000000  12.0000000  12.0000000  12.0000000
 NucSpn=           0           0           0           0           0           0           0           0           0           0
 AtZEff=  -0.0000000  -0.0000000  -0.0000000  -0.0000000  -0.0000000  -0.0000000  -0.0000000  -0.0000000  -0.0000000  -0.0000000
 NQMom=    0.0000000   0.0000000   0.0000000   0.0000000   0.0000000   0.0000000   0.0000000   0.0000000   0.0000000   0.0000000
 NMagM=    0.0000000   0.0000000   0.0000000   0.0000000   0.0000000   0.0000000   0.0000000   0.0000000   0.0000000   0.0000000
 AtZNuc=   6.0000000   6.0000000   6.0000000   6.0000000   6.0000000   6.0000000   6.0000000   6.0000000   6.0000000   6.0000000

  Atom        31          32          33          34          35          36          37          38          39          40
 IAtWgt=          12          12          12          12          12          12          12          12          12          12
 AtmWgt=  12.0000000  12.0000000  12.0000000  12.0000000  12.0000000  12.0000000  12.0000000  12.0000000  12.0000000  12.0000000
 NucSpn=           0           0           0           0           0           0           0           0           0           0
 AtZEff=  -0.0000000  -0.0000000  -0.0000000  -0.0000000  -0.0000000  -0.0000000  -0.0000000  -0.0000000  -0.0000000  -0.0000000
 NQMom=    0.0000000   0.0000000   0.0000000   0.0000000   0.0000000   0.0000000   0.0000000   0.0000000   0.0000000   0.0000000
 NMagM=    0.0000000   0.0000000   0.0000000   0.0000000   0.0000000   0.0000000   0.0000000   0.0000000   0.0000000   0.0000000
 AtZNuc=   6.0000000   6.0000000   6.0000000   6.0000000   6.0000000   6.0000000   6.0000000   6.0000000   6.0000000   6.0000000

  Atom        41          42          43          44          45          46          47          48          49          50
 IAtWgt=          12          12          12          12          12          12          12          12          12          12
 AtmWgt=  12.0000000  12.0000000  12.0000000  12.0000000  12.0000000  12.0000000  12.0000000  12.0000000  12.0000000  12.0000000
 NucSpn=           0           0           0           0           0           0           0           0           0           0
 AtZEff=  -0.0000000  -0.0000000  -0.0000000  -0.0000000  -0.0000000  -0.0000000  -0.0000000  -0.0000000  -0.0000000  -0.0000000
 NQMom=    0.0000000   0.0000000   0.0000000   0.0000000   0.0000000   0.0000000   0.0000000   0.0000000   0.0000000   0.0000000
 NMagM=    0.0000000   0.0000000   0.0000000   0.0000000   0.0000000   0.0000000   0.0000000   0.0000000   0.0000000   0.0000000
 AtZNuc=   6.0000000   6.0000000   6.0000000   6.0000000   6.0000000   6.0000000   6.0000000   6.0000000   6.0000000   6.0000000

  Atom        51          52          53          54          55          56          57          58          59          60
 IAtWgt=          12          12          12          12          12          12          12          12          12          12
 AtmWgt=  12.0000000  12.0000000  12.0000000  12.0000000  12.0000000  12.0000000  12.0000000  12.0000000  12.0000000  12.0000000
 NucSpn=           0           0           0           0           0           0           0           0           0           0
 AtZEff=  -0.0000000  -0.0000000  -0.0000000  -0.0000000  -0.0000000  -0.0000000  -0.0000000  -0.0000000  -0.0000000  -0.0000000
 NQMom=    0.0000000   0.0000000   0.0000000   0.0000000   0.0000000   0.0000000   0.0000000   0.0000000   0.0000000   0.0000000
 NMagM=    0.0000000   0.0000000   0.0000000   0.0000000   0.0000000   0.0000000   0.0000000   0.0000000   0.0000000   0.0000000
 AtZNuc=   6.0000000   6.0000000   6.0000000   6.0000000   6.0000000   6.0000000   6.0000000   6.0000000   6.0000000   6.0000000

  Atom        61          62          63          64          65          66          67          68          69          70
 IAtWgt=          12          12          12          12          12          12          35          35          35          35
 AtmWgt=  12.0000000  12.0000000  12.0000000  12.0000000  12.0000000  12.0000000  34.9688527  34.9688527  34.9688527  34.9688527
 NucSpn=           0           0           0           0           0           0           3           3           3           3
 AtZEff=  -0.0000000  -0.0000000  -0.0000000  -0.0000000  -0.0000000  -0.0000000  -0.0000000  -0.0000000  -0.0000000  -0.0000000
 NQMom=    0.0000000   0.0000000   0.0000000   0.0000000   0.0000000   0.0000000  -8.1650000  -8.1650000  -8.1650000  -8.1650000
 NMagM=    0.0000000   0.0000000   0.0000000   0.0000000   0.0000000   0.0000000   0.8218740   0.8218740   0.8218740   0.8218740
 AtZNuc=   6.0000000   6.0000000   6.0000000   6.0000000   6.0000000   6.0000000  17.0000000  17.0000000  17.0000000  17.0000000

  Atom        71          72          73
 IAtWgt=          35          35          35
 AtmWgt=  34.9688527  34.9688527  34.9688527
 NucSpn=           3           3           3
 AtZEff=  -0.0000000  -0.0000000  -0.0000000
 NQMom=   -8.1650000  -8.1650000  -8.1650000
 NMagM=    0.8218740   0.8218740   0.8218740
 AtZNuc=  17.0000000  17.0000000  17.0000000
 Leave Link  101 at Sat Jul 16 16:25:08 2022, MaxMem=  1342177280 cpu:              28.6 elap:               0.6
 (Enter /home/mkliu/g16/l103.exe)

 GradGradGradGradGradGradGradGradGradGradGradGradGradGradGradGradGradGrad
 Berny optimization.
 Initialization pass.
                           ----------------------------
                           !    Initial Parameters    !
                           ! (Angstroms and Degrees)  !
 --------------------------                            --------------------------
 ! Name  Definition              Value          Derivative Info.                !
 --------------------------------------------------------------------------------
 ! R1    R(1,2)                  1.5658         estimate D2E/DX2                !
 ! R2    R(1,4)                  1.4994         estimate D2E/DX2                !
 ! R3    R(1,7)                  1.4917         estimate D2E/DX2                !
 ! R4    R(1,67)                 1.795          estimate D2E/DX2                !
 ! R5    R(2,3)                  1.5714         estimate D2E/DX2                !
 ! R6    R(2,10)                 1.569          estimate D2E/DX2                !
 ! R7    R(2,68)                 1.7769         estimate D2E/DX2                !
 ! R8    R(3,5)                  1.4861         estimate D2E/DX2                !
 ! R9    R(3,12)                 1.5007         estimate D2E/DX2                !
 ! R10   R(3,69)                 1.7757         estimate D2E/DX2                !
 ! R11   R(4,5)                  1.3664         estimate D2E/DX2                !
 ! R12   R(4,6)                  1.3932         estimate D2E/DX2                !
 ! R13   R(5,15)                 1.387          estimate D2E/DX2                !
 ! R14   R(6,8)                  1.4353         estimate D2E/DX2                !
 ! R15   R(6,17)                 1.4083         estimate D2E/DX2                !
 ! R16   R(7,8)                  1.4012         estimate D2E/DX2                !
 ! R17   R(7,9)                  1.4008         estimate D2E/DX2                !
 ! R18   R(8,20)                 1.414          estimate D2E/DX2                !
 ! R19   R(9,11)                 1.4344         estimate D2E/DX2                !
 ! R20   R(9,22)                 1.4038         estimate D2E/DX2                !
 ! R21   R(10,11)                1.5144         estimate D2E/DX2                !
 ! R22   R(10,13)                1.509          estimate D2E/DX2                !
 ! R23   R(10,71)                1.8032         estimate D2E/DX2                !
 ! R24   R(11,25)                1.372          estimate D2E/DX2                !
 ! R25   R(12,13)                1.3792         estimate D2E/DX2                !
 ! R26   R(12,14)                1.3877         estimate D2E/DX2                !
 ! R27   R(13,27)                1.3847         estimate D2E/DX2                !
 ! R28   R(14,16)                1.5217         estimate D2E/DX2                !
 ! R29   R(14,29)                1.4001         estimate D2E/DX2                !
 ! R30   R(15,16)                1.5146         estimate D2E/DX2                !
 ! R31   R(15,18)                1.3983         estimate D2E/DX2                !
 ! R32   R(16,32)                1.4949         estimate D2E/DX2                !
 ! R33   R(16,70)                1.8049         estimate D2E/DX2                !
 ! R34   R(17,18)                1.4162         estimate D2E/DX2                !
 ! R35   R(17,19)                1.4481         estimate D2E/DX2                !
 ! R36   R(18,33)                1.4352         estimate D2E/DX2                !
 ! R37   R(19,21)                1.4504         estimate D2E/DX2                !
 ! R38   R(19,35)                1.4071         estimate D2E/DX2                !
 ! R39   R(20,21)                1.4505         estimate D2E/DX2                !
 ! R40   R(20,23)                1.396          estimate D2E/DX2                !
 ! R41   R(21,38)                1.4049         estimate D2E/DX2                !
 ! R42   R(22,23)                1.4248         estimate D2E/DX2                !
 ! R43   R(22,24)                1.4154         estimate D2E/DX2                !
 ! R44   R(23,40)                1.4228         estimate D2E/DX2                !
 ! R45   R(24,26)                1.3772         estimate D2E/DX2                !
 ! R46   R(24,41)                1.4383         estimate D2E/DX2                !
 ! R47   R(25,26)                1.4372         estimate D2E/DX2                !
 ! R48   R(25,28)                1.5168         estimate D2E/DX2                !
 ! R49   R(26,44)                1.4282         estimate D2E/DX2                !
 ! R50   R(27,28)                1.5104         estimate D2E/DX2                !
 ! R51   R(27,30)                1.3981         estimate D2E/DX2                !
 ! R52   R(28,45)                1.4975         estimate D2E/DX2                !
 ! R53   R(28,72)                1.7978         estimate D2E/DX2                !
 ! R54   R(29,30)                1.4169         estimate D2E/DX2                !
 ! R55   R(29,31)                1.468          estimate D2E/DX2                !
 ! R56   R(30,47)                1.5184         estimate D2E/DX2                !
 ! R57   R(31,34)                1.4298         estimate D2E/DX2                !
 ! R58   R(31,49)                1.4244         estimate D2E/DX2                !
 ! R59   R(32,33)                1.4113         estimate D2E/DX2                !
 ! R60   R(32,34)                1.3785         estimate D2E/DX2                !
 ! R61   R(33,36)                1.3828         estimate D2E/DX2                !
 ! R62   R(34,51)                1.4507         estimate D2E/DX2                !
 ! R63   R(35,36)                1.4314         estimate D2E/DX2                !
 ! R64   R(35,37)                1.4376         estimate D2E/DX2                !
 ! R65   R(36,52)                1.4322         estimate D2E/DX2                !
 ! R66   R(37,39)                1.375          estimate D2E/DX2                !
 ! R67   R(37,53)                1.4372         estimate D2E/DX2                !
 ! R68   R(38,39)                1.4372         estimate D2E/DX2                !
 ! R69   R(38,42)                1.4381         estimate D2E/DX2                !
 ! R70   R(39,57)                1.4383         estimate D2E/DX2                !
 ! R71   R(40,41)                1.4354         estimate D2E/DX2                !
 ! R72   R(40,42)                1.3808         estimate D2E/DX2                !
 ! R73   R(41,43)                1.3756         estimate D2E/DX2                !
 ! R74   R(42,58)                1.4333         estimate D2E/DX2                !
 ! R75   R(43,46)                1.4376         estimate D2E/DX2                !
 ! R76   R(43,59)                1.4418         estimate D2E/DX2                !
 ! R77   R(44,45)                1.4254         estimate D2E/DX2                !
 ! R78   R(44,46)                1.3854         estimate D2E/DX2                !
 ! R79   R(45,48)                1.3568         estimate D2E/DX2                !
 ! R80   R(46,61)                1.4256         estimate D2E/DX2                !
 ! R81   R(47,48)                1.5052         estimate D2E/DX2                !
 ! R82   R(47,50)                1.4991         estimate D2E/DX2                !
 ! R83   R(47,73)                1.8199         estimate D2E/DX2                !
 ! R84   R(48,62)                1.428          estimate D2E/DX2                !
 ! R85   R(49,50)                1.3789         estimate D2E/DX2                !
 ! R86   R(49,54)                1.4527         estimate D2E/DX2                !
 ! R87   R(50,63)                1.4169         estimate D2E/DX2                !
 ! R88   R(51,52)                1.3869         estimate D2E/DX2                !
 ! R89   R(51,54)                1.433          estimate D2E/DX2                !
 ! R90   R(52,53)                1.4379         estimate D2E/DX2                !
 ! R91   R(53,55)                1.3853         estimate D2E/DX2                !
 ! R92   R(54,56)                1.3832         estimate D2E/DX2                !
 ! R93   R(55,56)                1.4429         estimate D2E/DX2                !
 ! R94   R(55,60)                1.434          estimate D2E/DX2                !
 ! R95   R(56,64)                1.43           estimate D2E/DX2                !
 ! R96   R(57,58)                1.4383         estimate D2E/DX2                !
 ! R97   R(57,60)                1.3818         estimate D2E/DX2                !
 ! R98   R(58,59)                1.3845         estimate D2E/DX2                !
 ! R99   R(59,65)                1.4357         estimate D2E/DX2                !
 ! R100  R(60,66)                1.4435         estimate D2E/DX2                !
 ! R101  R(61,62)                1.3816         estimate D2E/DX2                !
 ! R102  R(61,65)                1.4404         estimate D2E/DX2                !
 ! R103  R(62,63)                1.435          estimate D2E/DX2                !
 ! R104  R(63,64)                1.3947         estimate D2E/DX2                !
 ! R105  R(64,66)                1.431          estimate D2E/DX2                !
 ! R106  R(65,66)                1.3845         estimate D2E/DX2                !
 ! A1    A(2,1,4)              105.1431         estimate D2E/DX2                !
 ! A2    A(2,1,7)              118.5629         estimate D2E/DX2                !
 ! A3    A(2,1,67)             113.1756         estimate D2E/DX2                !
 ! A4    A(4,1,7)               99.2378         estimate D2E/DX2                !
 ! A5    A(4,1,67)             113.2813         estimate D2E/DX2                !
 ! A6    A(7,1,67)             106.768          estimate D2E/DX2                !
 ! A7    A(1,2,3)              104.5339         estimate D2E/DX2                !
 ! A8    A(1,2,10)             113.3755         estimate D2E/DX2                !
 ! A9    A(1,2,68)             110.6552         estimate D2E/DX2                !
 ! A10   A(3,2,10)             105.694          estimate D2E/DX2                !
 ! A11   A(3,2,68)             110.0421         estimate D2E/DX2                !
 ! A12   A(10,2,68)            112.1133         estimate D2E/DX2                !
 ! A13   A(2,3,5)              106.4574         estimate D2E/DX2                !
 ! A14   A(2,3,12)             104.9777         estimate D2E/DX2                !
 ! A15   A(2,3,69)             116.3153         estimate D2E/DX2                !
 ! A16   A(5,3,12)             102.8249         estimate D2E/DX2                !
 ! A17   A(5,3,69)             113.9569         estimate D2E/DX2                !
 ! A18   A(12,3,69)            111.0878         estimate D2E/DX2                !
 ! A19   A(1,4,5)              112.7321         estimate D2E/DX2                !
 ! A20   A(1,4,6)              111.6782         estimate D2E/DX2                !
 ! A21   A(5,4,6)              121.2449         estimate D2E/DX2                !
 ! A22   A(3,5,4)              111.1084         estimate D2E/DX2                !
 ! A23   A(3,5,15)             121.7613         estimate D2E/DX2                !
 ! A24   A(4,5,15)             118.0145         estimate D2E/DX2                !
 ! A25   A(4,6,8)              107.1573         estimate D2E/DX2                !
 ! A26   A(4,6,17)             121.6959         estimate D2E/DX2                !
 ! A27   A(8,6,17)             119.8741         estimate D2E/DX2                !
 ! A28   A(1,7,8)              110.4759         estimate D2E/DX2                !
 ! A29   A(1,7,9)              123.9254         estimate D2E/DX2                !
 ! A30   A(8,7,9)              118.2217         estimate D2E/DX2                !
 ! A31   A(6,8,7)              107.8178         estimate D2E/DX2                !
 ! A32   A(6,8,20)             120.1309         estimate D2E/DX2                !
 ! A33   A(7,8,20)             124.8858         estimate D2E/DX2                !
 ! A34   A(7,9,11)             119.9137         estimate D2E/DX2                !
 ! A35   A(7,9,22)             114.4266         estimate D2E/DX2                !
 ! A36   A(11,9,22)            119.468          estimate D2E/DX2                !
 ! A37   A(2,10,11)            121.0932         estimate D2E/DX2                !
 ! A38   A(2,10,13)            104.5164         estimate D2E/DX2                !
 ! A39   A(2,10,71)            111.46           estimate D2E/DX2                !
 ! A40   A(11,10,13)           102.3976         estimate D2E/DX2                !
 ! A41   A(11,10,71)           106.6101         estimate D2E/DX2                !
 ! A42   A(13,10,71)           110.1083         estimate D2E/DX2                !
 ! A43   A(9,11,10)            120.3614         estimate D2E/DX2                !
 ! A44   A(9,11,25)            117.701          estimate D2E/DX2                !
 ! A45   A(10,11,25)           117.982          estimate D2E/DX2                !
 ! A46   A(3,12,13)            111.2479         estimate D2E/DX2                !
 ! A47   A(3,12,14)            125.1469         estimate D2E/DX2                !
 ! A48   A(13,12,14)           121.6421         estimate D2E/DX2                !
 ! A49   A(10,13,12)           112.2748         estimate D2E/DX2                !
 ! A50   A(10,13,27)           125.0863         estimate D2E/DX2                !
 ! A51   A(12,13,27)           120.3286         estimate D2E/DX2                !
 ! A52   A(12,14,16)           118.1719         estimate D2E/DX2                !
 ! A53   A(12,14,29)           118.8359         estimate D2E/DX2                !
 ! A54   A(16,14,29)           121.5156         estimate D2E/DX2                !
 ! A55   A(5,15,16)            122.1162         estimate D2E/DX2                !
 ! A56   A(5,15,18)            120.2083         estimate D2E/DX2                !
 ! A57   A(16,15,18)           110.3564         estimate D2E/DX2                !
 ! A58   A(14,16,15)           104.7715         estimate D2E/DX2                !
 ! A59   A(14,16,32)           110.7598         estimate D2E/DX2                !
 ! A60   A(14,16,70)           110.4421         estimate D2E/DX2                !
 ! A61   A(15,16,32)           101.4919         estimate D2E/DX2                !
 ! A62   A(15,16,70)           115.8525         estimate D2E/DX2                !
 ! A63   A(32,16,70)           112.9534         estimate D2E/DX2                !
 ! A64   A(6,17,18)            114.6102         estimate D2E/DX2                !
 ! A65   A(6,17,19)            119.9            estimate D2E/DX2                !
 ! A66   A(18,17,19)           119.7609         estimate D2E/DX2                !
 ! A67   A(15,18,17)           121.9293         estimate D2E/DX2                !
 ! A68   A(15,18,33)           108.4653         estimate D2E/DX2                !
 ! A69   A(17,18,33)           120.5132         estimate D2E/DX2                !
 ! A70   A(17,19,21)           118.9342         estimate D2E/DX2                !
 ! A71   A(17,19,35)           117.289          estimate D2E/DX2                !
 ! A72   A(21,19,35)           118.5403         estimate D2E/DX2                !
 ! A73   A(8,20,21)            119.9057         estimate D2E/DX2                !
 ! A74   A(8,20,23)            113.6793         estimate D2E/DX2                !
 ! A75   A(21,20,23)           120.4952         estimate D2E/DX2                !
 ! A76   A(19,21,20)           119.1957         estimate D2E/DX2                !
 ! A77   A(19,21,38)           118.5587         estimate D2E/DX2                !
 ! A78   A(20,21,38)           116.6339         estimate D2E/DX2                !
 ! A79   A(9,22,23)            123.1595         estimate D2E/DX2                !
 ! A80   A(9,22,24)            121.9378         estimate D2E/DX2                !
 ! A81   A(23,22,24)           107.1609         estimate D2E/DX2                !
 ! A82   A(20,23,22)           119.8191         estimate D2E/DX2                !
 ! A83   A(20,23,40)           120.9846         estimate D2E/DX2                !
 ! A84   A(22,23,40)           109.3344         estimate D2E/DX2                !
 ! A85   A(22,24,26)           117.2549         estimate D2E/DX2                !
 ! A86   A(22,24,41)           108.8376         estimate D2E/DX2                !
 ! A87   A(26,24,41)           121.0788         estimate D2E/DX2                !
 ! A88   A(11,25,26)           121.582          estimate D2E/DX2                !
 ! A89   A(11,25,28)           124.6898         estimate D2E/DX2                !
 ! A90   A(26,25,28)           108.357          estimate D2E/DX2                !
 ! A91   A(24,26,25)           120.8115         estimate D2E/DX2                !
 ! A92   A(24,26,44)           119.0128         estimate D2E/DX2                !
 ! A93   A(25,26,44)           110.0298         estimate D2E/DX2                !
 ! A94   A(13,27,28)           118.0818         estimate D2E/DX2                !
 ! A95   A(13,27,30)           118.7431         estimate D2E/DX2                !
 ! A96   A(28,27,30)           122.2012         estimate D2E/DX2                !
 ! A97   A(25,28,27)           104.6361         estimate D2E/DX2                !
 ! A98   A(25,28,45)           102.1474         estimate D2E/DX2                !
 ! A99   A(25,28,72)           116.9961         estimate D2E/DX2                !
 ! A100  A(27,28,45)           111.4224         estimate D2E/DX2                !
 ! A101  A(27,28,72)           110.2097         estimate D2E/DX2                !
 ! A102  A(45,28,72)           111.0668         estimate D2E/DX2                !
 ! A103  A(14,29,30)           118.8077         estimate D2E/DX2                !
 ! A104  A(14,29,31)           118.7721         estimate D2E/DX2                !
 ! A105  A(30,29,31)           120.1561         estimate D2E/DX2                !
 ! A106  A(27,30,29)           120.8744         estimate D2E/DX2                !
 ! A107  A(27,30,47)           119.5133         estimate D2E/DX2                !
 ! A108  A(29,30,47)           119.0682         estimate D2E/DX2                !
 ! A109  A(29,31,34)           118.0058         estimate D2E/DX2                !
 ! A110  A(29,31,49)           118.7776         estimate D2E/DX2                !
 ! A111  A(34,31,49)           108.869          estimate D2E/DX2                !
 ! A112  A(16,32,33)           110.5934         estimate D2E/DX2                !
 ! A113  A(16,32,34)           120.8327         estimate D2E/DX2                !
 ! A114  A(33,32,34)           118.4843         estimate D2E/DX2                !
 ! A115  A(18,33,32)           108.2429         estimate D2E/DX2                !
 ! A116  A(18,33,36)           119.2509         estimate D2E/DX2                !
 ! A117  A(32,33,36)           122.5136         estimate D2E/DX2                !
 ! A118  A(31,34,32)           120.8941         estimate D2E/DX2                !
 ! A119  A(31,34,51)           107.6288         estimate D2E/DX2                !
 ! A120  A(32,34,51)           119.536          estimate D2E/DX2                !
 ! A121  A(19,35,36)           121.6586         estimate D2E/DX2                !
 ! A122  A(19,35,37)           121.7723         estimate D2E/DX2                !
 ! A123  A(36,35,37)           106.8111         estimate D2E/DX2                !
 ! A124  A(33,36,35)           120.0702         estimate D2E/DX2                !
 ! A125  A(33,36,52)           118.7304         estimate D2E/DX2                !
 ! A126  A(35,36,52)           109.3804         estimate D2E/DX2                !
 ! A127  A(35,37,39)           119.5512         estimate D2E/DX2                !
 ! A128  A(35,37,53)           108.2157         estimate D2E/DX2                !
 ! A129  A(39,37,53)           120.7911         estimate D2E/DX2                !
 ! A130  A(21,38,39)           121.785          estimate D2E/DX2                !
 ! A131  A(21,38,42)           121.9397         estimate D2E/DX2                !
 ! A132  A(39,38,42)           106.8869         estimate D2E/DX2                !
 ! A133  A(37,39,38)           119.6422         estimate D2E/DX2                !
 ! A134  A(37,39,57)           120.124          estimate D2E/DX2                !
 ! A135  A(38,39,57)           108.6059         estimate D2E/DX2                !
 ! A136  A(23,40,41)           107.2553         estimate D2E/DX2                !
 ! A137  A(23,40,42)           119.495          estimate D2E/DX2                !
 ! A138  A(41,40,42)           121.3842         estimate D2E/DX2                !
 ! A139  A(24,41,40)           107.3112         estimate D2E/DX2                !
 ! A140  A(24,41,43)           120.0515         estimate D2E/DX2                !
 ! A141  A(40,41,43)           119.0741         estimate D2E/DX2                !
 ! A142  A(38,42,40)           119.8209         estimate D2E/DX2                !
 ! A143  A(38,42,58)           108.8355         estimate D2E/DX2                !
 ! A144  A(40,42,58)           119.4306         estimate D2E/DX2                !
 ! A145  A(41,43,46)           118.9016         estimate D2E/DX2                !
 ! A146  A(41,43,59)           119.8572         estimate D2E/DX2                !
 ! A147  A(46,43,59)           108.9535         estimate D2E/DX2                !
 ! A148  A(26,44,45)           107.2777         estimate D2E/DX2                !
 ! A149  A(26,44,46)           120.0944         estimate D2E/DX2                !
 ! A150  A(45,44,46)           120.9822         estimate D2E/DX2                !
 ! A151  A(28,45,44)           110.9328         estimate D2E/DX2                !
 ! A152  A(28,45,48)           121.6058         estimate D2E/DX2                !
 ! A153  A(44,45,48)           119.8083         estimate D2E/DX2                !
 ! A154  A(43,46,44)           120.8284         estimate D2E/DX2                !
 ! A155  A(43,46,61)           107.5192         estimate D2E/DX2                !
 ! A156  A(44,46,61)           119.3123         estimate D2E/DX2                !
 ! A157  A(30,47,48)           110.531          estimate D2E/DX2                !
 ! A158  A(30,47,50)           112.7111         estimate D2E/DX2                !
 ! A159  A(30,47,73)           106.4424         estimate D2E/DX2                !
 ! A160  A(48,47,50)           101.1368         estimate D2E/DX2                !
 ! A161  A(48,47,73)           112.2226         estimate D2E/DX2                !
 ! A162  A(50,47,73)           113.8844         estimate D2E/DX2                !
 ! A163  A(45,48,47)           122.833          estimate D2E/DX2                !
 ! A164  A(45,48,62)           119.5086         estimate D2E/DX2                !
 ! A165  A(47,48,62)           110.687          estimate D2E/DX2                !
 ! A166  A(31,49,50)           121.2956         estimate D2E/DX2                !
 ! A167  A(31,49,54)           107.3475         estimate D2E/DX2                !
 ! A168  A(50,49,54)           120.3119         estimate D2E/DX2                !
 ! A169  A(47,50,49)           121.467          estimate D2E/DX2                !
 ! A170  A(47,50,63)           111.6395         estimate D2E/DX2                !
 ! A171  A(49,50,63)           118.9016         estimate D2E/DX2                !
 ! A172  A(34,51,52)           120.0948         estimate D2E/DX2                !
 ! A173  A(34,51,54)           107.3988         estimate D2E/DX2                !
 ! A174  A(52,51,54)           119.3375         estimate D2E/DX2                !
 ! A175  A(36,52,51)           119.2913         estimate D2E/DX2                !
 ! A176  A(36,52,53)           106.8238         estimate D2E/DX2                !
 ! A177  A(51,52,53)           120.9177         estimate D2E/DX2                !
 ! A178  A(37,53,52)           108.235          estimate D2E/DX2                !
 ! A179  A(37,53,55)           118.9999         estimate D2E/DX2                !
 ! A180  A(52,53,55)           119.6212         estimate D2E/DX2                !
 ! A181  A(49,54,51)           108.1898         estimate D2E/DX2                !
 ! A182  A(49,54,56)           119.9102         estimate D2E/DX2                !
 ! A183  A(51,54,56)           119.8366         estimate D2E/DX2                !
 ! A184  A(53,55,56)           119.2551         estimate D2E/DX2                !
 ! A185  A(53,55,60)           120.0154         estimate D2E/DX2                !
 ! A186  A(56,55,60)           108.2199         estimate D2E/DX2                !
 ! A187  A(54,56,55)           120.7925         estimate D2E/DX2                !
 ! A188  A(54,56,64)           119.7525         estimate D2E/DX2                !
 ! A189  A(55,56,64)           107.8613         estimate D2E/DX2                !
 ! A190  A(39,57,58)           107.6841         estimate D2E/DX2                !
 ! A191  A(39,57,60)           119.0525         estimate D2E/DX2                !
 ! A192  A(58,57,60)           120.2367         estimate D2E/DX2                !
 ! A193  A(42,58,57)           107.6447         estimate D2E/DX2                !
 ! A194  A(42,58,59)           119.3468         estimate D2E/DX2                !
 ! A195  A(57,58,59)           120.0785         estimate D2E/DX2                !
 ! A196  A(43,59,58)           120.6804         estimate D2E/DX2                !
 ! A197  A(43,59,65)           106.7086         estimate D2E/DX2                !
 ! A198  A(58,59,65)           119.718          estimate D2E/DX2                !
 ! A199  A(55,60,57)           120.7048         estimate D2E/DX2                !
 ! A200  A(55,60,66)           107.3991         estimate D2E/DX2                !
 ! A201  A(57,60,66)           119.6571         estimate D2E/DX2                !
 ! A202  A(46,61,62)           118.8455         estimate D2E/DX2                !
 ! A203  A(46,61,65)           108.2092         estimate D2E/DX2                !
 ! A204  A(62,61,65)           120.7794         estimate D2E/DX2                !
 ! A205  A(48,62,61)           121.3961         estimate D2E/DX2                !
 ! A206  A(48,62,63)           108.3317         estimate D2E/DX2                !
 ! A207  A(61,62,63)           119.7962         estimate D2E/DX2                !
 ! A208  A(50,63,62)           107.9403         estimate D2E/DX2                !
 ! A209  A(50,63,64)           121.8105         estimate D2E/DX2                !
 ! A210  A(62,63,64)           119.4909         estimate D2E/DX2                !
 ! A211  A(56,64,63)           119.1782         estimate D2E/DX2                !
 ! A212  A(56,64,66)           108.1707         estimate D2E/DX2                !
 ! A213  A(63,64,66)           120.3173         estimate D2E/DX2                !
 ! A214  A(59,65,61)           108.56           estimate D2E/DX2                !
 ! A215  A(59,65,66)           120.2889         estimate D2E/DX2                !
 ! A216  A(61,65,66)           119.2308         estimate D2E/DX2                !
 ! A217  A(60,66,64)           108.2966         estimate D2E/DX2                !
 ! A218  A(60,66,65)           119.8904         estimate D2E/DX2                !
 ! A219  A(64,66,65)           120.2165         estimate D2E/DX2                !
 ! D1    D(4,1,2,3)              1.4813         estimate D2E/DX2                !
 ! D2    D(4,1,2,10)          -113.1315         estimate D2E/DX2                !
 ! D3    D(4,1,2,68)           119.9117         estimate D2E/DX2                !
 ! D4    D(7,1,2,3)            111.1559         estimate D2E/DX2                !
 ! D5    D(7,1,2,10)            -3.4569         estimate D2E/DX2                !
 ! D6    D(7,1,2,68)          -130.4137         estimate D2E/DX2                !
 ! D7    D(67,1,2,3)          -122.6618         estimate D2E/DX2                !
 ! D8    D(67,1,2,10)          122.7254         estimate D2E/DX2                !
 ! D9    D(67,1,2,68)           -4.2314         estimate D2E/DX2                !
 ! D10   D(2,1,4,5)             -1.5958         estimate D2E/DX2                !
 ! D11   D(2,1,4,6)            138.9134         estimate D2E/DX2                !
 ! D12   D(7,1,4,5)           -124.6784         estimate D2E/DX2                !
 ! D13   D(7,1,4,6)             15.8308         estimate D2E/DX2                !
 ! D14   D(67,1,4,5)           122.4804         estimate D2E/DX2                !
 ! D15   D(67,1,4,6)           -97.0104         estimate D2E/DX2                !
 ! D16   D(2,1,7,8)           -132.0099         estimate D2E/DX2                !
 ! D17   D(2,1,7,9)             17.2501         estimate D2E/DX2                !
 ! D18   D(4,1,7,8)            -19.063          estimate D2E/DX2                !
 ! D19   D(4,1,7,9)            130.197          estimate D2E/DX2                !
 ! D20   D(67,1,7,8)            98.7914         estimate D2E/DX2                !
 ! D21   D(67,1,7,9)          -111.9485         estimate D2E/DX2                !
 ! D22   D(1,2,3,5)             -0.9654         estimate D2E/DX2                !
 ! D23   D(1,2,3,12)          -109.5452         estimate D2E/DX2                !
 ! D24   D(1,2,3,69)           127.237          estimate D2E/DX2                !
 ! D25   D(10,2,3,5)           118.9411         estimate D2E/DX2                !
 ! D26   D(10,2,3,12)           10.3613         estimate D2E/DX2                !
 ! D27   D(10,2,3,69)         -112.8565         estimate D2E/DX2                !
 ! D28   D(68,2,3,5)          -119.8122         estimate D2E/DX2                !
 ! D29   D(68,2,3,12)          131.608          estimate D2E/DX2                !
 ! D30   D(68,2,3,69)            8.3902         estimate D2E/DX2                !
 ! D31   D(1,2,10,11)           -6.5821         estimate D2E/DX2                !
 ! D32   D(1,2,10,13)          107.9456         estimate D2E/DX2                !
 ! D33   D(1,2,10,71)         -133.1485         estimate D2E/DX2                !
 ! D34   D(3,2,10,11)         -120.4998         estimate D2E/DX2                !
 ! D35   D(3,2,10,13)           -5.9721         estimate D2E/DX2                !
 ! D36   D(3,2,10,71)          112.9337         estimate D2E/DX2                !
 ! D37   D(68,2,10,11)         119.605          estimate D2E/DX2                !
 ! D38   D(68,2,10,13)        -125.8673         estimate D2E/DX2                !
 ! D39   D(68,2,10,71)          -6.9614         estimate D2E/DX2                !
 ! D40   D(2,3,5,4)              0.0285         estimate D2E/DX2                !
 ! D41   D(2,3,5,15)          -146.1882         estimate D2E/DX2                !
 ! D42   D(12,3,5,4)           110.1266         estimate D2E/DX2                !
 ! D43   D(12,3,5,15)          -36.0901         estimate D2E/DX2                !
 ! D44   D(69,3,5,4)          -129.5459         estimate D2E/DX2                !
 ! D45   D(69,3,5,15)           84.2374         estimate D2E/DX2                !
 ! D46   D(2,3,12,13)          -11.594          estimate D2E/DX2                !
 ! D47   D(2,3,12,14)          152.5891         estimate D2E/DX2                !
 ! D48   D(5,3,12,13)         -122.797          estimate D2E/DX2                !
 ! D49   D(5,3,12,14)           41.3861         estimate D2E/DX2                !
 ! D50   D(69,3,12,13)         114.919          estimate D2E/DX2                !
 ! D51   D(69,3,12,14)         -80.8979         estimate D2E/DX2                !
 ! D52   D(1,4,5,3)              1.0104         estimate D2E/DX2                !
 ! D53   D(1,4,5,15)           148.6304         estimate D2E/DX2                !
 ! D54   D(6,4,5,3)           -135.2618         estimate D2E/DX2                !
 ! D55   D(6,4,5,15)            12.3582         estimate D2E/DX2                !
 ! D56   D(1,4,6,8)             -7.3524         estimate D2E/DX2                !
 ! D57   D(1,4,6,17)          -150.8012         estimate D2E/DX2                !
 ! D58   D(5,4,6,8)            129.3284         estimate D2E/DX2                !
 ! D59   D(5,4,6,17)           -14.1204         estimate D2E/DX2                !
 ! D60   D(3,5,15,16)           -2.6404         estimate D2E/DX2                !
 ! D61   D(3,5,15,18)          144.5731         estimate D2E/DX2                !
 ! D62   D(4,5,15,16)         -146.6542         estimate D2E/DX2                !
 ! D63   D(4,5,15,18)            0.5594         estimate D2E/DX2                !
 ! D64   D(4,6,8,7)             -5.36           estimate D2E/DX2                !
 ! D65   D(4,6,8,20)          -157.1426         estimate D2E/DX2                !
 ! D66   D(17,6,8,7)           138.8819         estimate D2E/DX2                !
 ! D67   D(17,6,8,20)          -12.9007         estimate D2E/DX2                !
 ! D68   D(4,6,17,18)            2.3699         estimate D2E/DX2                !
 ! D69   D(4,6,17,19)          155.6477         estimate D2E/DX2                !
 ! D70   D(8,6,17,18)         -136.6165         estimate D2E/DX2                !
 ! D71   D(8,6,17,19)           16.6613         estimate D2E/DX2                !
 ! D72   D(1,7,8,6)             16.179          estimate D2E/DX2                !
 ! D73   D(1,7,8,20)           166.2769         estimate D2E/DX2                !
 ! D74   D(9,7,8,6)           -135.0475         estimate D2E/DX2                !
 ! D75   D(9,7,8,20)            15.0504         estimate D2E/DX2                !
 ! D76   D(1,7,9,11)           -19.9339         estimate D2E/DX2                !
 ! D77   D(1,7,9,22)          -172.1425         estimate D2E/DX2                !
 ! D78   D(8,7,9,11)           127.1473         estimate D2E/DX2                !
 ! D79   D(8,7,9,22)           -25.0614         estimate D2E/DX2                !
 ! D80   D(6,8,20,21)            0.6348         estimate D2E/DX2                !
 ! D81   D(6,8,20,23)          153.6926         estimate D2E/DX2                !
 ! D82   D(7,8,20,21)         -146.0836         estimate D2E/DX2                !
 ! D83   D(7,8,20,23)            6.9742         estimate D2E/DX2                !
 ! D84   D(7,9,11,10)            8.3794         estimate D2E/DX2                !
 ! D85   D(7,9,11,25)         -148.7998         estimate D2E/DX2                !
 ! D86   D(22,9,11,10)         159.1964         estimate D2E/DX2                !
 ! D87   D(22,9,11,25)           2.0173         estimate D2E/DX2                !
 ! D88   D(7,9,22,23)           15.269          estimate D2E/DX2                !
 ! D89   D(7,9,22,24)          160.6159         estimate D2E/DX2                !
 ! D90   D(11,9,22,23)        -137.0732         estimate D2E/DX2                !
 ! D91   D(11,9,22,24)           8.2736         estimate D2E/DX2                !
 ! D92   D(2,10,11,9)            4.7204         estimate D2E/DX2                !
 ! D93   D(2,10,11,25)         161.8369         estimate D2E/DX2                !
 ! D94   D(13,10,11,9)        -110.8913         estimate D2E/DX2                !
 ! D95   D(13,10,11,25)         46.2253         estimate D2E/DX2                !
 ! D96   D(71,10,11,9)         133.4566         estimate D2E/DX2                !
 ! D97   D(71,10,11,25)        -69.4268         estimate D2E/DX2                !
 ! D98   D(2,10,13,12)          -1.0301         estimate D2E/DX2                !
 ! D99   D(2,10,13,27)        -163.6976         estimate D2E/DX2                !
 ! D100  D(11,10,13,12)        126.0632         estimate D2E/DX2                !
 ! D101  D(11,10,13,27)        -36.6042         estimate D2E/DX2                !
 ! D102  D(71,10,13,12)       -120.8479         estimate D2E/DX2                !
 ! D103  D(71,10,13,27)         76.4847         estimate D2E/DX2                !
 ! D104  D(9,11,25,26)          -9.071          estimate D2E/DX2                !
 ! D105  D(9,11,25,28)         141.9903         estimate D2E/DX2                !
 ! D106  D(10,11,25,26)       -166.8017         estimate D2E/DX2                !
 ! D107  D(10,11,25,28)        -15.7403         estimate D2E/DX2                !
 ! D108  D(3,12,13,10)           8.1736         estimate D2E/DX2                !
 ! D109  D(3,12,13,27)         171.768          estimate D2E/DX2                !
 ! D110  D(14,12,13,10)       -156.6503         estimate D2E/DX2                !
 ! D111  D(14,12,13,27)          6.944          estimate D2E/DX2                !
 ! D112  D(3,12,14,16)          -5.8914         estimate D2E/DX2                !
 ! D113  D(3,12,14,29)        -172.2471         estimate D2E/DX2                !
 ! D114  D(13,12,14,16)        156.7474         estimate D2E/DX2                !
 ! D115  D(13,12,14,29)         -9.6083         estimate D2E/DX2                !
 ! D116  D(10,13,27,28)         -6.527          estimate D2E/DX2                !
 ! D117  D(10,13,27,30)        162.4369         estimate D2E/DX2                !
 ! D118  D(12,13,27,28)       -167.9005         estimate D2E/DX2                !
 ! D119  D(12,13,27,30)          1.0634         estimate D2E/DX2                !
 ! D120  D(12,14,16,15)        -34.0573         estimate D2E/DX2                !
 ! D121  D(12,14,16,32)       -142.738          estimate D2E/DX2                !
 ! D122  D(12,14,16,70)         91.3615         estimate D2E/DX2                !
 ! D123  D(29,14,16,15)        131.9146         estimate D2E/DX2                !
 ! D124  D(29,14,16,32)         23.2338         estimate D2E/DX2                !
 ! D125  D(29,14,16,70)       -102.6666         estimate D2E/DX2                !
 ! D126  D(12,14,29,30)          4.3167         estimate D2E/DX2                !
 ! D127  D(12,14,29,31)        167.2645         estimate D2E/DX2                !
 ! D128  D(16,14,29,30)       -161.5647         estimate D2E/DX2                !
 ! D129  D(16,14,29,31)          1.3831         estimate D2E/DX2                !
 ! D130  D(5,15,16,14)          39.1538         estimate D2E/DX2                !
 ! D131  D(5,15,16,32)         154.4737         estimate D2E/DX2                !
 ! D132  D(5,15,16,70)         -82.793          estimate D2E/DX2                !
 ! D133  D(18,15,16,14)       -110.9026         estimate D2E/DX2                !
 ! D134  D(18,15,16,32)          4.4173         estimate D2E/DX2                !
 ! D135  D(18,15,16,70)        127.1506         estimate D2E/DX2                !
 ! D136  D(5,15,18,17)         -12.3793         estimate D2E/DX2                !
 ! D137  D(5,15,18,33)        -159.3939         estimate D2E/DX2                !
 ! D138  D(16,15,18,17)        138.333          estimate D2E/DX2                !
 ! D139  D(16,15,18,33)         -8.6816         estimate D2E/DX2                !
 ! D140  D(14,16,32,33)        112.3315         estimate D2E/DX2                !
 ! D141  D(14,16,32,34)        -32.5146         estimate D2E/DX2                !
 ! D142  D(15,16,32,33)          1.5191         estimate D2E/DX2                !
 ! D143  D(15,16,32,34)       -143.3271         estimate D2E/DX2                !
 ! D144  D(70,16,32,33)       -123.1852         estimate D2E/DX2                !
 ! D145  D(70,16,32,34)         91.9687         estimate D2E/DX2                !
 ! D146  D(6,17,18,15)          10.5434         estimate D2E/DX2                !
 ! D147  D(6,17,18,33)         153.716          estimate D2E/DX2                !
 ! D148  D(19,17,18,15)       -142.7745         estimate D2E/DX2                !
 ! D149  D(19,17,18,33)          0.3981         estimate D2E/DX2                !
 ! D150  D(6,17,19,21)          -8.2207         estimate D2E/DX2                !
 ! D151  D(6,17,19,35)        -162.3104         estimate D2E/DX2                !
 ! D152  D(18,17,19,21)        143.6845         estimate D2E/DX2                !
 ! D153  D(18,17,19,35)        -10.4052         estimate D2E/DX2                !
 ! D154  D(15,18,33,32)          9.5181         estimate D2E/DX2                !
 ! D155  D(15,18,33,36)        155.9527         estimate D2E/DX2                !
 ! D156  D(17,18,33,32)       -138.0478         estimate D2E/DX2                !
 ! D157  D(17,18,33,36)          8.3868         estimate D2E/DX2                !
 ! D158  D(17,19,21,20)         -3.8684         estimate D2E/DX2                !
 ! D159  D(17,19,21,38)       -156.5913         estimate D2E/DX2                !
 ! D160  D(35,19,21,20)        149.8969         estimate D2E/DX2                !
 ! D161  D(35,19,21,38)         -2.826          estimate D2E/DX2                !
 ! D162  D(17,19,35,36)         12.1516         estimate D2E/DX2                !
 ! D163  D(17,19,35,37)        153.5568         estimate D2E/DX2                !
 ! D164  D(21,19,35,36)       -142.0428         estimate D2E/DX2                !
 ! D165  D(21,19,35,37)         -0.6375         estimate D2E/DX2                !
 ! D166  D(8,20,21,19)           7.6082         estimate D2E/DX2                !
 ! D167  D(8,20,21,38)         160.8442         estimate D2E/DX2                !
 ! D168  D(23,20,21,19)       -143.6046         estimate D2E/DX2                !
 ! D169  D(23,20,21,38)          9.6314         estimate D2E/DX2                !
 ! D170  D(8,20,23,22)         -17.2687         estimate D2E/DX2                !
 ! D171  D(8,20,23,40)        -159.3885         estimate D2E/DX2                !
 ! D172  D(21,20,23,22)        135.6141         estimate D2E/DX2                !
 ! D173  D(21,20,23,40)         -6.5057         estimate D2E/DX2                !
 ! D174  D(19,21,38,39)          4.1824         estimate D2E/DX2                !
 ! D175  D(19,21,38,42)        146.2747         estimate D2E/DX2                !
 ! D176  D(20,21,38,39)       -149.2301         estimate D2E/DX2                !
 ! D177  D(20,21,38,42)         -7.1378         estimate D2E/DX2                !
 ! D178  D(9,22,23,20)           6.6809         estimate D2E/DX2                !
 ! D179  D(9,22,23,40)         152.7731         estimate D2E/DX2                !
 ! D180  D(24,22,23,20)       -142.9867         estimate D2E/DX2                !
 ! D181  D(24,22,23,40)          3.1055         estimate D2E/DX2                !
 ! D182  D(9,22,24,26)         -11.155          estimate D2E/DX2                !
 ! D183  D(9,22,24,41)        -153.2746         estimate D2E/DX2                !
 ! D184  D(23,22,24,26)        138.9647         estimate D2E/DX2                !
 ! D185  D(23,22,24,41)         -3.1549         estimate D2E/DX2                !
 ! D186  D(20,23,40,41)        143.7797         estimate D2E/DX2                !
 ! D187  D(20,23,40,42)          0.4377         estimate D2E/DX2                !
 ! D188  D(22,23,40,41)         -1.8488         estimate D2E/DX2                !
 ! D189  D(22,23,40,42)       -145.1907         estimate D2E/DX2                !
 ! D190  D(22,24,26,25)          4.0109         estimate D2E/DX2                !
 ! D191  D(22,24,26,44)       -137.8749         estimate D2E/DX2                !
 ! D192  D(41,24,26,25)        141.2824         estimate D2E/DX2                !
 ! D193  D(41,24,26,44)         -0.6033         estimate D2E/DX2                !
 ! D194  D(22,24,41,40)          2.0424         estimate D2E/DX2                !
 ! D195  D(22,24,41,43)        142.2497         estimate D2E/DX2                !
 ! D196  D(26,24,41,40)       -138.3646         estimate D2E/DX2                !
 ! D197  D(26,24,41,43)          1.8427         estimate D2E/DX2                !
 ! D198  D(11,25,26,24)          6.1721         estimate D2E/DX2                !
 ! D199  D(11,25,26,44)        151.1056         estimate D2E/DX2                !
 ! D200  D(28,25,26,24)       -149.0442         estimate D2E/DX2                !
 ! D201  D(28,25,26,44)         -4.1107         estimate D2E/DX2                !
 ! D202  D(11,25,28,27)        -28.815          estimate D2E/DX2                !
 ! D203  D(11,25,28,45)       -145.0688         estimate D2E/DX2                !
 ! D204  D(11,25,28,72)         93.444          estimate D2E/DX2                !
 ! D205  D(26,25,28,27)        125.4437         estimate D2E/DX2                !
 ! D206  D(26,25,28,45)          9.1899         estimate D2E/DX2                !
 ! D207  D(26,25,28,72)       -112.2973         estimate D2E/DX2                !
 ! D208  D(24,26,44,45)        142.452          estimate D2E/DX2                !
 ! D209  D(24,26,44,46)         -0.9994         estimate D2E/DX2                !
 ! D210  D(25,26,44,45)         -3.1983         estimate D2E/DX2                !
 ! D211  D(25,26,44,46)       -146.6497         estimate D2E/DX2                !
 ! D212  D(13,27,28,25)         38.7654         estimate D2E/DX2                !
 ! D213  D(13,27,28,45)        148.4041         estimate D2E/DX2                !
 ! D214  D(13,27,28,72)        -87.8235         estimate D2E/DX2                !
 ! D215  D(30,27,28,25)       -129.7941         estimate D2E/DX2                !
 ! D216  D(30,27,28,45)        -20.1554         estimate D2E/DX2                !
 ! D217  D(30,27,28,72)        103.617          estimate D2E/DX2                !
 ! D218  D(13,27,30,29)         -6.1938         estimate D2E/DX2                !
 ! D219  D(13,27,30,47)       -177.6554         estimate D2E/DX2                !
 ! D220  D(28,27,30,29)        162.293          estimate D2E/DX2                !
 ! D221  D(28,27,30,47)         -9.1685         estimate D2E/DX2                !
 ! D222  D(25,28,45,44)        -11.454          estimate D2E/DX2                !
 ! D223  D(25,28,45,48)        137.8961         estimate D2E/DX2                !
 ! D224  D(27,28,45,44)       -122.6831         estimate D2E/DX2                !
 ! D225  D(27,28,45,48)         26.667          estimate D2E/DX2                !
 ! D226  D(72,28,45,44)        114.0316         estimate D2E/DX2                !
 ! D227  D(72,28,45,48)        -96.6183         estimate D2E/DX2                !
 ! D228  D(14,29,30,27)          3.4756         estimate D2E/DX2                !
 ! D229  D(14,29,30,47)        174.9746         estimate D2E/DX2                !
 ! D230  D(31,29,30,27)       -159.2306         estimate D2E/DX2                !
 ! D231  D(31,29,30,47)         12.2684         estimate D2E/DX2                !
 ! D232  D(14,29,31,34)        -19.7299         estimate D2E/DX2                !
 ! D233  D(14,29,31,49)       -154.9668         estimate D2E/DX2                !
 ! D234  D(30,29,31,34)        142.9823         estimate D2E/DX2                !
 ! D235  D(30,29,31,49)          7.7454         estimate D2E/DX2                !
 ! D236  D(27,30,47,48)         31.6144         estimate D2E/DX2                !
 ! D237  D(27,30,47,50)        143.9686         estimate D2E/DX2                !
 ! D238  D(27,30,47,73)        -90.4993         estimate D2E/DX2                !
 ! D239  D(29,30,47,48)       -140.0021         estimate D2E/DX2                !
 ! D240  D(29,30,47,50)        -27.6479         estimate D2E/DX2                !
 ! D241  D(29,30,47,73)         97.8842         estimate D2E/DX2                !
 ! D242  D(29,31,34,32)         10.9512         estimate D2E/DX2                !
 ! D243  D(29,31,34,51)       -131.5084         estimate D2E/DX2                !
 ! D244  D(49,31,34,32)        150.239          estimate D2E/DX2                !
 ! D245  D(49,31,34,51)          7.7794         estimate D2E/DX2                !
 ! D246  D(29,31,49,50)        -10.7063         estimate D2E/DX2                !
 ! D247  D(29,31,49,54)        133.2617         estimate D2E/DX2                !
 ! D248  D(34,31,49,50)       -149.6328         estimate D2E/DX2                !
 ! D249  D(34,31,49,54)         -5.6648         estimate D2E/DX2                !
 ! D250  D(16,32,33,18)         -6.7334         estimate D2E/DX2                !
 ! D251  D(16,32,33,36)       -151.84           estimate D2E/DX2                !
 ! D252  D(34,32,33,18)        139.0385         estimate D2E/DX2                !
 ! D253  D(34,32,33,36)         -6.0682         estimate D2E/DX2                !
 ! D254  D(16,32,34,31)         16.6623         estimate D2E/DX2                !
 ! D255  D(16,32,34,51)        154.7922         estimate D2E/DX2                !
 ! D256  D(33,32,34,31)       -125.5156         estimate D2E/DX2                !
 ! D257  D(33,32,34,51)         12.6144         estimate D2E/DX2                !
 ! D258  D(18,33,36,35)         -6.8385         estimate D2E/DX2                !
 ! D259  D(18,33,36,52)       -145.8343         estimate D2E/DX2                !
 ! D260  D(32,33,36,35)        134.648          estimate D2E/DX2                !
 ! D261  D(32,33,36,52)         -4.3477         estimate D2E/DX2                !
 ! D262  D(31,34,51,52)        133.976          estimate D2E/DX2                !
 ! D263  D(31,34,51,54)         -6.8337         estimate D2E/DX2                !
 ! D264  D(32,34,51,52)         -9.0848         estimate D2E/DX2                !
 ! D265  D(32,34,51,54)       -149.8945         estimate D2E/DX2                !
 ! D266  D(19,35,36,33)         -3.6204         estimate D2E/DX2                !
 ! D267  D(19,35,36,52)        138.7973         estimate D2E/DX2                !
 ! D268  D(37,35,36,33)       -149.9782         estimate D2E/DX2                !
 ! D269  D(37,35,36,52)         -7.5605         estimate D2E/DX2                !
 ! D270  D(19,35,37,39)          2.8929         estimate D2E/DX2                !
 ! D271  D(19,35,37,53)       -140.8219         estimate D2E/DX2                !
 ! D272  D(36,35,37,39)        149.2039         estimate D2E/DX2                !
 ! D273  D(36,35,37,53)          5.4891         estimate D2E/DX2                !
 ! D274  D(33,36,52,51)          7.9347         estimate D2E/DX2                !
 ! D275  D(33,36,52,53)        149.6642         estimate D2E/DX2                !
 ! D276  D(35,36,52,51)       -135.0581         estimate D2E/DX2                !
 ! D277  D(35,36,52,53)          6.6715         estimate D2E/DX2                !
 ! D278  D(35,37,39,38)         -1.5858         estimate D2E/DX2                !
 ! D279  D(35,37,39,57)       -140.5769         estimate D2E/DX2                !
 ! D280  D(53,37,39,38)        137.5407         estimate D2E/DX2                !
 ! D281  D(53,37,39,57)         -1.4504         estimate D2E/DX2                !
 ! D282  D(35,37,53,52)         -1.4557         estimate D2E/DX2                !
 ! D283  D(35,37,53,55)        139.5874         estimate D2E/DX2                !
 ! D284  D(39,37,53,52)       -144.6361         estimate D2E/DX2                !
 ! D285  D(39,37,53,55)         -3.593          estimate D2E/DX2                !
 ! D286  D(21,38,39,37)         -1.9732         estimate D2E/DX2                !
 ! D287  D(21,38,39,57)        141.2391         estimate D2E/DX2                !
 ! D288  D(42,38,39,37)       -148.9574         estimate D2E/DX2                !
 ! D289  D(42,38,39,57)         -5.7451         estimate D2E/DX2                !
 ! D290  D(21,38,42,40)          1.411          estimate D2E/DX2                !
 ! D291  D(21,38,42,58)       -141.1438         estimate D2E/DX2                !
 ! D292  D(39,38,42,40)        148.3326         estimate D2E/DX2                !
 ! D293  D(39,38,42,58)          5.7778         estimate D2E/DX2                !
 ! D294  D(37,39,57,58)        146.5792         estimate D2E/DX2                !
 ! D295  D(37,39,57,60)          5.1587         estimate D2E/DX2                !
 ! D296  D(38,39,57,58)          3.5747         estimate D2E/DX2                !
 ! D297  D(38,39,57,60)       -137.8457         estimate D2E/DX2                !
 ! D298  D(23,40,41,24)         -0.1134         estimate D2E/DX2                !
 ! D299  D(23,40,41,43)       -140.7788         estimate D2E/DX2                !
 ! D300  D(42,40,41,24)        142.3897         estimate D2E/DX2                !
 ! D301  D(42,40,41,43)          1.7243         estimate D2E/DX2                !
 ! D302  D(23,40,42,38)          2.1543         estimate D2E/DX2                !
 ! D303  D(23,40,42,58)        140.8006         estimate D2E/DX2                !
 ! D304  D(41,40,42,38)       -135.9419         estimate D2E/DX2                !
 ! D305  D(41,40,42,58)          2.7043         estimate D2E/DX2                !
 ! D306  D(24,41,43,46)         -1.4264         estimate D2E/DX2                !
 ! D307  D(24,41,43,59)       -139.5593         estimate D2E/DX2                !
 ! D308  D(40,41,43,46)        134.2176         estimate D2E/DX2                !
 ! D309  D(40,41,43,59)         -3.9153         estimate D2E/DX2                !
 ! D310  D(38,42,58,57)         -3.6207         estimate D2E/DX2                !
 ! D311  D(38,42,58,59)        137.8414         estimate D2E/DX2                !
 ! D312  D(40,42,58,57)       -146.345          estimate D2E/DX2                !
 ! D313  D(40,42,58,59)         -4.8829         estimate D2E/DX2                !
 ! D314  D(41,43,46,44)         -0.1675         estimate D2E/DX2                !
 ! D315  D(41,43,46,61)       -142.0033         estimate D2E/DX2                !
 ! D316  D(59,43,46,44)        142.0981         estimate D2E/DX2                !
 ! D317  D(59,43,46,61)          0.2623         estimate D2E/DX2                !
 ! D318  D(41,43,59,58)          1.7221         estimate D2E/DX2                !
 ! D319  D(41,43,59,65)        142.9751         estimate D2E/DX2                !
 ! D320  D(46,43,59,58)       -140.124          estimate D2E/DX2                !
 ! D321  D(46,43,59,65)          1.1289         estimate D2E/DX2                !
 ! D322  D(26,44,45,28)          9.5007         estimate D2E/DX2                !
 ! D323  D(26,44,45,48)       -140.4742         estimate D2E/DX2                !
 ! D324  D(46,44,45,28)        152.561          estimate D2E/DX2                !
 ! D325  D(46,44,45,48)          2.5861         estimate D2E/DX2                !
 ! D326  D(26,44,46,43)          1.4012         estimate D2E/DX2                !
 ! D327  D(26,44,46,61)        138.8865         estimate D2E/DX2                !
 ! D328  D(45,44,46,43)       -137.0495         estimate D2E/DX2                !
 ! D329  D(45,44,46,61)          0.4357         estimate D2E/DX2                !
 ! D330  D(28,45,48,47)         -3.2786         estimate D2E/DX2                !
 ! D331  D(28,45,48,62)       -151.3052         estimate D2E/DX2                !
 ! D332  D(44,45,48,47)        143.4402         estimate D2E/DX2                !
 ! D333  D(44,45,48,62)         -4.5863         estimate D2E/DX2                !
 ! D334  D(43,46,61,62)        141.213          estimate D2E/DX2                !
 ! D335  D(43,46,61,65)         -1.5566         estimate D2E/DX2                !
 ! D336  D(44,46,61,62)         -1.3043         estimate D2E/DX2                !
 ! D337  D(44,46,61,65)       -144.0739         estimate D2E/DX2                !
 ! D338  D(30,47,48,45)        -26.0087         estimate D2E/DX2                !
 ! D339  D(30,47,48,62)        124.4798         estimate D2E/DX2                !
 ! D340  D(50,47,48,45)       -145.6064         estimate D2E/DX2                !
 ! D341  D(50,47,48,62)          4.8821         estimate D2E/DX2                !
 ! D342  D(73,47,48,45)         92.6443         estimate D2E/DX2                !
 ! D343  D(73,47,48,62)       -116.8671         estimate D2E/DX2                !
 ! D344  D(30,47,50,49)         25.4631         estimate D2E/DX2                !
 ! D345  D(30,47,50,63)       -123.0105         estimate D2E/DX2                !
 ! D346  D(48,47,50,49)        143.4897         estimate D2E/DX2                !
 ! D347  D(48,47,50,63)         -4.9839         estimate D2E/DX2                !
 ! D348  D(73,47,50,49)        -95.9305         estimate D2E/DX2                !
 ! D349  D(73,47,50,63)        115.5959         estimate D2E/DX2                !
 ! D350  D(45,48,62,61)          3.7512         estimate D2E/DX2                !
 ! D351  D(45,48,62,63)        148.387          estimate D2E/DX2                !
 ! D352  D(47,48,62,61)       -147.8503         estimate D2E/DX2                !
 ! D353  D(47,48,62,63)         -3.2145         estimate D2E/DX2                !
 ! D354  D(31,49,50,47)         -6.9822         estimate D2E/DX2                !
 ! D355  D(31,49,50,63)        139.2942         estimate D2E/DX2                !
 ! D356  D(54,49,50,47)       -146.4107         estimate D2E/DX2                !
 ! D357  D(54,49,50,63)         -0.1343         estimate D2E/DX2                !
 ! D358  D(31,49,54,51)          1.3505         estimate D2E/DX2                !
 ! D359  D(31,49,54,56)       -141.1343         estimate D2E/DX2                !
 ! D360  D(50,49,54,51)        145.7417         estimate D2E/DX2                !
 ! D361  D(50,49,54,56)          3.2569         estimate D2E/DX2                !
 ! D362  D(47,50,63,62)          3.3752         estimate D2E/DX2                !
 ! D363  D(47,50,63,64)        147.4449         estimate D2E/DX2                !
 ! D364  D(49,50,63,62)       -145.9978         estimate D2E/DX2                !
 ! D365  D(49,50,63,64)         -1.9282         estimate D2E/DX2                !
 ! D366  D(34,51,52,36)         -1.3939         estimate D2E/DX2                !
 ! D367  D(34,51,52,53)       -137.6798         estimate D2E/DX2                !
 ! D368  D(54,51,52,36)        134.8414         estimate D2E/DX2                !
 ! D369  D(54,51,52,53)         -1.4445         estimate D2E/DX2                !
 ! D370  D(34,51,54,49)          3.3796         estimate D2E/DX2                !
 ! D371  D(34,51,54,56)        145.8968         estimate D2E/DX2                !
 ! D372  D(52,51,54,49)       -137.7803         estimate D2E/DX2                !
 ! D373  D(52,51,54,56)          4.737          estimate D2E/DX2                !
 ! D374  D(36,52,53,37)         -3.1577         estimate D2E/DX2                !
 ! D375  D(36,52,53,55)       -143.9173         estimate D2E/DX2                !
 ! D376  D(51,52,53,37)        137.8177         estimate D2E/DX2                !
 ! D377  D(51,52,53,55)         -2.9419         estimate D2E/DX2                !
 ! D378  D(37,53,55,56)       -132.6231         estimate D2E/DX2                !
 ! D379  D(37,53,55,60)          4.894          estimate D2E/DX2                !
 ! D380  D(52,53,55,56)          3.9889         estimate D2E/DX2                !
 ! D381  D(52,53,55,60)        141.506          estimate D2E/DX2                !
 ! D382  D(49,54,56,55)        134.476          estimate D2E/DX2                !
 ! D383  D(49,54,56,64)         -4.2798         estimate D2E/DX2                !
 ! D384  D(51,54,56,55)         -3.6923         estimate D2E/DX2                !
 ! D385  D(51,54,56,64)       -142.4481         estimate D2E/DX2                !
 ! D386  D(53,55,56,54)         -0.7043         estimate D2E/DX2                !
 ! D387  D(53,55,56,64)        142.3293         estimate D2E/DX2                !
 ! D388  D(60,55,56,54)       -142.7041         estimate D2E/DX2                !
 ! D389  D(60,55,56,64)          0.3295         estimate D2E/DX2                !
 ! D390  D(53,55,60,57)         -1.1879         estimate D2E/DX2                !
 ! D391  D(53,55,60,66)       -143.2967         estimate D2E/DX2                !
 ! D392  D(56,55,60,57)        140.4719         estimate D2E/DX2                !
 ! D393  D(56,55,60,66)         -1.6369         estimate D2E/DX2                !
 ! D394  D(54,56,64,63)          2.2601         estimate D2E/DX2                !
 ! D395  D(54,56,64,66)        144.6111         estimate D2E/DX2                !
 ! D396  D(55,56,64,63)       -141.2266         estimate D2E/DX2                !
 ! D397  D(55,56,64,66)          1.1244         estimate D2E/DX2                !
 ! D398  D(39,57,58,42)          0.0265         estimate D2E/DX2                !
 ! D399  D(39,57,58,59)       -141.101          estimate D2E/DX2                !
 ! D400  D(60,57,58,42)        140.9041         estimate D2E/DX2                !
 ! D401  D(60,57,58,59)         -0.2235         estimate D2E/DX2                !
 ! D402  D(39,57,60,55)         -3.85           estimate D2E/DX2                !
 ! D403  D(39,57,60,66)        133.7417         estimate D2E/DX2                !
 ! D404  D(58,57,60,55)       -140.4023         estimate D2E/DX2                !
 ! D405  D(58,57,60,66)         -2.8106         estimate D2E/DX2                !
 ! D406  D(42,58,59,43)          2.7175         estimate D2E/DX2                !
 ! D407  D(42,58,59,65)       -133.6333         estimate D2E/DX2                !
 ! D408  D(57,58,59,43)        139.3942         estimate D2E/DX2                !
 ! D409  D(57,58,59,65)          3.0434         estimate D2E/DX2                !
 ! D410  D(43,59,65,61)         -2.0862         estimate D2E/DX2                !
 ! D411  D(43,59,65,66)       -144.5218         estimate D2E/DX2                !
 ! D412  D(58,59,65,61)        139.6127         estimate D2E/DX2                !
 ! D413  D(58,59,65,66)         -2.8229         estimate D2E/DX2                !
 ! D414  D(55,60,66,64)          2.3362         estimate D2E/DX2                !
 ! D415  D(55,60,66,65)        145.6055         estimate D2E/DX2                !
 ! D416  D(57,60,66,64)       -140.2428         estimate D2E/DX2                !
 ! D417  D(57,60,66,65)          3.0265         estimate D2E/DX2                !
 ! D418  D(46,61,62,48)         -0.7357         estimate D2E/DX2                !
 ! D419  D(46,61,62,63)       -141.4568         estimate D2E/DX2                !
 ! D420  D(65,61,62,48)        137.2783         estimate D2E/DX2                !
 ! D421  D(65,61,62,63)         -3.4428         estimate D2E/DX2                !
 ! D422  D(46,61,65,59)          2.2857         estimate D2E/DX2                !
 ! D423  D(46,61,65,66)        145.1827         estimate D2E/DX2                !
 ! D424  D(62,61,65,59)       -139.6288         estimate D2E/DX2                !
 ! D425  D(62,61,65,66)          3.2683         estimate D2E/DX2                !
 ! D426  D(48,62,63,50)         -0.0766         estimate D2E/DX2                !
 ! D427  D(48,62,63,64)       -145.1247         estimate D2E/DX2                !
 ! D428  D(61,62,63,50)        145.2225         estimate D2E/DX2                !
 ! D429  D(61,62,63,64)          0.1744         estimate D2E/DX2                !
 ! D430  D(50,63,64,56)          0.8996         estimate D2E/DX2                !
 ! D431  D(50,63,64,66)       -136.8553         estimate D2E/DX2                !
 ! D432  D(62,63,64,56)        141.0055         estimate D2E/DX2                !
 ! D433  D(62,63,64,66)          3.2507         estimate D2E/DX2                !
 ! D434  D(56,64,66,60)         -2.1474         estimate D2E/DX2                !
 ! D435  D(56,64,66,65)       -145.2755         estimate D2E/DX2                !
 ! D436  D(63,64,66,60)        139.6968         estimate D2E/DX2                !
 ! D437  D(63,64,66,65)         -3.4314         estimate D2E/DX2                !
[...]
    11 C(13)  Bbb    -0.0017    -0.227    -0.081    -0.076 -0.0555  0.9491  0.3102
              Bcc     0.0038     0.514     0.183     0.171  0.4906 -0.2446  0.8363
 
              Baa    -0.0589    -7.907    -2.822    -2.638  0.5439  0.3445  0.7651
    12 C(13)  Bbb     0.0241     3.233     1.154     1.078  0.7176 -0.6637 -0.2113
              Bcc     0.0348     4.675     1.668     1.559  0.4350  0.6640 -0.6082
 
              Baa    -0.0698    -9.365    -3.342    -3.124 -0.6527  0.7575 -0.0167
    13 C(13)  Bbb    -0.0635    -8.525    -3.042    -2.844 -0.4294 -0.3516  0.8319
              Bcc     0.1333    17.890     6.384     5.968  0.6242  0.5501  0.5547
 
              Baa    -0.0817   -10.958    -3.910    -3.655 -0.6177  0.7085  0.3412
    14 C(13)  Bbb    -0.0766   -10.274    -3.666    -3.427  0.6253  0.7056 -0.3332
              Bcc     0.1582    21.232     7.576     7.082  0.4768 -0.0075  0.8790
 
              Baa    -0.0252    -3.382    -1.207    -1.128 -0.4385  0.7988 -0.4118
    15 C(13)  Bbb     0.0096     1.290     0.460     0.430  0.7072  0.5894  0.3904
              Bcc     0.0156     2.092     0.746     0.698 -0.5546  0.1200  0.8234
 
              Baa    -0.0070    -0.941    -0.336    -0.314  0.0066 -0.3037  0.9527
    16 C(13)  Bbb     0.0007     0.097     0.034     0.032  0.0465  0.9518  0.3031
              Bcc     0.0063     0.845     0.301     0.282  0.9989 -0.0423 -0.0204
 
              Baa    -0.0153    -2.047    -0.730    -0.683 -0.2158  0.9332  0.2875
    17 C(13)  Bbb     0.0071     0.952     0.340     0.318  0.9367  0.2810 -0.2087
              Bcc     0.0082     1.095     0.391     0.365  0.2755 -0.2242  0.9348
 
              Baa    -0.0221    -2.963    -1.057    -0.988  0.9072  0.4076  0.1043
    18 C(13)  Bbb    -0.0196    -2.635    -0.940    -0.879 -0.0691 -0.1003  0.9926
              Bcc     0.0417     5.598     1.997     1.867 -0.4151  0.9076  0.0628
 
              Baa    -0.0274    -3.670    -1.310    -1.224  0.9665  0.1856 -0.1771
    19 C(13)  Bbb    -0.0262    -3.513    -1.254    -1.172  0.2515 -0.5500  0.7964
              Bcc     0.0535     7.183     2.563     2.396 -0.0504  0.8143  0.5783
 
              Baa    -0.0094    -1.257    -0.448    -0.419  0.8943  0.4441 -0.0553
    20 C(13)  Bbb    -0.0090    -1.203    -0.429    -0.401 -0.4210  0.7928 -0.4407
              Bcc     0.0183     2.460     0.878     0.821 -0.1519  0.4173  0.8960
 
              Baa    -0.0158    -2.126    -0.759    -0.709 -0.0478  0.6767  0.7347
    21 C(13)  Bbb     0.0071     0.950     0.339     0.317  0.9372  0.2848 -0.2013
              Bcc     0.0088     1.176     0.420     0.392 -0.3455  0.6789 -0.6479
 
              Baa    -0.0059    -0.794    -0.283    -0.265  0.2886  0.8879  0.3584
    22 C(13)  Bbb    -0.0050    -0.673    -0.240    -0.224  0.8194 -0.4226  0.3872
              Bcc     0.0109     1.466     0.523     0.489 -0.4952 -0.1819  0.8495
 
              Baa    -0.0115    -1.538    -0.549    -0.513 -0.1602  0.0869  0.9832
    23 C(13)  Bbb     0.0048     0.651     0.232     0.217  0.3540  0.9349 -0.0249
              Bcc     0.0066     0.887     0.316     0.296  0.9214 -0.3441  0.1806
 
              Baa    -0.0027    -0.361    -0.129    -0.120  0.9416  0.1434  0.3046
    24 C(13)  Bbb    -0.0024    -0.317    -0.113    -0.106 -0.3207  0.6578  0.6816
              Bcc     0.0051     0.678     0.242     0.226  0.1026  0.7394 -0.6654
 
              Baa    -0.0011    -0.149    -0.053    -0.050  0.1107  0.8581  0.5014
    25 C(13)  Bbb     0.0001     0.016     0.006     0.005 -0.4292 -0.4137  0.8029
              Bcc     0.0010     0.133     0.047     0.044  0.8964 -0.3041  0.3225
 
              Baa    -0.0009    -0.120    -0.043    -0.040  0.5943  0.5945  0.5417
    26 C(13)  Bbb    -0.0007    -0.096    -0.034    -0.032  0.7981 -0.5190 -0.3060
              Bcc     0.0016     0.216     0.077     0.072 -0.0992 -0.6142  0.7829
 
              Baa    -0.0615    -8.254    -2.945    -2.753  0.4818  0.5433  0.6875
    27 C(13)  Bbb     0.0276     3.706     1.323     1.236 -0.3706  0.8373 -0.4020
              Bcc     0.0339     4.548     1.623     1.517  0.7941  0.0611 -0.6047
 
              Baa    -0.0010    -0.133    -0.048    -0.045  0.0864  0.3875  0.9178
    28 C(13)  Bbb    -0.0004    -0.058    -0.021    -0.019  0.9460 -0.3208  0.0464
              Bcc     0.0014     0.192     0.068     0.064  0.3124  0.8642 -0.3943
 
              Baa    -0.0810   -10.868    -3.878    -3.625  0.3220  0.2119  0.9227
    29 C(13)  Bbb     0.0331     4.441     1.585     1.481 -0.5094  0.8603 -0.0198
              Bcc     0.0479     6.427     2.293     2.144  0.7980  0.4637 -0.3849
 
              Baa    -0.0568    -7.623    -2.720    -2.543 -0.1916  0.8783 -0.4381
    30 C(13)  Bbb    -0.0543    -7.293    -2.602    -2.433  0.9139 -0.0031 -0.4059
              Bcc     0.1112    14.915     5.322     4.975  0.3579  0.4781  0.8021
 
              Baa    -0.2799   -37.563   -13.403   -12.530  0.8110  0.5408 -0.2232
    31 C(13)  Bbb    -0.2729   -36.615   -13.065   -12.213 -0.5399  0.8388  0.0706
              Bcc     0.5528    74.177    26.468    24.743  0.2254  0.0632  0.9722
 
              Baa    -0.1150   -15.433    -5.507    -5.148  0.8542 -0.2095 -0.4759
    32 C(13)  Bbb    -0.1090   -14.630    -5.220    -4.880  0.4697  0.7034  0.5335
              Bcc     0.2240    30.063    10.727    10.028  0.2230 -0.6792  0.6992
 
              Baa    -0.0518    -6.955    -2.482    -2.320 -0.1829  0.9119 -0.3674
    33 C(13)  Bbb     0.0206     2.760     0.985     0.921  0.8769 -0.0177 -0.4804
              Bcc     0.0313     4.195     1.497     1.399  0.4446  0.4100  0.7964
 
              Baa    -0.1013   -13.597    -4.852    -4.535  0.0519 -0.3422  0.9382
    34 C(13)  Bbb     0.0379     5.092     1.817     1.698  0.9971  0.0694 -0.0299
              Bcc     0.0634     8.505     3.035     2.837 -0.0549  0.9371  0.3448
 
              Baa    -0.0262    -3.510    -1.253    -1.171  0.0570  0.9508  0.3044
    35 C(13)  Bbb     0.0113     1.513     0.540     0.505  0.9821 -0.1082  0.1541
              Bcc     0.0149     1.997     0.713     0.666 -0.1795 -0.2902  0.9400
 
              Baa    -0.0559    -7.502    -2.677    -2.502  0.9910 -0.1246 -0.0480
    36 C(13)  Bbb    -0.0533    -7.153    -2.552    -2.386  0.0553  0.0560  0.9969
              Bcc     0.1092    14.655     5.229     4.888  0.1215  0.9906 -0.0623
 
              Baa    -0.0067    -0.893    -0.319    -0.298  0.8549 -0.2749 -0.4399
    37 C(13)  Bbb    -0.0059    -0.789    -0.282    -0.263  0.2371 -0.5471  0.8028
              Bcc     0.0125     1.682     0.600     0.561  0.4614  0.7906  0.4026
 
              Baa    -0.0132    -1.774    -0.633    -0.592  0.9685 -0.0630 -0.2410
    38 C(13)  Bbb    -0.0122    -1.638    -0.584    -0.546 -0.0824  0.8320 -0.5487
              Bcc     0.0254     3.412     1.218     1.138  0.2350  0.5513  0.8005
 
              Baa    -0.0125    -1.678    -0.599    -0.560  0.4700  0.6742  0.5697
    39 C(13)  Bbb     0.0058     0.784     0.280     0.261  0.8454 -0.5293 -0.0711
              Bcc     0.0067     0.894     0.319     0.298 -0.2536 -0.5151  0.8188
 
              Baa    -0.0246    -3.295    -1.176    -1.099  0.7781  0.6218 -0.0894
    40 C(13)  Bbb    -0.0237    -3.185    -1.137    -1.063 -0.6076  0.7811  0.1442
              Bcc     0.0483     6.481     2.312     2.162  0.1595 -0.0579  0.9855
 
              Baa    -0.0091    -1.222    -0.436    -0.408  0.2052 -0.4223  0.8829
    41 C(13)  Bbb     0.0037     0.492     0.176     0.164  0.9562  0.2788 -0.0889
              Bcc     0.0054     0.730     0.260     0.244 -0.2086  0.8625  0.4611
 
              Baa    -0.0190    -2.553    -0.911    -0.851  0.3558  0.1861  0.9159
    42 C(13)  Bbb     0.0086     1.159     0.414     0.387  0.7068 -0.6947 -0.1334
              Bcc     0.0104     1.393     0.497     0.465  0.6114  0.6948 -0.3787
 
              Baa    -0.0080    -1.073    -0.383    -0.358  0.8135  0.5717 -0.1067
    43 C(13)  Bbb    -0.0071    -0.958    -0.342    -0.320 -0.3103  0.5818  0.7518
              Bcc     0.0151     2.031     0.725     0.678  0.4919 -0.5784  0.6507
 
              Baa    -0.0013    -0.170    -0.061    -0.057  0.9630 -0.2488 -0.1037
    44 C(13)  Bbb    -0.0003    -0.036    -0.013    -0.012  0.1354  0.1142  0.9842
              Bcc     0.0015     0.207     0.074     0.069  0.2331  0.9618 -0.1436
 
              Baa    -0.0028    -0.373    -0.133    -0.125  0.9594 -0.0765  0.2715
    45 C(13)  Bbb    -0.0011    -0.143    -0.051    -0.048 -0.2599  0.1345  0.9562
              Bcc     0.0039     0.517     0.184     0.172  0.1097  0.9880 -0.1092
 
              Baa    -0.0014    -0.186    -0.066    -0.062  0.8976  0.1362 -0.4193
    46 C(13)  Bbb    -0.0003    -0.044    -0.016    -0.015  0.3227  0.4451  0.8353
              Bcc     0.0017     0.230     0.082     0.077 -0.3004  0.8851 -0.3556
 
              Baa    -0.0073    -0.977    -0.349    -0.326 -0.0467  0.1169  0.9921
    47 C(13)  Bbb     0.0009     0.119     0.043     0.040  0.9671 -0.2435  0.0742
              Bcc     0.0064     0.857     0.306     0.286  0.2503  0.9628 -0.1016
 
              Baa    -0.0053    -0.714    -0.255    -0.238 -0.3034  0.2553  0.9180
    48 C(13)  Bbb    -0.0037    -0.491    -0.175    -0.164  0.9435  0.2152  0.2520
              Bcc     0.0090     1.205     0.430     0.402 -0.1332  0.9426 -0.3062
 
              Baa    -0.0923   -12.386    -4.420    -4.132 -0.1548  0.0693  0.9855
    49 C(13)  Bbb     0.0337     4.522     1.613     1.508  0.5155  0.8566  0.0207
              Bcc     0.0586     7.865     2.806     2.623  0.8428 -0.5113  0.1684
 
              Baa    -0.1050   -14.084    -5.026    -4.698  0.2702  0.9040 -0.3314
    50 C(13)  Bbb    -0.0996   -13.361    -4.767    -4.457  0.9232 -0.1456  0.3556
              Bcc     0.2045    27.445     9.793     9.155 -0.2732  0.4021  0.8739
 
              Baa    -0.0312    -4.186    -1.494    -1.396  0.7950  0.0592  0.6037
    51 C(13)  Bbb    -0.0295    -3.958    -1.412    -1.320 -0.4368  0.7464  0.5021
              Bcc     0.0607     8.144     2.906     2.717  0.4209  0.6629 -0.6193
 
              Baa    -0.0304    -4.082    -1.457    -1.362  0.2650  0.8583 -0.4394
    52 C(13)  Bbb     0.0140     1.879     0.670     0.627  0.7497  0.1031  0.6536
              Bcc     0.0164     2.203     0.786     0.735 -0.6064  0.5026  0.6162
 
              Baa    -0.0047    -0.633    -0.226    -0.211  0.4889  0.8409 -0.2321
    53 C(13)  Bbb     0.0023     0.311     0.111     0.104  0.6402 -0.1651  0.7503
              Bcc     0.0024     0.322     0.115     0.107 -0.5926  0.5154  0.6190
 
              Baa    -0.0296    -3.973    -1.418    -1.325  0.2469  0.8646  0.4376
    54 C(13)  Bbb    -0.0272    -3.654    -1.304    -1.219  0.7287 -0.4634  0.5043
              Bcc     0.0568     7.628     2.722     2.544 -0.6388 -0.1944  0.7444
 
              Baa    -0.0072    -0.962    -0.343    -0.321  0.8666  0.3460 -0.3596
    55 C(13)  Bbb     0.0033     0.442     0.158     0.147 -0.0445  0.7713  0.6349
              Bcc     0.0039     0.520     0.186     0.173  0.4971 -0.5342  0.6838
 
              Baa    -0.0239    -3.203    -1.143    -1.068  0.7720  0.0119 -0.6355
    56 C(13)  Bbb     0.0104     1.393     0.497     0.465  0.5338  0.5308  0.6583
              Bcc     0.0135     1.809     0.646     0.603 -0.3451  0.8474 -0.4034
 
              Baa    -0.0130    -1.744    -0.622    -0.582  0.8493  0.2898  0.4412
    57 C(13)  Bbb     0.0060     0.803     0.286     0.268 -0.3845  0.9123  0.1411
              Bcc     0.0070     0.942     0.336     0.314 -0.3616 -0.2895  0.8862
 
              Baa    -0.0123    -1.644    -0.587    -0.549 -0.0282  0.9988 -0.0412
    58 C(13)  Bbb    -0.0114    -1.534    -0.547    -0.512  0.7249 -0.0079 -0.6888
              Bcc     0.0237     3.179     1.134     1.060  0.6883  0.0492  0.7238
 
              Baa    -0.0167    -2.242    -0.800    -0.748  0.7786 -0.3314  0.5328
    59 C(13)  Bbb     0.0075     1.000     0.357     0.334  0.4997  0.8411 -0.2070
              Bcc     0.0093     1.242     0.443     0.414 -0.3795  0.4274  0.8205
 
              Baa    -0.0078    -1.049    -0.374    -0.350 -0.1878  0.9778 -0.0934
    60 C(13)  Bbb    -0.0075    -1.005    -0.359    -0.335 -0.2351  0.0476  0.9708
              Bcc     0.0153     2.055     0.733     0.685  0.9537  0.2042  0.2209
 
              Baa    -0.0168    -2.254    -0.804    -0.752 -0.6814  0.7263  0.0906
    61 C(13)  Bbb     0.0075     1.006     0.359     0.336  0.5665  0.6017 -0.5631
              Bcc     0.0093     1.247     0.445     0.416  0.4635  0.3323  0.8214
 
              Baa    -0.0159    -2.131    -0.761    -0.711  0.7589  0.6195 -0.2009
    62 C(13)  Bbb    -0.0137    -1.842    -0.657    -0.614  0.3855 -0.1787  0.9052
              Bcc     0.0296     3.974     1.418     1.325 -0.5249  0.7644  0.3744
 
              Baa    -0.0452    -6.061    -2.163    -2.022 -0.5764  0.4423  0.6871
    63 C(13)  Bbb     0.0176     2.368     0.845     0.790  0.2171  0.8935 -0.3931
              Bcc     0.0275     3.693     1.318     1.232  0.7878  0.0774  0.6110
 
              Baa    -0.0530    -7.111    -2.538    -2.372  0.2833  0.9570  0.0622
    64 C(13)  Bbb    -0.0500    -6.708    -2.394    -2.237  0.4150 -0.1808  0.8917
              Bcc     0.1030    13.819     4.931     4.610  0.8646 -0.2268 -0.4484
 
              Baa    -0.0243    -3.259    -1.163    -1.087  0.4658  0.8791 -0.1013
    65 C(13)  Bbb    -0.0228    -3.064    -1.093    -1.022 -0.1015  0.1668  0.9808
              Bcc     0.0471     6.323     2.256     2.109  0.8790 -0.4466  0.1669
 
              Baa    -0.0232    -3.113    -1.111    -1.038  0.9728 -0.2089 -0.0999
    66 C(13)  Bbb     0.0095     1.280     0.457     0.427  0.2265  0.9481  0.2234
              Bcc     0.0137     1.833     0.654     0.611  0.0481 -0.2399  0.9696
 
              Baa    -0.0141    -0.739    -0.264    -0.247 -0.2013 -0.4722  0.8582
    67 Cl(35) Bbb    -0.0033    -0.174    -0.062    -0.058  0.3786  0.7705  0.5128
              Bcc     0.0175     0.913     0.326     0.305  0.9034 -0.4281 -0.0237
 
              Baa    -0.0023    -0.122    -0.043    -0.041  0.5775  0.7195 -0.3858
    68 Cl(35) Bbb    -0.0001    -0.003    -0.001    -0.001  0.2326  0.3080  0.9225
              Bcc     0.0024     0.125     0.045     0.042  0.7825 -0.6225  0.0105
 
              Baa    -0.0289    -1.514    -0.540    -0.505  0.9237 -0.3615  0.1267
    69 Cl(35) Bbb     0.0120     0.626     0.223     0.209  0.3268  0.9163  0.2314
              Bcc     0.0170     0.888     0.317     0.296 -0.1998 -0.1724  0.9646
 
              Baa    -0.1313    -6.871    -2.452    -2.292 -0.5432  0.3119  0.7795
    70 Cl(35) Bbb    -0.1118    -5.851    -2.088    -1.952  0.4735  0.8805 -0.0224
              Bcc     0.2431    12.722     4.540     4.244  0.6933 -0.3569  0.6260
 
              Baa    -0.0549    -2.875    -1.026    -0.959 -0.0439  0.4657  0.8839
    71 Cl(35) Bbb    -0.0471    -2.466    -0.880    -0.823  0.7535 -0.5655  0.3353
              Bcc     0.1021     5.341     1.906     1.782  0.6559  0.6807 -0.3261
 
              Baa    -0.0316    -1.654    -0.590    -0.552  0.1362  0.9898 -0.0409
    72 Cl(35) Bbb     0.0139     0.725     0.259     0.242 -0.6138  0.1167  0.7808
              Bcc     0.0178     0.929     0.332     0.310  0.7776 -0.0812  0.6234
 
              Baa    -0.1073    -5.615    -2.003    -1.873  0.1669 -0.6772  0.7166
    73 Cl(35) Bbb    -0.0924    -4.836    -1.726    -1.613  0.9771  0.0163 -0.2121
              Bcc     0.1997    10.451     3.729     3.486  0.1319  0.7356  0.6644
 

 ---------------------------------------------------------------------------------

 No NMR shielding tensors so no spin-rotation constants.
 Leave Link  601 at Sat Jul 16 19:06:48 2022, MaxMem=  1342177280 cpu:             131.1 elap:               3.0
 (Enter /home/mkliu/g16/l9999.exe)
 1\1\GINC-NODE02\FOpt\UB3LYP\6-311G(d,p)\C66Cl7(2)\MKLIU\16-Jul-2022\0\
 \#P opt b3lyp/6-311G(d, p) empiricaldispersion=GD3\\force\\0,2\C,-1.32
 36276074,1.8516906782,-3.8905768689\C,0.1897939695,2.2744947217,-4.116
 2883982\C,0.9477527924,0.8621046966,-4.3087604844\C,-1.347299443,0.351
 6278191,-3.9739470104\C,-0.1130434309,-0.2011060538,-4.2310381841\C,-2
 .2120208819,-0.1864153843,-3.00934756\C,-1.9210564687,2.0593115547,-2.
 5261369877\C,-2.6479992375,0.9158356649,-2.1575177877\C,-1.4183171305,
 2.9359016537,-1.5512057417\C,0.879243033,2.9317420242,-2.8045605296\C,
 -0.0122738637,3.2932427668,-1.6044122381\C,1.7840855156,0.7014877274,-
 3.0652784992\C,1.8205790169,1.850610492,-2.3015681613\C,2.1711681553,-
 0.5365633898,-2.5409983146\C,0.1755816637,-1.4456639945,-3.687054039\C
 ,1.5729882724,-1.7984037245,-3.1798259659\C,-1.9817659116,-1.453757397
 8,-2.4466547073\C,-0.7888770523,-2.1108417961,-2.9030481053\C,-2.49504
 61531,-1.7503873177,-1.1038755633\C,-3.0904449556,0.6881703944,-0.8354
 345792\C,-3.1051102697,-0.6767612157,-0.3079156328\C,-2.0730602463,2.8
 697557164,-0.2941691232\C,-2.9577732651,1.7888230746,0.041188794\C,-1.
 4150124189,3.2799110862,0.909431438\C,0.6466583303,3.5060452366,-0.409
 6940875\C,-0.0515516363,3.5417182957,0.8425727885\C,2.3858332503,1.842
 3377555,-1.0169178305\C,2.0943448099,3.0493969827,-0.1354314779\C,2.79
 64066407,-0.5715026249,-1.265861038\C,2.9328976963,0.6536348963,-0.518
 2538937\C,2.9041763451,-1.8419930107,-0.5707010816\C,1.2768470922,-2.8
 291831737,-2.121245233\C,-0.1227785459,-3.0669567955,-2.0516504498\C,2
 .0317697563,-2.9247736599,-0.9720223337\C,-1.9437672454,-2.8544149856,
 -0.4186123796\C,-0.7214450294,-3.4939490724,-0.8810686547\C,-1.9381282
 767,-2.9319861375,1.0160032137\C,-3.1612467563,-0.8215424775,1.0967586
 301\C,-2.5512607343,-1.9395457317,1.7634320436\C,-2.9140702004,1.59965
 25941,1.468450618\C,-1.9536673962,2.5259634512,2.0222126514\C,-3.03779
 9667,0.3231142163,1.9875455261\C,-1.1349086137,2.1249836505,3.07200017
 19\C,0.8092186714,3.0861891684,1.9085820594\C,2.0386305345,2.660724131
 3,1.3219166733\C,0.2838321451,2.4223476508,3.0192087525\C,3.454603576,
 0.6117171011,0.9191229646\C,2.6996232766,1.577934877,1.815493205\C,2.9
 861575649,-1.8686132222,0.8704733536\C,3.1789560689,-0.7160118644,1.59
 75749929\C,1.4573092459,-3.5058393048,0.2233296219\C,0.0925225152,-3.8
 067138897,0.2645162453\C,-0.6739334471,-3.4986348171,1.4521619873\C,2.
 0873653112,-2.8941354495,1.3677137454\C,-0.048614424,-2.991535064,2.58
 56129638\C,1.3707210033,-2.6835542659,2.5440344694\C,-1.9485933645,-1.
 4764599273,2.9985908126\C,-2.2514810928,-0.0706327961,3.1354746037\C,-
 1.2926983873,0.8079296534,3.6532324275\C,-0.7018983725,-1.969161552,3.
 3826192732\C,0.9964831385,1.3022101639,3.5697151784\C,2.1833560192,0.8
 899606619,2.961827025\C,2.4821572338,-0.5179396609,2.8263820439\C,1.58
 48445399,-1.4789938504,3.3066350061\C,0.0241119475,0.3063576814,3.9913
 2975\C,0.3131788535,-1.0497386829,3.8580119409\Cl,-2.5414446522,2.5857
 353655,-5.0600941225\Cl,0.3466067553,3.3039027049,-5.5614551096\Cl,2.0
 02673378,0.7163220469,-5.7778333908\Cl,2.6981421581,-2.5089246003,-4.4
 615395372\Cl,1.8278297666,4.4418119676,-3.2370156297\Cl,3.3924680396,4
 .351195204,-0.3050467889\Cl,5.2779314843,0.9752171647,0.8882357526\\Ve
 rsion=ES64L-G16RevA.03\State=2-A\HF=-5736.9833581\S2=0.784237\S2-1=0.\
 S2A=0.751132\RMSD=4.479e-09\RMSF=3.521e-05\Dipole=-1.3386968,-0.980460
 6,1.5097854\Quadrupole=-1.3466213,2.5013503,-1.154729,-1.2839304,-0.18
 41048,1.1550057\PG=C01 [X(C66Cl7)]\\@


 SUPPORT THE RIGHT TO ARM BEARS!
 (ADD A CLAWS TO THE BILL OF RIGHTS)
 Job cpu time:       5 days  8 hours 37 minutes  1.6 seconds.
 Elapsed time:       0 days  2 hours 41 minutes  0.4 seconds.
 File lengths (MBytes):  RWF=   2038 Int=      0 D2E=      0 Chk=    184 Scr=      1
 Normal termination of Gaussian 16 at Sat Jul 16 19:06:50 2022.
