 Entering Gaussian System, Link 0=g16
 Input=dmjscwr7lyl1c_addon_7.gjf
 Output=dmjscwr7lyl1c_addon_7.log
 Initial command:
 /home/mkliu/g16/l1.exe "/data/scratch/Gau-225731.inp" -scrdir="/data/scratch/"
 Entering Link 1 = /home/mkliu/g16/l1.exe PID=    225732.
  
 Copyright (c) 1988,1990,1992,1993,1995,1998,2003,2009,2016,
            Gaussian, Inc.  All Rights Reserved.
  
 This is part of the Gaussian(R) 16 program.  It is based on
 the Gaussian(R) 09 system (copyright 2009, Gaussian, Inc.),
 the Gaussian(R) 03 system (copyright 2003, Gaussian, Inc.),
 the Gaussian(R) 98 system (copyright 1998, Gaussian, Inc.),
 the Gaussian(R) 94 system (copyright 1995, Gaussian, Inc.),
 the Gaussian 92(TM) system (copyright 1992, Gaussian, Inc.),
 the Gaussian 90(TM) system (copyright 1990, Gaussian, Inc.),
 the Gaussian 88(TM) system (copyright 1988, Gaussian, Inc.),
 the Gaussian 86(TM) system (copyright 1986, Carnegie Mellon
 University), and the Gaussian 82(TM) system (copyright 1983,
 Carnegie Mellon University). Gaussian is a federally registered
 trademark of Gaussian, Inc.
  
 This software contains proprietary and confidential information,
 including trade secrets, belonging to Gaussian, Inc.
  
 This software is provided under written license and may be
 used, copied, transmitted, or stored only in accord with that
 written license.
  
 The following legend is applicable only to US Government
 contracts under FAR:
  
                    RESTRICTED RIGHTS LEGEND
  
 Use, reproduction and disclosure by the US Government is
 subject to restrictions as set forth in subparagraphs (a)
 and (c) of the Commercial Computer Software - Restricted
 Rights clause in FAR 52.227-19.
  
 Gaussian, Inc.
 340 Quinnipiac St., Bldg. 40, Wallingford CT 06492
  
  
 ---------------------------------------------------------------
 Warning -- This program may not be used in any manner that
 competes with the business of Gaussian, Inc. or will provide
 assistance to any competitor of Gaussian, Inc.  The licensee
 of this program is prohibited from giving any competitor of
 Gaussian, Inc. access to this program.  By using this program,
 the user acknowledges that Gaussian, Inc. is engaged in the
 business of creating and licensing software in the field of
 computational chemistry and represents and warrants to the
 licensee that it is not a competitor of Gaussian, Inc. and that
 it will not use this program in any manner prohibited above.
 ---------------------------------------------------------------
  

 Cite this work as:
 Gaussian 16, Revision A.03,
 M. J. Frisch, G. W. Trucks, H. B. Schlegel, G. E. Scuseria, 
 M. A. Robb, J. R. Cheeseman, G. Scalmani, V. Barone, 
 G. A. Petersson, H. Nakatsuji, X. Li, M. Caricato, A. V. Marenich, 
 J. Bloino, B. G. Janesko, R. Gomperts, B. Mennucci, H. P. Hratchian, 
 J. V. Ortiz, A. F. Izmaylov, J. L. Sonnenberg, D. Williams-Young, 
 F. Ding, F. Lipparini, F. Egidi, J. Goings, B. Peng, A. Petrone, 
 T. Henderson, D. Ranasinghe, V. G. Zakrzewski, J. Gao, N. Rega, 
 G. Zheng, W. Liang, M. Hada, M. Ehara, K. Toyota, R. Fukuda, 
 J. Hasegawa, M. Ishida, T. Nakajima, Y. Honda, O. Kitao, H. Nakai, 
 T. Vreven, K. Throssell, J. A. Montgomery, Jr., J. E. Peralta, 
 F. Ogliaro, M. J. Bearpark, J. J. Heyd, E. N. Brothers, K. N. Kudin, 
 V. N. Staroverov, T. A. Keith, R. Kobayashi, J. Normand, 
 K. Raghavachari, A. P. Rendell, J. C. Burant, S. S. Iyengar, 
 J. Tomasi, M. Cossi, J. M. Millam, M. Klene, C. Adamo, R. Cammi, 
 J. W. Ochterski, R. L. Martin, K. Morokuma, O. Farkas, 
 J. B. Foresman, and D. J. Fox, Gaussian, Inc., Wallingford CT, 2016.
 
 ******************************************
 Gaussian 16:  ES64L-G16RevA.03 25-Dec-2016
                15-Jul-2022 
 ******************************************
 %mem=10GB
 %chk=dmjscwr7lyl1c_addon_7.chk
 %nprocshared=48
 Will use up to   48 processors via shared memory.
 -------------------------------------------------
 #P opt b3lyp/6-311G(d, p) empiricaldispersion=GD3
 -------------------------------------------------
 1/18=20,19=15,26=3,38=1/1,3;
 2/9=110,12=2,17=6,18=5,40=1/2;
 3/5=4,6=6,7=101,11=2,25=1,30=1,71=1,74=-5,124=31/1,2,3;
 4//1;
 5/5=2,38=5/2;
 6/7=2,8=2,9=2,10=2,28=1/1;
 7//1,2,3,16;
 1/18=20,19=15,26=3/3(2);
 2/9=110/2;
 99//99;
 2/9=110/2;
 3/5=4,6=6,7=101,11=2,25=1,30=1,71=1,74=-5,124=31/1,2,3;
 4/5=5,16=3,69=1/1;
 5/5=2,38=5/2;
 7//1,2,3,16;
 1/18=20,19=15,26=3/3(-5);
 2/9=110/2;
 6/7=2,8=2,9=2,10=2,19=2,28=1/1;
 99/9=1/99;
 Leave Link    1 at Fri Jul 15 19:05:36 2022, MaxMem=  1342177280 cpu:               2.1 elap:               0.1
 (Enter /home/mkliu/g16/l101.exe)
 -----
 force
 -----
 Symbolic Z-matrix:
 Charge =  0 Multiplicity = 2
 C                    -1.32048   1.88708  -3.89438 
 C                     0.19671   2.22032  -3.98671 
 C                     0.95826   0.89989  -4.30583 
 C                    -1.2988    0.39304  -3.8905 
 C                    -0.0974   -0.13339  -4.16271 
 C                    -2.20921  -0.14405  -2.93406 
 C                    -1.98133   2.11836  -2.5698 
 C                    -2.65958   0.92367  -2.14457 
 C                    -1.46957   2.94796  -1.58286 
 C                     0.70765   2.60345  -2.64302 
 C                    -0.02542   3.21802  -1.64217 
 C                     1.8473    0.66559  -3.09874 
 C                     1.80357   1.79718  -2.26454 
 C                     2.1497   -0.54706  -2.54078 
 C                     0.20812  -1.53086  -3.84699 
 C                     1.62056  -1.80654  -3.20344 
 C                    -1.92717  -1.4002   -2.35445 
 C                    -0.76649  -2.04716  -2.82139 
 C                    -2.47151  -1.70153  -1.04633 
 C                    -3.09728   0.69737  -0.81268 
 C                    -3.10418  -0.64748  -0.27934 
 C                    -2.06837   2.85481  -0.31088 
 C                    -2.94762   1.79405   0.04441 
 C                    -1.3918    3.25639   0.88334 
 C                     0.65231   3.39275  -0.40951 
 C                    -0.04336   3.52701   0.83789 
 C                     2.37782   1.79909  -1.00284 
 C                     1.89156   2.78845  -0.1287 
 C                     2.81014  -0.5783   -1.2539 
 C                     2.9654    0.57972  -0.52059 
 C                     3.13556  -1.91902  -0.62585 
 C                     1.30205  -2.78642  -2.11261 
 C                    -0.11979  -2.97992  -2.01203 
 C                     2.02527  -2.87067  -0.97512 
 C                    -1.93115  -2.79844  -0.37329 
 C                    -0.7196   -3.40001  -0.83712 
 C                    -1.94753  -2.88978   1.05543 
 C                    -3.15884  -0.78565   1.11615 
 C                    -2.56389  -1.90354   1.79064 
 C                    -2.90123   1.61857   1.46746 
 C                    -1.94449   2.53585   2.0064 
 C                    -3.03912   0.35074   1.99459 
 C                    -1.1296    2.12935   3.04434 
 C                     0.81492   3.08144   1.9034 
 C                     2.02933   2.61887   1.29871 
 C                     0.28298   2.41588   2.98797 
 C                     3.47135   0.58288   0.91197 
 C                     2.70561   1.53567   1.78899 
 C                     3.0091   -1.86728   0.87355 
 C                     3.18931  -0.72797   1.58379 
 C                     1.43913  -3.42622   0.21764 
 C                     0.08908  -3.72041   0.27864 
 C                    -0.68441  -3.44266   1.46273 
 C                     2.06917  -2.83682   1.3456 
 C                    -0.05984  -2.9285    2.57858 
 C                     1.34432  -2.62296   2.51185 
 C                    -1.96332  -1.44274   3.01131 
 C                    -2.25532  -0.04085   3.13386 
 C                    -1.29711   0.8287    3.62729 
 C                    -0.72139  -1.92929   3.37628 
 C                     0.9904    1.29738   3.52225 
 C                     2.18369   0.87868   2.93833 
 C                     2.46949  -0.51505   2.8024 
 C                     1.55722  -1.44021   3.26968 
 C                     0.01959   0.32931   3.95001 
 C                     0.29754  -1.01921   3.82564 
 Cl                   -2.26322   2.59667  -5.24386 
 Cl                    0.52655   3.56311  -5.10772 
 Cl                    1.82751   0.78586  -5.84791 
 Cl                    2.84724  -2.38424  -4.36305 
 Cl                    4.7819   -2.44832  -1.14324 
 Cl                    5.24652   0.95465   0.81349 
 Cl                    0.01507  -2.51012  -5.37761 
 
 ITRead=  0  0  0  0  0  0  0  0  0  0  0  0  0  0  0  0  0  0  0  0
 ITRead=  0  0  0  0  0  0  0  0  0  0  0  0  0  0  0  0  0  0  0  0
 ITRead=  0  0  0  0  0  0  0  0  0  0  0  0  0  0  0  0  0  0  0  0
 ITRead=  0  0  0  0  0  0  0  0  0  0  0  0  0
 MicOpt= -1 -1 -1 -1 -1 -1 -1 -1 -1 -1 -1 -1 -1 -1 -1 -1 -1 -1 -1 -1
 MicOpt= -1 -1 -1 -1 -1 -1 -1 -1 -1 -1 -1 -1 -1 -1 -1 -1 -1 -1 -1 -1
 MicOpt= -1 -1 -1 -1 -1 -1 -1 -1 -1 -1 -1 -1 -1 -1 -1 -1 -1 -1 -1 -1
 MicOpt= -1 -1 -1 -1 -1 -1 -1 -1 -1 -1 -1 -1 -1
 NAtoms=     73 NQM=       73 NQMF=       0 NMMI=      0 NMMIF=      0
                NMic=       0 NMicF=      0.
                    Isotopes and Nuclear Properties:
 (Nuclear quadrupole moments (NQMom) in fm**2, nuclear magnetic moments (NMagM)
  in nuclear magnetons)

  Atom         1           2           3           4           5           6           7           8           9          10
 IAtWgt=          12          12          12          12          12          12          12          12          12          12
 AtmWgt=  12.0000000  12.0000000  12.0000000  12.0000000  12.0000000  12.0000000  12.0000000  12.0000000  12.0000000  12.0000000
 NucSpn=           0           0           0           0           0           0           0           0           0           0
 AtZEff=  -0.0000000  -0.0000000  -0.0000000  -0.0000000  -0.0000000  -0.0000000  -0.0000000  -0.0000000  -0.0000000  -0.0000000
 NQMom=    0.0000000   0.0000000   0.0000000   0.0000000   0.0000000   0.0000000   0.0000000   0.0000000   0.0000000   0.0000000
 NMagM=    0.0000000   0.0000000   0.0000000   0.0000000   0.0000000   0.0000000   0.0000000   0.0000000   0.0000000   0.0000000
 AtZNuc=   6.0000000   6.0000000   6.0000000   6.0000000   6.0000000   6.0000000   6.0000000   6.0000000   6.0000000   6.0000000

  Atom        11          12          13          14          15          16          17          18          19          20
 IAtWgt=          12          12          12          12          12          12          12          12          12          12
 AtmWgt=  12.0000000  12.0000000  12.0000000  12.0000000  12.0000000  12.0000000  12.0000000  12.0000000  12.0000000  12.0000000
 NucSpn=           0           0           0           0           0           0           0           0           0           0
 AtZEff=  -0.0000000  -0.0000000  -0.0000000  -0.0000000  -0.0000000  -0.0000000  -0.0000000  -0.0000000  -0.0000000  -0.0000000
 NQMom=    0.0000000   0.0000000   0.0000000   0.0000000   0.0000000   0.0000000   0.0000000   0.0000000   0.0000000   0.0000000
 NMagM=    0.0000000   0.0000000   0.0000000   0.0000000   0.0000000   0.0000000   0.0000000   0.0000000   0.0000000   0.0000000
 AtZNuc=   6.0000000   6.0000000   6.0000000   6.0000000   6.0000000   6.0000000   6.0000000   6.0000000   6.0000000   6.0000000

  Atom        21          22          23          24          25          26          27          28          29          30
 IAtWgt=          12          12          12          12          12          12          12          12          12          12
 AtmWgt=  12.0000000  12.0000000  12.0000000  12.0000000  12.0000000  12.0000000  12.0000000  12.0000000  12.0000000  12.0000000
 NucSpn=           0           0           0           0           0           0           0           0           0           0
 AtZEff=  -0.0000000  -0.0000000  -0.0000000  -0.0000000  -0.0000000  -0.0000000  -0.0000000  -0.0000000  -0.0000000  -0.0000000
 NQMom=    0.0000000   0.0000000   0.0000000   0.0000000   0.0000000   0.0000000   0.0000000   0.0000000   0.0000000   0.0000000
 NMagM=    0.0000000   0.0000000   0.0000000   0.0000000   0.0000000   0.0000000   0.0000000   0.0000000   0.0000000   0.0000000
 AtZNuc=   6.0000000   6.0000000   6.0000000   6.0000000   6.0000000   6.0000000   6.0000000   6.0000000   6.0000000   6.0000000

  Atom        31          32          33          34          35          36          37          38          39          40
 IAtWgt=          12          12          12          12          12          12          12          12          12          12
 AtmWgt=  12.0000000  12.0000000  12.0000000  12.0000000  12.0000000  12.0000000  12.0000000  12.0000000  12.0000000  12.0000000
 NucSpn=           0           0           0           0           0           0           0           0           0           0
 AtZEff=  -0.0000000  -0.0000000  -0.0000000  -0.0000000  -0.0000000  -0.0000000  -0.0000000  -0.0000000  -0.0000000  -0.0000000
 NQMom=    0.0000000   0.0000000   0.0000000   0.0000000   0.0000000   0.0000000   0.0000000   0.0000000   0.0000000   0.0000000
 NMagM=    0.0000000   0.0000000   0.0000000   0.0000000   0.0000000   0.0000000   0.0000000   0.0000000   0.0000000   0.0000000
 AtZNuc=   6.0000000   6.0000000   6.0000000   6.0000000   6.0000000   6.0000000   6.0000000   6.0000000   6.0000000   6.0000000

  Atom        41          42          43          44          45          46          47          48          49          50
 IAtWgt=          12          12          12          12          12          12          12          12          12          12
 AtmWgt=  12.0000000  12.0000000  12.0000000  12.0000000  12.0000000  12.0000000  12.0000000  12.0000000  12.0000000  12.0000000
 NucSpn=           0           0           0           0           0           0           0           0           0           0
 AtZEff=  -0.0000000  -0.0000000  -0.0000000  -0.0000000  -0.0000000  -0.0000000  -0.0000000  -0.0000000  -0.0000000  -0.0000000
 NQMom=    0.0000000   0.0000000   0.0000000   0.0000000   0.0000000   0.0000000   0.0000000   0.0000000   0.0000000   0.0000000
 NMagM=    0.0000000   0.0000000   0.0000000   0.0000000   0.0000000   0.0000000   0.0000000   0.0000000   0.0000000   0.0000000
 AtZNuc=   6.0000000   6.0000000   6.0000000   6.0000000   6.0000000   6.0000000   6.0000000   6.0000000   6.0000000   6.0000000

  Atom        51          52          53          54          55          56          57          58          59          60
 IAtWgt=          12          12          12          12          12          12          12          12          12          12
 AtmWgt=  12.0000000  12.0000000  12.0000000  12.0000000  12.0000000  12.0000000  12.0000000  12.0000000  12.0000000  12.0000000
 NucSpn=           0           0           0           0           0           0           0           0           0           0
 AtZEff=  -0.0000000  -0.0000000  -0.0000000  -0.0000000  -0.0000000  -0.0000000  -0.0000000  -0.0000000  -0.0000000  -0.0000000
 NQMom=    0.0000000   0.0000000   0.0000000   0.0000000   0.0000000   0.0000000   0.0000000   0.0000000   0.0000000   0.0000000
 NMagM=    0.0000000   0.0000000   0.0000000   0.0000000   0.0000000   0.0000000   0.0000000   0.0000000   0.0000000   0.0000000
 AtZNuc=   6.0000000   6.0000000   6.0000000   6.0000000   6.0000000   6.0000000   6.0000000   6.0000000   6.0000000   6.0000000

  Atom        61          62          63          64          65          66          67          68          69          70
 IAtWgt=          12          12          12          12          12          12          35          35          35          35
 AtmWgt=  12.0000000  12.0000000  12.0000000  12.0000000  12.0000000  12.0000000  34.9688527  34.9688527  34.9688527  34.9688527
 NucSpn=           0           0           0           0           0           0           3           3           3           3
 AtZEff=  -0.0000000  -0.0000000  -0.0000000  -0.0000000  -0.0000000  -0.0000000  -0.0000000  -0.0000000  -0.0000000  -0.0000000
 NQMom=    0.0000000   0.0000000   0.0000000   0.0000000   0.0000000   0.0000000  -8.1650000  -8.1650000  -8.1650000  -8.1650000
 NMagM=    0.0000000   0.0000000   0.0000000   0.0000000   0.0000000   0.0000000   0.8218740   0.8218740   0.8218740   0.8218740
 AtZNuc=   6.0000000   6.0000000   6.0000000   6.0000000   6.0000000   6.0000000  17.0000000  17.0000000  17.0000000  17.0000000

  Atom        71          72          73
 IAtWgt=          35          35          35
 AtmWgt=  34.9688527  34.9688527  34.9688527
 NucSpn=           3           3           3
 AtZEff=  -0.0000000  -0.0000000  -0.0000000
 NQMom=   -8.1650000  -8.1650000  -8.1650000
 NMagM=    0.8218740   0.8218740   0.8218740
 AtZNuc=  17.0000000  17.0000000  17.0000000
 Leave Link  101 at Fri Jul 15 19:05:36 2022, MaxMem=  1342177280 cpu:              12.9 elap:               0.3
 (Enter /home/mkliu/g16/l103.exe)

 GradGradGradGradGradGradGradGradGradGradGradGradGradGradGradGradGradGrad
 Berny optimization.
 Initialization pass.
                           ----------------------------
                           !    Initial Parameters    !
                           ! (Angstroms and Degrees)  !
 --------------------------                            --------------------------
 ! Name  Definition              Value          Derivative Info.                !
 --------------------------------------------------------------------------------
 ! R1    R(1,2)                  1.5561         estimate D2E/DX2                !
 ! R2    R(1,4)                  1.4942         estimate D2E/DX2                !
 ! R3    R(1,7)                  1.4982         estimate D2E/DX2                !
 ! R4    R(1,67)                 1.7926         estimate D2E/DX2                !
 ! R5    R(2,3)                  1.5573         estimate D2E/DX2                !
 ! R6    R(2,10)                 1.4877         estimate D2E/DX2                !
 ! R7    R(2,68)                 1.78           estimate D2E/DX2                !
 ! R8    R(3,5)                  1.4841         estimate D2E/DX2                !
 ! R9    R(3,12)                 1.5174         estimate D2E/DX2                !
 ! R10   R(3,69)                 1.7739         estimate D2E/DX2                !
 ! R11   R(4,5)                  1.3396         estimate D2E/DX2                !
 ! R12   R(4,6)                  1.4255         estimate D2E/DX2                !
 ! R13   R(5,15)                 1.4649         estimate D2E/DX2                !
 ! R14   R(6,8)                  1.4022         estimate D2E/DX2                !
 ! R15   R(6,17)                 1.4119         estimate D2E/DX2                !
 ! R16   R(7,8)                  1.4381         estimate D2E/DX2                !
 ! R17   R(7,9)                  1.3871         estimate D2E/DX2                !
 ! R18   R(8,20)                 1.4201         estimate D2E/DX2                !
 ! R19   R(9,11)                 1.4704         estimate D2E/DX2                !
 ! R20   R(9,22)                 1.409          estimate D2E/DX2                !
 ! R21   R(10,11)                1.3845         estimate D2E/DX2                !
 ! R22   R(10,13)                1.4122         estimate D2E/DX2                !
 ! R23   R(11,25)                1.4175         estimate D2E/DX2                !
 ! R24   R(12,13)                1.4065         estimate D2E/DX2                !
 ! R25   R(12,14)                1.3687         estimate D2E/DX2                !
 ! R26   R(13,27)                1.3862         estimate D2E/DX2                !
 ! R27   R(14,16)                1.5184         estimate D2E/DX2                !
 ! R28   R(14,29)                1.4468         estimate D2E/DX2                !
 ! R29   R(15,16)                1.5764         estimate D2E/DX2                !
 ! R30   R(15,18)                1.5061         estimate D2E/DX2                !
 ! R31   R(15,73)                1.8273         estimate D2E/DX2                !
 ! R32   R(16,32)                1.5005         estimate D2E/DX2                !
 ! R33   R(16,70)                1.7841         estimate D2E/DX2                !
 ! R34   R(17,18)                1.4085         estimate D2E/DX2                !
 ! R35   R(17,19)                1.4485         estimate D2E/DX2                !
 ! R36   R(18,33)                1.394          estimate D2E/DX2                !
 ! R37   R(19,21)                1.449          estimate D2E/DX2                !
 ! R38   R(19,35)                1.3958         estimate D2E/DX2                !
 ! R39   R(20,21)                1.4468         estimate D2E/DX2                !
 ! R40   R(20,23)                1.3999         estimate D2E/DX2                !
 ! R41   R(21,38)                1.4034         estimate D2E/DX2                !
 ! R42   R(22,23)                1.4229         estimate D2E/DX2                !
 ! R43   R(22,24)                1.4301         estimate D2E/DX2                !
 ! R44   R(23,40)                1.4346         estimate D2E/DX2                !
 ! R45   R(24,26)                1.3761         estimate D2E/DX2                !
 ! R46   R(24,41)                1.4443         estimate D2E/DX2                !
 ! R47   R(25,26)                1.4346         estimate D2E/DX2                !
 ! R48   R(25,28)                1.407          estimate D2E/DX2                !
 ! R49   R(26,44)                1.4389         estimate D2E/DX2                !
 ! R50   R(27,28)                1.4069         estimate D2E/DX2                !
 ! R51   R(27,30)                1.4369         estimate D2E/DX2                !
 ! R52   R(28,45)                1.444          estimate D2E/DX2                !
 ! R53   R(29,30)                1.3794         estimate D2E/DX2                !
 ! R54   R(29,31)                1.5159         estimate D2E/DX2                !
 ! R55   R(30,47)                1.5193         estimate D2E/DX2                !
 ! R56   R(31,34)                1.5035         estimate D2E/DX2                !
 ! R57   R(31,49)                1.5056         estimate D2E/DX2                !
 ! R58   R(31,71)                1.8051         estimate D2E/DX2                !
 ! R59   R(32,33)                1.4385         estimate D2E/DX2                !
 ! R60   R(32,34)                1.3506         estimate D2E/DX2                !
 ! R61   R(33,36)                1.3844         estimate D2E/DX2                !
 ! R62   R(34,51)                1.4404         estimate D2E/DX2                !
 ! R63   R(35,36)                1.43           estimate D2E/DX2                !
 ! R64   R(35,37)                1.4317         estimate D2E/DX2                !
 ! R65   R(36,52)                1.4148         estimate D2E/DX2                !
 ! R66   R(37,39)                1.3759         estimate D2E/DX2                !
 ! R67   R(37,53)                1.4377         estimate D2E/DX2                !
 ! R68   R(38,39)                1.4348         estimate D2E/DX2                !
 ! R69   R(38,42)                1.4413         estimate D2E/DX2                !
 ! R70   R(39,57)                1.4363         estimate D2E/DX2                !
 ! R71   R(40,41)                1.4308         estimate D2E/DX2                !
 ! R72   R(40,42)                1.38           estimate D2E/DX2                !
 ! R73   R(41,43)                1.3808         estimate D2E/DX2                !
 ! R74   R(42,58)                1.4372         estimate D2E/DX2                !
 ! R75   R(43,46)                1.4425         estimate D2E/DX2                !
 ! R76   R(43,59)                1.4351         estimate D2E/DX2                !
 ! R77   R(44,45)                1.4333         estimate D2E/DX2                !
 ! R78   R(44,46)                1.3792         estimate D2E/DX2                !
 ! R79   R(45,48)                1.3679         estimate D2E/DX2                !
 ! R80   R(46,61)                1.4272         estimate D2E/DX2                !
 ! R81   R(47,48)                1.5044         estimate D2E/DX2                !
 ! R82   R(47,50)                1.4997         estimate D2E/DX2                !
 ! R83   R(47,72)                1.8163         estimate D2E/DX2                !
 ! R84   R(48,62)                1.423          estimate D2E/DX2                !
 ! R85   R(49,50)                1.3546         estimate D2E/DX2                !
 ! R86   R(49,54)                1.4305         estimate D2E/DX2                !
 ! R87   R(50,63)                1.4312         estimate D2E/DX2                !
 ! R88   R(51,52)                1.3831         estimate D2E/DX2                !
 ! R89   R(51,54)                1.4201         estimate D2E/DX2                !
 ! R90   R(52,53)                1.4414         estimate D2E/DX2                !
 ! R91   R(53,55)                1.3783         estimate D2E/DX2                !
 ! R92   R(54,56)                1.3897         estimate D2E/DX2                !
 ! R93   R(55,56)                1.4386         estimate D2E/DX2                !
 ! R94   R(55,60)                1.4396         estimate D2E/DX2                !
 ! R95   R(56,64)                1.4207         estimate D2E/DX2                !
 ! R96   R(57,58)                1.4372         estimate D2E/DX2                !
 ! R97   R(57,60)                1.3829         estimate D2E/DX2                !
 ! R98   R(58,59)                1.3848         estimate D2E/DX2                !
 ! R99   R(59,65)                1.4447         estimate D2E/DX2                !
 ! R100  R(60,66)                1.4382         estimate D2E/DX2                !
 ! R101  R(61,62)                1.3929         estimate D2E/DX2                !
 ! R102  R(61,65)                1.4362         estimate D2E/DX2                !
 ! R103  R(62,63)                1.4292         estimate D2E/DX2                !
 ! R104  R(63,64)                1.3808         estimate D2E/DX2                !
 ! R105  R(64,66)                1.4398         estimate D2E/DX2                !
 ! R106  R(65,66)                1.3825         estimate D2E/DX2                !
 ! A1    A(2,1,4)              101.545          estimate D2E/DX2                !
 ! A2    A(2,1,7)              116.7086         estimate D2E/DX2                !
 ! A3    A(2,1,67)             112.5398         estimate D2E/DX2                !
 ! A4    A(4,1,7)               99.1176         estimate D2E/DX2                !
 ! A5    A(4,1,67)             113.9156         estimate D2E/DX2                !
 ! A6    A(7,1,67)             111.8679         estimate D2E/DX2                !
 ! A7    A(1,2,3)              107.9002         estimate D2E/DX2                !
 ! A8    A(1,2,10)             109.6582         estimate D2E/DX2                !
 ! A9    A(1,2,68)             112.3078         estimate D2E/DX2                !
 ! A10   A(3,2,10)             103.6201         estimate D2E/DX2                !
 ! A11   A(3,2,68)             114.8306         estimate D2E/DX2                !
 ! A12   A(10,2,68)            108.1129         estimate D2E/DX2                !
 ! A13   A(2,3,5)              102.8689         estimate D2E/DX2                !
 ! A14   A(2,3,12)             104.7394         estimate D2E/DX2                !
 ! A15   A(2,3,69)             118.1817         estimate D2E/DX2                !
 ! A16   A(5,3,12)             103.4469         estimate D2E/DX2                !
 ! A17   A(5,3,69)             112.8078         estimate D2E/DX2                !
 ! A18   A(12,3,69)            113.2368         estimate D2E/DX2                !
 ! A19   A(1,4,5)              113.917          estimate D2E/DX2                !
 ! A20   A(1,4,6)              111.6665         estimate D2E/DX2                !
 ! A21   A(5,4,6)              124.1276         estimate D2E/DX2                !
 ! A22   A(3,5,4)              112.5763         estimate D2E/DX2                !
 ! A23   A(3,5,15)             122.4532         estimate D2E/DX2                !
 ! A24   A(4,5,15)             121.2069         estimate D2E/DX2                !
 ! A25   A(4,6,8)              107.2175         estimate D2E/DX2                !
 ! A26   A(4,6,17)             118.8863         estimate D2E/DX2                !
 ! A27   A(8,6,17)             120.6966         estimate D2E/DX2                !
 ! A28   A(1,7,8)              109.9499         estimate D2E/DX2                !
 ! A29   A(1,7,9)              123.9599         estimate D2E/DX2                !
 ! A30   A(8,7,9)              117.4163         estimate D2E/DX2                !
 ! A31   A(6,8,7)              108.3376         estimate D2E/DX2                !
 ! A32   A(6,8,20)             120.3788         estimate D2E/DX2                !
 ! A33   A(7,8,20)             123.7151         estimate D2E/DX2                !
 ! A34   A(7,9,11)             116.3272         estimate D2E/DX2                !
 ! A35   A(7,9,22)             116.4864         estimate D2E/DX2                !
 ! A36   A(11,9,22)            117.7727         estimate D2E/DX2                !
 ! A37   A(2,10,11)            125.8304         estimate D2E/DX2                !
 ! A38   A(2,10,13)            111.1951         estimate D2E/DX2                !
 ! A39   A(11,10,13)           118.0725         estimate D2E/DX2                !
 ! A40   A(9,11,10)            117.8831         estimate D2E/DX2                !
 ! A41   A(9,11,25)            117.2039         estimate D2E/DX2                !
 ! A42   A(10,11,25)           115.4804         estimate D2E/DX2                !
 ! A43   A(3,12,13)            109.2306         estimate D2E/DX2                !
 ! A44   A(3,12,14)            126.1973         estimate D2E/DX2                !
 ! A45   A(13,12,14)           118.5488         estimate D2E/DX2                !
 ! A46   A(10,13,12)           108.9353         estimate D2E/DX2                !
 ! A47   A(10,13,27)           124.3754         estimate D2E/DX2                !
 ! A48   A(12,13,27)           121.8729         estimate D2E/DX2                !
 ! A49   A(12,14,16)           118.6874         estimate D2E/DX2                !
 ! A50   A(12,14,29)           118.8548         estimate D2E/DX2                !
 ! A51   A(16,14,29)           121.9623         estimate D2E/DX2                !
 ! A52   A(5,15,16)            116.2111         estimate D2E/DX2                !
 ! A53   A(5,15,18)            109.8054         estimate D2E/DX2                !
 ! A54   A(5,15,73)            107.9794         estimate D2E/DX2                !
 ! A55   A(16,15,18)           103.996          estimate D2E/DX2                !
 ! A56   A(16,15,73)           110.053          estimate D2E/DX2                !
 ! A57   A(18,15,73)           108.5617         estimate D2E/DX2                !
 ! A58   A(14,16,15)           110.2026         estimate D2E/DX2                !
 ! A59   A(14,16,32)           107.3611         estimate D2E/DX2                !
 ! A60   A(14,16,70)           108.2191         estimate D2E/DX2                !
 ! A61   A(15,16,32)           102.7552         estimate D2E/DX2                !
 ! A62   A(15,16,70)           114.036          estimate D2E/DX2                !
 ! A63   A(32,16,70)           114.0163         estimate D2E/DX2                !
 ! A64   A(6,17,18)            115.9248         estimate D2E/DX2                !
 ! A65   A(6,17,19)            118.7339         estimate D2E/DX2                !
 ! A66   A(18,17,19)           120.8975         estimate D2E/DX2                !
 ! A67   A(15,18,17)           126.9821         estimate D2E/DX2                !
 ! A68   A(15,18,33)           108.9377         estimate D2E/DX2                !
 ! A69   A(17,18,33)           119.8124         estimate D2E/DX2                !
 ! A70   A(17,19,21)           119.3911         estimate D2E/DX2                !
 ! A71   A(17,19,35)           116.9656         estimate D2E/DX2                !
 ! A72   A(21,19,35)           119.0433         estimate D2E/DX2                !
 ! A73   A(8,20,21)            119.692          estimate D2E/DX2                !
 ! A74   A(8,20,23)            114.6092         estimate D2E/DX2                !
 ! A75   A(21,20,23)           120.2005         estimate D2E/DX2                !
 ! A76   A(19,21,20)           118.6188         estimate D2E/DX2                !
 ! A77   A(19,21,38)           118.1477         estimate D2E/DX2                !
 ! A78   A(20,21,38)           117.2756         estimate D2E/DX2                !
 ! A79   A(9,22,23)            122.5023         estimate D2E/DX2                !
 ! A80   A(9,22,24)            122.2928         estimate D2E/DX2                !
 ! A81   A(23,22,24)           107.0484         estimate D2E/DX2                !
 ! A82   A(20,23,22)           119.8163         estimate D2E/DX2                !
 ! A83   A(20,23,40)           120.9945         estimate D2E/DX2                !
 ! A84   A(22,23,40)           108.5966         estimate D2E/DX2                !
 ! A85   A(22,24,26)           119.4222         estimate D2E/DX2                !
 ! A86   A(22,24,41)           109.1599         estimate D2E/DX2                !
 ! A87   A(26,24,41)           119.9198         estimate D2E/DX2                !
 ! A88   A(11,25,26)           122.3999         estimate D2E/DX2                !
 ! A89   A(11,25,28)           122.8004         estimate D2E/DX2                !
 ! A90   A(26,25,28)           107.0832         estimate D2E/DX2                !
 ! A91   A(24,26,25)           119.0455         estimate D2E/DX2                !
 ! A92   A(24,26,44)           119.9434         estimate D2E/DX2                !
 ! A93   A(25,26,44)           109.0051         estimate D2E/DX2                !
 ! A94   A(13,27,28)           115.0423         estimate D2E/DX2                !
 ! A95   A(13,27,30)           118.2746         estimate D2E/DX2                !
 ! A96   A(28,27,30)           121.9762         estimate D2E/DX2                !
 ! A97   A(25,28,27)           118.8439         estimate D2E/DX2                !
 ! A98   A(25,28,45)           109.3747         estimate D2E/DX2                !
 ! A99   A(27,28,45)           119.9075         estimate D2E/DX2                !
 ! A100  A(14,29,30)           120.4037         estimate D2E/DX2                !
 ! A101  A(14,29,31)           119.0529         estimate D2E/DX2                !
 ! A102  A(30,29,31)           119.8725         estimate D2E/DX2                !
 ! A103  A(27,30,29)           119.2064         estimate D2E/DX2                !
 ! A104  A(27,30,47)           116.7997         estimate D2E/DX2                !
 ! A105  A(29,30,47)           122.7167         estimate D2E/DX2                !
 ! A106  A(29,31,34)           107.7611         estimate D2E/DX2                !
 ! A107  A(29,31,49)           111.3571         estimate D2E/DX2                !
 ! A108  A(29,31,71)           109.6569         estimate D2E/DX2                !
 ! A109  A(34,31,49)           101.0157         estimate D2E/DX2                !
 ! A110  A(34,31,71)           114.9207         estimate D2E/DX2                !
 ! A111  A(49,31,71)           111.8471         estimate D2E/DX2                !
 ! A112  A(16,32,33)           110.3954         estimate D2E/DX2                !
 ! A113  A(16,32,34)           122.6391         estimate D2E/DX2                !
 ! A114  A(33,32,34)           117.5173         estimate D2E/DX2                !
 ! A115  A(18,33,32)           109.1438         estimate D2E/DX2                !
 ! A116  A(18,33,36)           119.6546         estimate D2E/DX2                !
 ! A117  A(32,33,36)           121.8977         estimate D2E/DX2                !
 ! A118  A(31,34,32)           123.4794         estimate D2E/DX2                !
 ! A119  A(31,34,51)           110.6258         estimate D2E/DX2                !
 ! A120  A(32,34,51)           120.2365         estimate D2E/DX2                !
 ! A121  A(19,35,36)           120.1458         estimate D2E/DX2                !
 ! A122  A(19,35,37)           121.7958         estimate D2E/DX2                !
 ! A123  A(36,35,37)           107.8503         estimate D2E/DX2                !
 ! A124  A(33,36,35)           120.9764         estimate D2E/DX2                !
 ! A125  A(33,36,52)           119.3653         estimate D2E/DX2                !
 ! A126  A(35,36,52)           108.8897         estimate D2E/DX2                !
 ! A127  A(35,37,39)           119.513          estimate D2E/DX2                !
 ! A128  A(35,37,53)           107.2883         estimate D2E/DX2                !
 ! A129  A(39,37,53)           121.1871         estimate D2E/DX2                !
 ! A130  A(21,38,39)           121.8715         estimate D2E/DX2                !
 ! A131  A(21,38,42)           121.6813         estimate D2E/DX2                !
 ! A132  A(39,38,42)           107.0585         estimate D2E/DX2                !
 ! A133  A(37,39,38)           119.5405         estimate D2E/DX2                !
 ! A134  A(37,39,57)           119.7864         estimate D2E/DX2                !
 ! A135  A(38,39,57)           108.8407         estimate D2E/DX2                !
 ! A136  A(23,40,41)           108.4723         estimate D2E/DX2                !
 ! A137  A(23,40,42)           119.2142         estimate D2E/DX2                !
 ! A138  A(41,40,42)           120.7928         estimate D2E/DX2                !
 ! A139  A(24,41,40)           106.4288         estimate D2E/DX2                !
 ! A140  A(24,41,43)           120.3675         estimate D2E/DX2                !
 ! A141  A(40,41,43)           119.2767         estimate D2E/DX2                !
 ! A142  A(38,42,40)           119.991          estimate D2E/DX2                !
 ! A143  A(38,42,58)           108.2764         estimate D2E/DX2                !
 ! A144  A(40,42,58)           119.9093         estimate D2E/DX2                !
 ! A145  A(41,43,46)           119.346          estimate D2E/DX2                !
 ! A146  A(41,43,59)           120.2161         estimate D2E/DX2                !
 ! A147  A(46,43,59)           108.0719         estimate D2E/DX2                !
 ! A148  A(26,44,45)           107.0322         estimate D2E/DX2                !
 ! A149  A(26,44,46)           120.1113         estimate D2E/DX2                !
 ! A150  A(45,44,46)           120.185          estimate D2E/DX2                !
 ! A151  A(28,45,44)           107.3547         estimate D2E/DX2                !
 ! A152  A(28,45,48)           119.6348         estimate D2E/DX2                !
 ! A153  A(44,45,48)           121.5501         estimate D2E/DX2                !
 ! A154  A(43,46,44)           120.284          estimate D2E/DX2                !
 ! A155  A(43,46,61)           108.3664         estimate D2E/DX2                !
 ! A156  A(44,46,61)           118.7768         estimate D2E/DX2                !
 ! A157  A(30,47,48)           112.4263         estimate D2E/DX2                !
 ! A158  A(30,47,50)           110.9735         estimate D2E/DX2                !
 ! A159  A(30,47,72)           105.9481         estimate D2E/DX2                !
 ! A160  A(48,47,50)           101.3437         estimate D2E/DX2                !
 ! A161  A(48,47,72)           113.5428         estimate D2E/DX2                !
 ! A162  A(50,47,72)           112.7671         estimate D2E/DX2                !
 ! A163  A(45,48,47)           122.9712         estimate D2E/DX2                !
 ! A164  A(45,48,62)           118.2791         estimate D2E/DX2                !
 ! A165  A(47,48,62)           111.4151         estimate D2E/DX2                !
 ! A166  A(31,49,50)           122.6759         estimate D2E/DX2                !
 ! A167  A(31,49,54)           111.1324         estimate D2E/DX2                !
 ! A168  A(50,49,54)           118.9757         estimate D2E/DX2                !
 ! A169  A(47,50,49)           121.6874         estimate D2E/DX2                !
 ! A170  A(47,50,63)           110.24           estimate D2E/DX2                !
 ! A171  A(49,50,63)           120.3072         estimate D2E/DX2                !
 ! A172  A(34,51,52)           121.0479         estimate D2E/DX2                !
 ! A173  A(34,51,54)           108.4878         estimate D2E/DX2                !
 ! A174  A(52,51,54)           119.0995         estimate D2E/DX2                !
 ! A175  A(36,52,51)           118.3591         estimate D2E/DX2                !
 ! A176  A(36,52,53)           107.308          estimate D2E/DX2                !
 ! A177  A(51,52,53)           121.2695         estimate D2E/DX2                !
 ! A178  A(37,53,52)           108.2307         estimate D2E/DX2                !
 ! A179  A(37,53,55)           118.9486         estimate D2E/DX2                !
 ! A180  A(52,53,55)           119.5915         estimate D2E/DX2                !
 ! A181  A(49,54,51)           108.1025         estimate D2E/DX2                !
 ! A182  A(49,54,56)           121.0206         estimate D2E/DX2                !
 ! A183  A(51,54,56)           119.9363         estimate D2E/DX2                !
 ! A184  A(53,55,56)           118.9471         estimate D2E/DX2                !
 ! A185  A(53,55,60)           119.9547         estimate D2E/DX2                !
 ! A186  A(56,55,60)           109.0768         estimate D2E/DX2                !
 ! A187  A(54,56,55)           121.0208         estimate D2E/DX2                !
 ! A188  A(54,56,64)           119.8403         estimate D2E/DX2                !
 ! A189  A(55,56,64)           107.3577         estimate D2E/DX2                !
 ! A190  A(39,57,58)           107.4846         estimate D2E/DX2                !
 ! A191  A(39,57,60)           119.1393         estimate D2E/DX2                !
 ! A192  A(58,57,60)           120.2086         estimate D2E/DX2                !
 ! A193  A(42,58,57)           107.9972         estimate D2E/DX2                !
 ! A194  A(42,58,59)           119.2558         estimate D2E/DX2                !
 ! A195  A(57,58,59)           120.1513         estimate D2E/DX2                !
 ! A196  A(43,59,58)           120.3384         estimate D2E/DX2                !
 ! A197  A(43,59,65)           107.3153         estimate D2E/DX2                !
 ! A198  A(58,59,65)           119.5483         estimate D2E/DX2                !
 ! A199  A(55,60,57)           120.7086         estimate D2E/DX2                !
 ! A200  A(55,60,66)           106.6653         estimate D2E/DX2                !
 ! A201  A(57,60,66)           119.742          estimate D2E/DX2                !
 ! A202  A(46,61,62)           120.2163         estimate D2E/DX2                !
 ! A203  A(46,61,65)           107.7407         estimate D2E/DX2                !
 ! A204  A(62,61,65)           120.0878         estimate D2E/DX2                !
 ! A205  A(48,62,61)           120.931          estimate D2E/DX2                !
 ! A206  A(48,62,63)           107.4613         estimate D2E/DX2                !
 ! A207  A(61,62,63)           120.2859         estimate D2E/DX2                !
 ! A208  A(50,63,62)           109.0642         estimate D2E/DX2                !
 ! A209  A(50,63,64)           121.3826         estimate D2E/DX2                !
 ! A210  A(62,63,64)           119.2809         estimate D2E/DX2                !
 ! A211  A(56,64,63)           118.4428         estimate D2E/DX2                !
 ! A212  A(56,64,66)           108.5585         estimate D2E/DX2                !
 ! A213  A(63,64,66)           120.8498         estimate D2E/DX2                !
 ! A214  A(59,65,61)           108.4534         estimate D2E/DX2                !
 ! A215  A(59,65,66)           120.0208         estimate D2E/DX2                !
 ! A216  A(61,65,66)           119.6575         estimate D2E/DX2                !
 ! A217  A(60,66,64)           108.3103         estimate D2E/DX2                !
 ! A218  A(60,66,65)           120.1937         estimate D2E/DX2                !
 ! A219  A(64,66,65)           119.7254         estimate D2E/DX2                !
 ! D1    D(4,1,2,3)             10.7901         estimate D2E/DX2                !
 ! D2    D(4,1,2,10)          -101.4297         estimate D2E/DX2                !
 ! D3    D(4,1,2,68)           138.3447         estimate D2E/DX2                !
 ! D4    D(7,1,2,3)            117.2788         estimate D2E/DX2                !
 ! D5    D(7,1,2,10)             5.059          estimate D2E/DX2                !
 ! D6    D(7,1,2,68)          -115.1666         estimate D2E/DX2                !
 ! D7    D(67,1,2,3)          -111.402          estimate D2E/DX2                !
 ! D8    D(67,1,2,10)          136.3782         estimate D2E/DX2                !
 ! D9    D(67,1,2,68)           16.1526         estimate D2E/DX2                !
 ! D10   D(2,1,4,5)             -9.4699         estimate D2E/DX2                !
 ! D11   D(2,1,4,6)            137.311          estimate D2E/DX2                !
 ! D12   D(7,1,4,5)           -129.2972         estimate D2E/DX2                !
 ! D13   D(7,1,4,6)             17.4836         estimate D2E/DX2                !
 ! D14   D(67,1,4,5)           111.7666         estimate D2E/DX2                !
 ! D15   D(67,1,4,6)          -101.4525         estimate D2E/DX2                !
 ! D16   D(2,1,7,8)           -126.7092         estimate D2E/DX2                !
 ! D17   D(2,1,7,9)             19.9116         estimate D2E/DX2                !
 ! D18   D(4,1,7,8)            -18.7911         estimate D2E/DX2                !
 ! D19   D(4,1,7,9)            127.8297         estimate D2E/DX2                !
 ! D20   D(67,1,7,8)           101.6614         estimate D2E/DX2                !
 ! D21   D(67,1,7,9)          -111.7178         estimate D2E/DX2                !
 ! D22   D(1,2,3,5)             -8.7873         estimate D2E/DX2                !
 ! D23   D(1,2,3,12)          -116.6511         estimate D2E/DX2                !
 ! D24   D(1,2,3,69)           116.2081         estimate D2E/DX2                !
 ! D25   D(10,2,3,5)           107.4449         estimate D2E/DX2                !
 ! D26   D(10,2,3,12)           -0.4189         estimate D2E/DX2                !
 ! D27   D(10,2,3,69)         -127.5597         estimate D2E/DX2                !
 ! D28   D(68,2,3,5)          -134.8717         estimate D2E/DX2                !
 ! D29   D(68,2,3,12)          117.2645         estimate D2E/DX2                !
 ! D30   D(68,2,3,69)           -9.8763         estimate D2E/DX2                !
 ! D31   D(1,2,10,11)          -30.0305         estimate D2E/DX2                !
 ! D32   D(1,2,10,13)          124.4623         estimate D2E/DX2                !
 ! D33   D(3,2,10,11)         -145.0156         estimate D2E/DX2                !
 ! D34   D(3,2,10,13)            9.4773         estimate D2E/DX2                !
 ! D35   D(68,2,10,11)          92.7171         estimate D2E/DX2                !
 ! D36   D(68,2,10,13)        -112.7901         estimate D2E/DX2                !
 ! D37   D(2,3,5,4)              3.075          estimate D2E/DX2                !
 ! D38   D(2,3,5,15)          -155.2634         estimate D2E/DX2                !
 ! D39   D(12,3,5,4)           111.9169         estimate D2E/DX2                !
 ! D40   D(12,3,5,15)          -46.4214         estimate D2E/DX2                !
 ! D41   D(69,3,5,4)          -125.3581         estimate D2E/DX2                !
 ! D42   D(69,3,5,15)           76.3035         estimate D2E/DX2                !
 ! D43   D(2,3,12,13)           -8.6773         estimate D2E/DX2                !
 ! D44   D(2,3,12,14)          143.2673         estimate D2E/DX2                !
 ! D45   D(5,3,12,13)         -116.1165         estimate D2E/DX2                !
 ! D46   D(5,3,12,14)           35.8281         estimate D2E/DX2                !
 ! D47   D(69,3,12,13)         121.4438         estimate D2E/DX2                !
 ! D48   D(69,3,12,14)         -86.6116         estimate D2E/DX2                !
 ! D49   D(1,4,5,3)              4.2804         estimate D2E/DX2                !
 ! D50   D(1,4,5,15)           162.9237         estimate D2E/DX2                !
 ! D51   D(6,4,5,3)           -137.7636         estimate D2E/DX2                !
 ! D52   D(6,4,5,15)            20.8796         estimate D2E/DX2                !
 ! D53   D(1,4,6,8)            -10.1308         estimate D2E/DX2                !
 ! D54   D(1,4,6,17)          -151.5155         estimate D2E/DX2                !
 ! D55   D(5,4,6,8)            132.6414         estimate D2E/DX2                !
 ! D56   D(5,4,6,17)            -8.7433         estimate D2E/DX2                !
 ! D57   D(3,5,15,16)           19.599          estimate D2E/DX2                !
 ! D58   D(3,5,15,18)          137.2324         estimate D2E/DX2                !
 ! D59   D(3,5,15,73)         -104.5657         estimate D2E/DX2                !
 ! D60   D(4,5,15,16)         -136.9165         estimate D2E/DX2                !
 ! D61   D(4,5,15,18)          -19.2831         estimate D2E/DX2                !
 ! D62   D(4,5,15,73)           98.9187         estimate D2E/DX2                !
 ! D63   D(4,6,8,7)             -2.6373         estimate D2E/DX2                !
 ! D64   D(4,6,8,20)          -153.3428         estimate D2E/DX2                !
 ! D65   D(17,6,8,7)           137.9071         estimate D2E/DX2                !
 ! D66   D(17,6,8,20)          -12.7985         estimate D2E/DX2                !
 ! D67   D(4,6,17,18)           -2.2461         estimate D2E/DX2                !
 ! D68   D(4,6,17,19)          154.3388         estimate D2E/DX2                !
 ! D69   D(8,6,17,18)         -138.3575         estimate D2E/DX2                !
 ! D70   D(8,6,17,19)           18.2274         estimate D2E/DX2                !
 ! D71   D(1,7,8,6)             14.3695         estimate D2E/DX2                !
 ! D72   D(1,7,8,20)           163.8741         estimate D2E/DX2                !
 ! D73   D(9,7,8,6)           -134.6951         estimate D2E/DX2                !
 ! D74   D(9,7,8,20)            14.8094         estimate D2E/DX2                !
 ! D75   D(1,7,9,11)           -22.2052         estimate D2E/DX2                !
 ! D76   D(1,7,9,22)          -168.0398         estimate D2E/DX2                !
 ! D77   D(8,7,9,11)           122.1614         estimate D2E/DX2                !
 ! D78   D(8,7,9,22)           -23.6732         estimate D2E/DX2                !
 ! D79   D(6,8,20,21)           -1.311          estimate D2E/DX2                !
 ! D80   D(6,8,20,23)          152.5959         estimate D2E/DX2                !
 ! D81   D(7,8,20,21)         -147.3684         estimate D2E/DX2                !
 ! D82   D(7,8,20,23)            6.5386         estimate D2E/DX2                !
 ! D83   D(7,9,11,10)           -1.6721         estimate D2E/DX2                !
 ! D84   D(7,9,11,25)         -146.6772         estimate D2E/DX2                !
 ! D85   D(22,9,11,10)         143.7113         estimate D2E/DX2                !
 ! D86   D(22,9,11,25)          -1.2938         estimate D2E/DX2                !
 ! D87   D(7,9,22,23)           12.8907         estimate D2E/DX2                !
 ! D88   D(7,9,22,24)          157.3693         estimate D2E/DX2                !
 ! D89   D(11,9,22,23)        -132.4381         estimate D2E/DX2                !
 ! D90   D(11,9,22,24)          12.0405         estimate D2E/DX2                !
 ! D91   D(2,10,11,9)           29.7869         estimate D2E/DX2                !
 ! D92   D(2,10,11,25)         175.3829         estimate D2E/DX2                !
 ! D93   D(13,10,11,9)        -123.1464         estimate D2E/DX2                !
 ! D94   D(13,10,11,25)         22.4496         estimate D2E/DX2                !
 ! D95   D(2,10,13,12)         -15.5792         estimate D2E/DX2                !
 ! D96   D(2,10,13,27)        -171.2307         estimate D2E/DX2                !
 ! D97   D(11,10,13,12)        141.1123         estimate D2E/DX2                !
 ! D98   D(11,10,13,27)        -14.5391         estimate D2E/DX2                !
 ! D99   D(9,11,25,26)         -10.1771         estimate D2E/DX2                !
 ! D100  D(9,11,25,28)         135.1994         estimate D2E/DX2                !
 ! D101  D(10,11,25,26)       -156.0146         estimate D2E/DX2                !
 ! D102  D(10,11,25,28)        -10.6381         estimate D2E/DX2                !
 ! D103  D(3,12,13,10)          14.936          estimate D2E/DX2                !
 ! D104  D(3,12,13,27)         171.3141         estimate D2E/DX2                !
 ! D105  D(14,12,13,10)       -139.4641         estimate D2E/DX2                !
 ! D106  D(14,12,13,27)         16.9139         estimate D2E/DX2                !
 ! D107  D(3,12,14,16)           3.2647         estimate D2E/DX2                !
 ! D108  D(3,12,14,29)        -168.8219         estimate D2E/DX2                !
 ! D109  D(13,12,14,16)        152.8968         estimate D2E/DX2                !
 ! D110  D(13,12,14,29)        -19.1898         estimate D2E/DX2                !
 ! D111  D(10,13,27,28)         -7.0126         estimate D2E/DX2                !
 ! D112  D(10,13,27,30)        149.1931         estimate D2E/DX2                !
 ! D113  D(12,13,27,28)       -159.6761         estimate D2E/DX2                !
 ! D114  D(12,13,27,30)         -3.4704         estimate D2E/DX2                !
 ! D115  D(12,14,16,15)        -33.6798         estimate D2E/DX2                !
 ! D116  D(12,14,16,32)       -144.8741         estimate D2E/DX2                !
 ! D117  D(12,14,16,70)         91.6331         estimate D2E/DX2                !
 ! D118  D(29,14,16,15)        138.1491         estimate D2E/DX2                !
 ! D119  D(29,14,16,32)         26.9548         estimate D2E/DX2                !
 ! D120  D(29,14,16,70)        -96.5381         estimate D2E/DX2                !
 ! D121  D(12,14,29,30)          8.8341         estimate D2E/DX2                !
 ! D122  D(12,14,29,31)        179.4366         estimate D2E/DX2                !
 ! D123  D(16,14,29,30)       -162.9815         estimate D2E/DX2                !
 ! D124  D(16,14,29,31)          7.621          estimate D2E/DX2                !
 ! D125  D(5,15,16,14)          22.6381         estimate D2E/DX2                !
 ! D126  D(5,15,16,32)         136.7989         estimate D2E/DX2                !
 ! D127  D(5,15,16,70)         -99.2924         estimate D2E/DX2                !
 ! D128  D(18,15,16,14)        -98.1539         estimate D2E/DX2                !
 ! D129  D(18,15,16,32)         16.0069         estimate D2E/DX2                !
 ! D130  D(18,15,16,70)        139.9156         estimate D2E/DX2                !
 ! D131  D(73,15,16,14)        145.7282         estimate D2E/DX2                !
 ! D132  D(73,15,16,32)       -100.111          estimate D2E/DX2                !
 ! D133  D(73,15,16,70)         23.7977         estimate D2E/DX2                !
 ! D134  D(5,15,18,17)           8.9397         estimate D2E/DX2                !
 ! D135  D(5,15,18,33)        -147.4611         estimate D2E/DX2                !
 ! D136  D(16,15,18,17)        133.9396         estimate D2E/DX2                !
 ! D137  D(16,15,18,33)        -22.4612         estimate D2E/DX2                !
 ! D138  D(73,15,18,17)       -108.9009         estimate D2E/DX2                !
 ! D139  D(73,15,18,33)         94.6983         estimate D2E/DX2                !
 ! D140  D(14,16,32,33)        111.0643         estimate D2E/DX2                !
 ! D141  D(14,16,32,34)        -34.3715         estimate D2E/DX2                !
 ! D142  D(15,16,32,33)         -5.1513         estimate D2E/DX2                !
 ! D143  D(15,16,32,34)       -150.5872         estimate D2E/DX2                !
 ! D144  D(70,16,32,33)       -129.0731         estimate D2E/DX2                !
 ! D145  D(70,16,32,34)         85.491          estimate D2E/DX2                !
 ! D146  D(6,17,18,15)           1.179          estimate D2E/DX2                !
 ! D147  D(6,17,18,33)         155.3031         estimate D2E/DX2                !
 ! D148  D(19,17,18,15)       -154.8619         estimate D2E/DX2                !
 ! D149  D(19,17,18,33)         -0.7379         estimate D2E/DX2                !
 ! D150  D(6,17,19,21)          -9.7129         estimate D2E/DX2                !
 ! D151  D(6,17,19,35)        -165.4577         estimate D2E/DX2                !
 ! D152  D(18,17,19,21)        145.6729         estimate D2E/DX2                !
 ! D153  D(18,17,19,35)        -10.072          estimate D2E/DX2                !
 ! D154  D(15,18,33,32)         19.977          estimate D2E/DX2                !
 ! D155  D(15,18,33,36)        167.2521         estimate D2E/DX2                !
 ! D156  D(17,18,33,32)       -138.3951         estimate D2E/DX2                !
 ! D157  D(17,18,33,36)          8.8799         estimate D2E/DX2                !
 ! D158  D(17,19,21,20)         -3.8251         estimate D2E/DX2                !
 ! D159  D(17,19,21,38)       -155.9547         estimate D2E/DX2                !
 ! D160  D(35,19,21,20)        151.416          estimate D2E/DX2                !
 ! D161  D(35,19,21,38)         -0.7136         estimate D2E/DX2                !
 ! D162  D(17,19,35,36)         12.8249         estimate D2E/DX2                !
 ! D163  D(17,19,35,37)        153.819          estimate D2E/DX2                !
 ! D164  D(21,19,35,36)       -143.0075         estimate D2E/DX2                !
 ! D165  D(21,19,35,37)         -2.0133         estimate D2E/DX2                !
 ! D166  D(8,20,21,19)           9.3851         estimate D2E/DX2                !
 ! D167  D(8,20,21,38)         161.7557         estimate D2E/DX2                !
 ! D168  D(23,20,21,19)       -143.0547         estimate D2E/DX2                !
 ! D169  D(23,20,21,38)          9.3159         estimate D2E/DX2                !
 ! D170  D(8,20,23,22)         -17.9307         estimate D2E/DX2                !
 ! D171  D(8,20,23,40)        -158.5594         estimate D2E/DX2                !
 ! D172  D(21,20,23,22)        135.8323         estimate D2E/DX2                !
 ! D173  D(21,20,23,40)         -4.7964         estimate D2E/DX2                !
 ! D174  D(19,21,38,39)          2.5154         estimate D2E/DX2                !
 ! D175  D(19,21,38,42)        144.6671         estimate D2E/DX2                !
 ! D176  D(20,21,38,39)       -149.988          estimate D2E/DX2                !
 ! D177  D(20,21,38,42)         -7.8363         estimate D2E/DX2                !
 ! D178  D(9,22,23,20)           9.0219         estimate D2E/DX2                !
 ! D179  D(9,22,23,40)         154.0115         estimate D2E/DX2                !
 ! D180  D(24,22,23,20)       -140.0664         estimate D2E/DX2                !
 ! D181  D(24,22,23,40)          4.9232         estimate D2E/DX2                !
 ! D182  D(9,22,24,26)         -11.4221         estimate D2E/DX2                !
 ! D183  D(9,22,24,41)        -154.7612         estimate D2E/DX2                !
 ! D184  D(23,22,24,26)        137.7456         estimate D2E/DX2                !
 ! D185  D(23,22,24,41)         -5.5934         estimate D2E/DX2                !
 ! D186  D(20,23,40,41)        142.0551         estimate D2E/DX2                !
 ! D187  D(20,23,40,42)         -1.5755         estimate D2E/DX2                !
 ! D188  D(22,23,40,41)         -2.4457         estimate D2E/DX2                !
 ! D189  D(22,23,40,42)       -146.0764         estimate D2E/DX2                !
 ! D190  D(22,24,26,25)         -0.287          estimate D2E/DX2                !
 ! D191  D(22,24,26,44)       -138.8584         estimate D2E/DX2                !
 ! D192  D(41,24,26,25)        139.1163         estimate D2E/DX2                !
 ! D193  D(41,24,26,44)          0.5449         estimate D2E/DX2                !
 ! D194  D(22,24,41,40)          4.0865         estimate D2E/DX2                !
 ! D195  D(22,24,41,43)        143.877          estimate D2E/DX2                !
 ! D196  D(26,24,41,40)       -139.0407         estimate D2E/DX2                !
 ! D197  D(26,24,41,43)          0.7498         estimate D2E/DX2                !
 ! D198  D(11,25,26,24)         11.1594         estimate D2E/DX2                !
 ! D199  D(11,25,26,44)        153.8283         estimate D2E/DX2                !
 ! D200  D(28,25,26,24)       -138.8647         estimate D2E/DX2                !
 ! D201  D(28,25,26,44)          3.8042         estimate D2E/DX2                !
 ! D202  D(11,25,28,27)        -10.8718         estimate D2E/DX2                !
 ! D203  D(11,25,28,45)       -153.7228         estimate D2E/DX2                !
 ! D204  D(26,25,28,27)        139.0041         estimate D2E/DX2                !
 ! D205  D(26,25,28,45)         -3.8469         estimate D2E/DX2                !
 ! D206  D(24,26,44,45)        139.9825         estimate D2E/DX2                !
 ! D207  D(24,26,44,46)         -1.7895         estimate D2E/DX2                !
 ! D208  D(25,26,44,45)         -2.2963         estimate D2E/DX2                !
 ! D209  D(25,26,44,46)       -144.0683         estimate D2E/DX2                !
 ! D210  D(13,27,28,25)         19.055          estimate D2E/DX2                !
 ! D211  D(13,27,28,45)        157.9675         estimate D2E/DX2                !
 ! D212  D(30,27,28,25)       -136.1815         estimate D2E/DX2                !
 ! D213  D(30,27,28,45)          2.731          estimate D2E/DX2                !
 ! D214  D(13,27,30,29)         -7.1392         estimate D2E/DX2                !
 ! D215  D(13,27,30,47)       -174.5877         estimate D2E/DX2                !
 ! D216  D(28,27,30,29)        147.3354         estimate D2E/DX2                !
 ! D217  D(28,27,30,47)        -20.113          estimate D2E/DX2                !
 ! D218  D(25,28,45,44)          2.4611         estimate D2E/DX2                !
 ! D219  D(25,28,45,48)        146.4089         estimate D2E/DX2                !
 ! D220  D(27,28,45,44)       -139.9326         estimate D2E/DX2                !
 ! D221  D(27,28,45,48)          4.0153         estimate D2E/DX2                !
 ! D222  D(14,29,30,27)          4.5427         estimate D2E/DX2                !
 ! D223  D(14,29,30,47)        171.2131         estimate D2E/DX2                !
 ! D224  D(31,29,30,27)       -165.9829         estimate D2E/DX2                !
 ! D225  D(31,29,30,47)          0.6876         estimate D2E/DX2                !
 ! D226  D(14,29,31,34)        -35.4453         estimate D2E/DX2                !
 ! D227  D(14,29,31,49)       -145.3642         estimate D2E/DX2                !
 ! D228  D(14,29,31,71)         90.3047         estimate D2E/DX2                !
 ! D229  D(30,29,31,34)        135.2081         estimate D2E/DX2                !
 ! D230  D(30,29,31,49)         25.2892         estimate D2E/DX2                !
 ! D231  D(30,29,31,71)        -99.0419         estimate D2E/DX2                !
 ! D232  D(27,30,47,48)         28.957          estimate D2E/DX2                !
 ! D233  D(27,30,47,50)        141.6684         estimate D2E/DX2                !
 ! D234  D(27,30,47,72)        -95.6086         estimate D2E/DX2                !
 ! D235  D(29,30,47,48)       -138.0132         estimate D2E/DX2                !
 ! D236  D(29,30,47,50)        -25.3018         estimate D2E/DX2                !
 ! D237  D(29,30,47,72)         97.4212         estimate D2E/DX2                !
 ! D238  D(29,31,34,32)         30.0801         estimate D2E/DX2                !
 ! D239  D(29,31,34,51)       -123.3031         estimate D2E/DX2                !
 ! D240  D(49,31,34,32)        146.9483         estimate D2E/DX2                !
 ! D241  D(49,31,34,51)         -6.435          estimate D2E/DX2                !
 ! D242  D(71,31,34,32)        -92.4887         estimate D2E/DX2                !
 ! D243  D(71,31,34,51)        114.128          estimate D2E/DX2                !
 ! D244  D(29,31,49,50)        -27.6031         estimate D2E/DX2                !
 ! D245  D(29,31,49,54)        122.2712         estimate D2E/DX2                !
 ! D246  D(34,31,49,50)       -141.796          estimate D2E/DX2                !
 ! D247  D(34,31,49,54)          8.0784         estimate D2E/DX2                !
 ! D248  D(71,31,49,50)         95.484          estimate D2E/DX2                !
 ! D249  D(71,31,49,54)       -114.6417         estimate D2E/DX2                !
 ! D250  D(16,32,33,18)         -8.8918         estimate D2E/DX2                !
 ! D251  D(16,32,33,36)       -155.2938         estimate D2E/DX2                !
 ! D252  D(34,32,33,18)        138.5145         estimate D2E/DX2                !
 ! D253  D(34,32,33,36)         -7.8875         estimate D2E/DX2                !
 ! D254  D(16,32,34,31)          5.8181         estimate D2E/DX2                !
 ! D255  D(16,32,34,51)        156.784          estimate D2E/DX2                !
 ! D256  D(33,32,34,31)       -137.3411         estimate D2E/DX2                !
 ! D257  D(33,32,34,51)         13.6248         estimate D2E/DX2                !
 ! D258  D(18,33,36,35)         -6.1089         estimate D2E/DX2                !
 ! D259  D(18,33,36,52)       -146.5567         estimate D2E/DX2                !
 ! D260  D(32,33,36,35)        136.9102         estimate D2E/DX2                !
 ! D261  D(32,33,36,52)         -3.5376         estimate D2E/DX2                !
 ! D262  D(31,34,51,52)        145.8514         estimate D2E/DX2                !
 ! D263  D(31,34,51,54)          2.7381         estimate D2E/DX2                !
 ! D264  D(32,34,51,52)         -8.5203         estimate D2E/DX2                !
 ! D265  D(32,34,51,54)       -151.6337         estimate D2E/DX2                !
 ! D266  D(19,35,36,33)         -5.142          estimate D2E/DX2                !
 ! D267  D(19,35,36,52)        138.9454         estimate D2E/DX2                !
 ! D268  D(37,35,36,33)       -150.9477         estimate D2E/DX2                !
 ! D269  D(37,35,36,52)         -6.8604         estimate D2E/DX2                !
 ! D270  D(19,35,37,39)          2.9955         estimate D2E/DX2                !
 ! D271  D(19,35,37,53)       -140.076          estimate D2E/DX2                !
 ! D272  D(36,35,37,39)        148.1197         estimate D2E/DX2                !
 ! D273  D(36,35,37,53)          5.0482         estimate D2E/DX2                !
 ! D274  D(33,36,52,51)          8.8432         estimate D2E/DX2                !
 ! D275  D(33,36,52,53)        150.6596         estimate D2E/DX2                !
 ! D276  D(35,36,52,51)       -135.9142         estimate D2E/DX2                !
 ! D277  D(35,36,52,53)          5.9023         estimate D2E/DX2                !
 ! D278  D(35,37,39,38)         -1.1735         estimate D2E/DX2                !
 ! D279  D(35,37,39,57)       -139.9437         estimate D2E/DX2                !
 ! D280  D(53,37,39,38)        136.7142         estimate D2E/DX2                !
 ! D281  D(53,37,39,57)         -2.056          estimate D2E/DX2                !
 ! D282  D(35,37,53,52)         -1.4529         estimate D2E/DX2                !
 ! D283  D(35,37,53,55)        139.4735         estimate D2E/DX2                !
 ! D284  D(39,37,53,52)       -143.7776         estimate D2E/DX2                !
 ! D285  D(39,37,53,55)         -2.8512         estimate D2E/DX2                !
 ! D286  D(21,38,39,37)         -1.5802         estimate D2E/DX2                !
 ! D287  D(21,38,39,57)        141.235          estimate D2E/DX2                !
 ! D288  D(42,38,39,37)       -148.4757         estimate D2E/DX2                !
 ! D289  D(42,38,39,57)         -5.6605         estimate D2E/DX2                !
 ! D290  D(21,38,42,40)          1.7077         estimate D2E/DX2                !
 ! D291  D(21,38,42,58)       -141.1281         estimate D2E/DX2                !
 ! D292  D(39,38,42,40)        148.6799         estimate D2E/DX2                !
 ! D293  D(39,38,42,58)          5.8441         estimate D2E/DX2                !
 ! D294  D(37,39,57,58)        146.0295         estimate D2E/DX2                !
 ! D295  D(37,39,57,60)          4.8081         estimate D2E/DX2                !
 ! D296  D(38,39,57,58)          3.3208         estimate D2E/DX2                !
 ! D297  D(38,39,57,60)       -137.9006         estimate D2E/DX2                !
 ! D298  D(23,40,41,24)         -1.0005         estimate D2E/DX2                !
 ! D299  D(23,40,41,43)       -141.3147         estimate D2E/DX2                !
 ! D300  D(42,40,41,24)        141.9504         estimate D2E/DX2                !
 ! D301  D(42,40,41,43)          1.6362         estimate D2E/DX2                !
 ! D302  D(23,40,42,38)          3.157          estimate D2E/DX2                !
 ! D303  D(23,40,42,58)        141.7224         estimate D2E/DX2                !
 ! D304  D(41,40,42,38)       -135.9432         estimate D2E/DX2                !
 ! D305  D(41,40,42,58)          2.6222         estimate D2E/DX2                !
 ! D306  D(24,41,43,46)         -0.8136         estimate D2E/DX2                !
 ! D307  D(24,41,43,59)       -138.4827         estimate D2E/DX2                !
 ! D308  D(40,41,43,46)        133.9593         estimate D2E/DX2                !
 ! D309  D(40,41,43,59)         -3.7098         estimate D2E/DX2                !
 ! D310  D(38,42,58,57)         -3.8526         estimate D2E/DX2                !
 ! D311  D(38,42,58,59)        138.0828         estimate D2E/DX2                !
 ! D312  D(40,42,58,57)       -146.724          estimate D2E/DX2                !
 ! D313  D(40,42,58,59)         -4.7886         estimate D2E/DX2                !
 ! D314  D(41,43,46,44)         -0.4329         estimate D2E/DX2                !
 ! D315  D(41,43,46,61)       -141.8107         estimate D2E/DX2                !
 ! D316  D(59,43,46,44)        141.8247         estimate D2E/DX2                !
 ! D317  D(59,43,46,61)          0.4469         estimate D2E/DX2                !
 ! D318  D(41,43,59,58)          1.5213         estimate D2E/DX2                !
 ! D319  D(41,43,59,65)        142.8725         estimate D2E/DX2                !
 ! D320  D(46,43,59,58)       -140.3481         estimate D2E/DX2                !
 ! D321  D(46,43,59,65)          1.0031         estimate D2E/DX2                !
 ! D322  D(26,44,45,28)         -0.0684         estimate D2E/DX2                !
 ! D323  D(26,44,45,48)       -143.1792         estimate D2E/DX2                !
 ! D324  D(46,44,45,28)        141.6699         estimate D2E/DX2                !
 ! D325  D(46,44,45,48)         -1.441          estimate D2E/DX2                !
 ! D326  D(26,44,46,43)          1.7267         estimate D2E/DX2                !
 ! D327  D(26,44,46,61)        139.2063         estimate D2E/DX2                !
 ! D328  D(45,44,46,43)       -135.08           estimate D2E/DX2                !
 ! D329  D(45,44,46,61)          2.3995         estimate D2E/DX2                !
 ! D330  D(28,45,48,47)          7.83           estimate D2E/DX2                !
 ! D331  D(28,45,48,62)       -139.6473         estimate D2E/DX2                !
 ! D332  D(44,45,48,47)        146.5938         estimate D2E/DX2                !
 ! D333  D(44,45,48,62)         -0.8835         estimate D2E/DX2                !
 ! D334  D(43,46,61,62)        140.9661         estimate D2E/DX2                !
 ! D335  D(43,46,61,65)         -1.7306         estimate D2E/DX2                !
 ! D336  D(44,46,61,62)         -1.0857         estimate D2E/DX2                !
 ! D337  D(44,46,61,65)       -143.7824         estimate D2E/DX2                !
 ! D338  D(30,47,48,45)        -23.9759         estimate D2E/DX2                !
 ! D339  D(30,47,48,62)        125.4548         estimate D2E/DX2                !
 ! D340  D(50,47,48,45)       -142.5132         estimate D2E/DX2                !
 ! D341  D(50,47,48,62)          6.9175         estimate D2E/DX2                !
 ! D342  D(72,47,48,45)         96.2926         estimate D2E/DX2                !
 ! D343  D(72,47,48,62)       -114.2767         estimate D2E/DX2                !
 ! D344  D(30,47,50,49)         23.534          estimate D2E/DX2                !
 ! D345  D(30,47,50,63)       -125.7474         estimate D2E/DX2                !
 ! D346  D(48,47,50,49)        143.1118         estimate D2E/DX2                !
 ! D347  D(48,47,50,63)         -6.1696         estimate D2E/DX2                !
 ! D348  D(72,47,50,49)        -95.1519         estimate D2E/DX2                !
 ! D349  D(72,47,50,63)        115.5667         estimate D2E/DX2                !
 ! D350  D(45,48,62,61)          2.2128         estimate D2E/DX2                !
 ! D351  D(45,48,62,63)        145.8053         estimate D2E/DX2                !
 ! D352  D(47,48,62,61)       -148.8078         estimate D2E/DX2                !
 ! D353  D(47,48,62,63)         -5.2154         estimate D2E/DX2                !
 ! D354  D(31,49,50,47)          2.7091         estimate D2E/DX2                !
 ! D355  D(31,49,50,63)        148.9879         estimate D2E/DX2                !
 ! D356  D(54,49,50,47)       -144.9382         estimate D2E/DX2                !
 ! D357  D(54,49,50,63)          1.3407         estimate D2E/DX2                !
 ! D358  D(31,49,54,51)         -6.9683         estimate D2E/DX2                !
 ! D359  D(31,49,54,56)       -150.9885         estimate D2E/DX2                !
 ! D360  D(50,49,54,51)        144.1557         estimate D2E/DX2                !
 ! D361  D(50,49,54,56)          0.1355         estimate D2E/DX2                !
 ! D362  D(47,50,63,62)          3.499          estimate D2E/DX2                !
 ! D363  D(47,50,63,64)        148.2794         estimate D2E/DX2                !
 ! D364  D(49,50,63,62)       -146.2703         estimate D2E/DX2                !
 ! D365  D(49,50,63,64)         -1.4899         estimate D2E/DX2                !
 ! D366  D(34,51,52,36)         -3.1404         estimate D2E/DX2                !
 ! D367  D(34,51,52,53)       -139.471          estimate D2E/DX2                !
 ! D368  D(54,51,52,36)        136.2056         estimate D2E/DX2                !
 ! D369  D(54,51,52,53)         -0.1251         estimate D2E/DX2                !
 ! D370  D(34,51,54,49)          2.5567         estimate D2E/DX2                !
 ! D371  D(34,51,54,56)        147.0364         estimate D2E/DX2                !
 ! D372  D(52,51,54,49)       -141.3906         estimate D2E/DX2                !
 ! D373  D(52,51,54,56)          3.0891         estimate D2E/DX2                !
 ! D374  D(36,52,53,37)         -2.7263         estimate D2E/DX2                !
 ! D375  D(36,52,53,55)       -143.3585         estimate D2E/DX2                !
 ! D376  D(51,52,53,37)        137.7464         estimate D2E/DX2                !
 ! D377  D(51,52,53,55)         -2.8859         estimate D2E/DX2                !
 ! D378  D(37,53,55,56)       -133.6411         estimate D2E/DX2                !
 ! D379  D(37,53,55,60)          4.9348         estimate D2E/DX2                !
 ! D380  D(52,53,55,56)          2.8491         estimate D2E/DX2                !
 ! D381  D(52,53,55,60)        141.425          estimate D2E/DX2                !
 ! D382  D(49,54,56,55)        136.7614         estimate D2E/DX2                !
 ! D383  D(49,54,56,64)         -1.5091         estimate D2E/DX2                !
 ! D384  D(51,54,56,55)         -3.1184         estimate D2E/DX2                !
 ! D385  D(51,54,56,64)       -141.3888         estimate D2E/DX2                !
 ! D386  D(53,55,56,54)          0.0961         estimate D2E/DX2                !
 ! D387  D(53,55,56,64)        142.8736         estimate D2E/DX2                !
 ! D388  D(60,55,56,54)       -142.5627         estimate D2E/DX2                !
 ! D389  D(60,55,56,64)          0.2147         estimate D2E/DX2                !
 ! D390  D(53,55,60,57)         -2.1912         estimate D2E/DX2                !
 ! D391  D(53,55,60,66)       -143.4617         estimate D2E/DX2                !
 ! D392  D(56,55,60,57)        140.0302         estimate D2E/DX2                !
 ! D393  D(56,55,60,66)         -1.2403         estimate D2E/DX2                !
 ! D394  D(54,56,64,63)          1.3579         estimate D2E/DX2                !
 ! D395  D(54,56,64,66)        144.205          estimate D2E/DX2                !
 ! D396  D(55,56,64,63)       -141.9414         estimate D2E/DX2                !
 ! D397  D(55,56,64,66)          0.9057         estimate D2E/DX2                !
 ! D398  D(39,57,58,42)          0.3433         estimate D2E/DX2                !
 ! D399  D(39,57,58,59)       -141.1891         estimate D2E/DX2                !
 ! D400  D(60,57,58,42)        141.0709         estimate D2E/DX2                !
 ! D401  D(60,57,58,59)         -0.4615         estimate D2E/DX2                !
 ! D402  D(39,57,60,55)         -2.7229         estimate D2E/DX2                !
 ! D403  D(39,57,60,66)        133.6233         estimate D2E/DX2                !
 ! D404  D(58,57,60,55)       -138.9939         estimate D2E/DX2                !
 ! D405  D(58,57,60,66)         -2.6477         estimate D2E/DX2                !
 ! D406  D(42,58,59,43)          2.7308         estimate D2E/DX2                !
 ! D407  D(42,58,59,65)       -134.0035         estimate D2E/DX2                !
 ! D408  D(57,58,59,43)        140.0329         estimate D2E/DX2                !
 ! D409  D(57,58,59,65)          3.2986         estimate D2E/DX2                !
 ! D410  D(43,59,65,61)         -2.0785         estimate D2E/DX2                !
 ! D411  D(43,59,65,66)       -144.76           estimate D2E/DX2                !
 ! D412  D(58,59,65,61)        139.6343         estimate D2E/DX2                !
 ! D413  D(58,59,65,66)         -3.0472         estimate D2E/DX2                !
 ! D414  D(55,60,66,64)          1.7864         estimate D2E/DX2                !
 ! D415  D(55,60,66,65)        144.6139         estimate D2E/DX2                !
 ! D416  D(57,60,66,64)       -139.9321         estimate D2E/DX2                !
 ! D417  D(57,60,66,65)          2.8953         estimate D2E/DX2                !
 ! D418  D(46,61,62,48)         -1.2487         estimate D2E/DX2                !
 ! D419  D(46,61,62,63)       -140.279          estimate D2E/DX2                !
 ! D420  D(65,61,62,48)        136.9076         estimate D2E/DX2                !
 ! D421  D(65,61,62,63)         -2.1227         estimate D2E/DX2                !
 ! D422  D(46,61,65,59)          2.3607         estimate D2E/DX2                !
 ! D423  D(46,61,65,66)        145.2007         estimate D2E/DX2                !
 ! D424  D(62,61,65,59)       -140.3927         estimate D2E/DX2                !
 ! D425  D(62,61,65,66)          2.4472         estimate D2E/DX2                !
 ! D426  D(48,62,63,50)          1.0317         estimate D2E/DX2                !
 ! D427  D(48,62,63,64)       -144.6032         estimate D2E/DX2                !
 ! D428  D(61,62,63,50)        144.9042         estimate D2E/DX2                !
 ! D429  D(61,62,63,64)         -0.7307         estimate D2E/DX2                !
 ! D430  D(50,63,64,56)          0.1071         estimate D2E/DX2                !
 ! D431  D(50,63,64,66)       -138.0651         estimate D2E/DX2                !
 ! D432  D(62,63,64,56)        141.4303         estimate D2E/DX2                !
 ! D433  D(62,63,64,66)          3.2581         estimate D2E/DX2                !
 ! D434  D(56,64,66,60)         -1.6921         estimate D2E/DX2                !
 ! D435  D(56,64,66,65)       -144.7234         estimate D2E/DX2                !
 ! D436  D(63,64,66,60)        140.0967         estimate D2E/DX2                !
 ! D437  D(63,64,66,65)         -2.9346         estimate D2E/DX2                !
[...]
 
              Baa    -0.0196    -2.629    -0.938    -0.877 -0.5723  0.6414  0.5110
    12 C(13)  Bbb     0.0057     0.769     0.274     0.256  0.2649  0.7343 -0.6250
              Bcc     0.0139     1.860     0.664     0.620  0.7761  0.2223  0.5901
 
              Baa    -0.0060    -0.803    -0.286    -0.268  0.5243  0.8515  0.0059
    13 C(13)  Bbb    -0.0043    -0.573    -0.204    -0.191  0.7082 -0.4399  0.5523
              Bcc     0.0102     1.375     0.491     0.459 -0.4728  0.2854  0.8337
 
              Baa    -0.0154    -2.062    -0.736    -0.688  0.7084  0.5990 -0.3733
    14 C(13)  Bbb    -0.0125    -1.675    -0.598    -0.559  0.5314 -0.1046  0.8407
              Bcc     0.0279     3.737     1.334     1.247 -0.4645  0.7939  0.3924
 
              Baa    -0.0068    -0.908    -0.324    -0.303  0.6757  0.1024  0.7300
    15 C(13)  Bbb     0.0030     0.399     0.143     0.133  0.4510  0.7259 -0.5193
              Bcc     0.0038     0.509     0.182     0.170 -0.5831  0.6801  0.4443
 
              Baa    -0.0048    -0.647    -0.231    -0.216 -0.0837 -0.6037  0.7928
    16 C(13)  Bbb    -0.0031    -0.416    -0.148    -0.139  0.9424 -0.3065 -0.1338
              Bcc     0.0079     1.063     0.379     0.355  0.3238  0.7360  0.5946
 
              Baa    -0.1013   -13.590    -4.849    -4.533  0.4883  0.1345  0.8622
    17 C(13)  Bbb     0.0425     5.704     2.035     1.903  0.8098 -0.4380 -0.3903
              Bcc     0.0588     7.885     2.814     2.630  0.3252  0.8888 -0.3229
 
              Baa    -0.1397   -18.748    -6.690    -6.254 -0.1651  0.9284  0.3329
    18 C(13)  Bbb    -0.1334   -17.895    -6.385    -5.969  0.7780  0.3301 -0.5346
              Bcc     0.2731    36.643    13.075    12.223  0.6062 -0.1708  0.7767
 
              Baa    -0.0259    -3.479    -1.241    -1.161 -0.2056  0.9351 -0.2887
    19 C(13)  Bbb    -0.0221    -2.964    -1.057    -0.989  0.9350  0.1006 -0.3402
              Bcc     0.0480     6.443     2.299     2.149  0.2890  0.3399  0.8949
 
              Baa    -0.0371    -4.981    -1.777    -1.662 -0.3591 -0.5211  0.7743
    20 C(13)  Bbb    -0.0356    -4.775    -1.704    -1.593  0.9184 -0.3447  0.1940
              Bcc     0.0727     9.756     3.481     3.254  0.1658  0.7808  0.6024
 
              Baa    -0.0460    -6.174    -2.203    -2.059  0.1701  0.5759  0.7996
    21 C(13)  Bbb     0.0196     2.626     0.937     0.876  0.0311  0.8079 -0.5885
              Bcc     0.0264     3.547     1.266     1.183  0.9849 -0.1249 -0.1195
 
              Baa    -0.0960   -12.880    -4.596    -4.296 -0.6323  0.2802  0.7223
    22 C(13)  Bbb    -0.0898   -12.048    -4.299    -4.019  0.7300 -0.0967  0.6766
              Bcc     0.1858    24.928     8.895     8.315  0.2594  0.9551 -0.1434
 
              Baa    -0.0684    -9.178    -3.275    -3.061  0.2036  0.9456  0.2538
    23 C(13)  Bbb     0.0324     4.347     1.551     1.450  0.9197 -0.2736  0.2817
              Bcc     0.0360     4.831     1.724     1.611 -0.3358 -0.1760  0.9253
 
              Baa    -0.0320    -4.299    -1.534    -1.434  0.0641  0.9052 -0.4201
    24 C(13)  Bbb     0.0115     1.549     0.553     0.517  0.7382 -0.3262 -0.5905
              Bcc     0.0205     2.749     0.981     0.917  0.6715  0.2723  0.6891
 
              Baa    -0.0219    -2.941    -1.049    -0.981 -0.2028 -0.4147  0.8871
    25 C(13)  Bbb     0.0104     1.393     0.497     0.465  0.9301  0.2018  0.3070
              Bcc     0.0115     1.548     0.552     0.516 -0.3063  0.8873  0.3447
 
              Baa    -0.0395    -5.306    -1.893    -1.770  0.6259 -0.5908 -0.5091
    26 C(13)  Bbb    -0.0363    -4.875    -1.740    -1.626  0.7799  0.4795  0.4023
              Bcc     0.0759    10.181     3.633     3.396  0.0064 -0.6488  0.7609
 
              Baa    -0.0139    -1.865    -0.665    -0.622 -0.2699  0.4076  0.8724
    27 C(13)  Bbb     0.0065     0.870     0.310     0.290  0.5795  0.7923 -0.1909
              Bcc     0.0074     0.996     0.355     0.332  0.7690 -0.4540  0.4500
 
              Baa    -0.0132    -1.774    -0.633    -0.592 -0.0311  0.9924 -0.1187
    28 C(13)  Bbb    -0.0131    -1.760    -0.628    -0.587  0.9521  0.0656  0.2988
              Bcc     0.0263     3.533     1.261     1.179 -0.3043  0.1037  0.9469
 
              Baa    -0.0189    -2.542    -0.907    -0.848 -0.4536  0.6834  0.5720
    29 C(13)  Bbb     0.0076     1.018     0.363     0.340  0.3059  0.7222 -0.6204
              Bcc     0.0114     1.524     0.544     0.508  0.8370  0.1064  0.5367
 
              Baa    -0.0154    -2.067    -0.738    -0.689 -0.0057  0.7481 -0.6635
    30 C(13)  Bbb    -0.0137    -1.833    -0.654    -0.611  0.9186  0.2661  0.2922
              Bcc     0.0291     3.900     1.391     1.301 -0.3951  0.6079  0.6887
 
              Baa    -0.0010    -0.130    -0.046    -0.043 -0.2928 -0.4582  0.8392
    31 C(13)  Bbb    -0.0001    -0.020    -0.007    -0.007  0.9015 -0.4247  0.0826
              Bcc     0.0011     0.149     0.053     0.050  0.3186  0.7808  0.5374
 
              Baa    -0.0266    -3.568    -1.273    -1.190  0.0551  0.4684  0.8818
    32 C(13)  Bbb    -0.0256    -3.440    -1.228    -1.148  0.9287  0.3002 -0.2175
              Bcc     0.0522     7.008     2.501     2.338 -0.3666  0.8310 -0.4184
 
              Baa    -0.0594    -7.970    -2.844    -2.659  0.4546 -0.4708  0.7561
    33 C(13)  Bbb     0.0232     3.109     1.109     1.037 -0.2784  0.7312  0.6227
              Bcc     0.0362     4.861     1.735     1.622  0.8461  0.4936 -0.2013
 
              Baa    -0.0436    -5.856    -2.089    -1.953 -0.1510  0.9646 -0.2161
    34 C(13)  Bbb     0.0196     2.629     0.938     0.877 -0.1222  0.1987  0.9724
              Bcc     0.0240     3.227     1.151     1.076  0.9810  0.1732  0.0878
 
              Baa    -0.0576    -7.724    -2.756    -2.576  0.1799  0.0539  0.9822
    35 C(13)  Bbb     0.0279     3.748     1.337     1.250  0.8055  0.5650 -0.1786
              Bcc     0.0296     3.976     1.419     1.326 -0.5646  0.8233  0.0582
 
              Baa    -0.0696    -9.337    -3.332    -3.114 -0.4020  0.8227  0.4019
    36 C(13)  Bbb    -0.0649    -8.707    -3.107    -2.904  0.8967  0.4425 -0.0089
              Bcc     0.1345    18.044     6.439     6.019  0.1851 -0.3568  0.9156
 
              Baa    -0.0235    -3.154    -1.125    -1.052  0.9206 -0.2962  0.2543
    37 C(13)  Bbb    -0.0218    -2.927    -1.044    -0.976  0.3027  0.9530  0.0140
              Bcc     0.0453     6.081     2.170     2.028 -0.2465  0.0641  0.9670
 
              Baa    -0.0480    -6.441    -2.298    -2.148  0.9164 -0.2309  0.3269
    38 C(13)  Bbb    -0.0473    -6.344    -2.264    -2.116  0.3806  0.7556 -0.5332
              Bcc     0.0953    12.784     4.562     4.264 -0.1239  0.6130  0.7803
 
              Baa    -0.0309    -4.148    -1.480    -1.384 -0.3164  0.3650  0.8756
    39 C(13)  Bbb     0.0137     1.841     0.657     0.614  0.8620 -0.2748  0.4260
              Bcc     0.0172     2.307     0.823     0.769  0.3961  0.8895 -0.2276
 
              Baa    -0.0224    -3.005    -1.072    -1.002  0.9504  0.2880 -0.1170
    40 C(13)  Bbb    -0.0207    -2.777    -0.991    -0.926  0.1946 -0.2574  0.9465
              Bcc     0.0431     5.782     2.063     1.929 -0.2425  0.9224  0.3007
 
              Baa    -0.0054    -0.728    -0.260    -0.243 -0.5025  0.1738  0.8469
    41 C(13)  Bbb    -0.0041    -0.554    -0.198    -0.185  0.7369  0.5984  0.3145
              Bcc     0.0096     1.283     0.458     0.428 -0.4522  0.7821 -0.4288
 
              Baa    -0.0353    -4.732    -1.688    -1.578 -0.3251  0.7706  0.5482
    42 C(13)  Bbb     0.0162     2.171     0.775     0.724  0.9015  0.4276 -0.0665
              Bcc     0.0191     2.560     0.914     0.854  0.2857 -0.4726  0.8337
 
              Baa    -0.0029    -0.395    -0.141    -0.132 -0.2366 -0.4345  0.8690
    43 C(13)  Bbb    -0.0009    -0.120    -0.043    -0.040  0.6489  0.5950  0.4742
              Bcc     0.0038     0.515     0.184     0.172  0.7231 -0.6761 -0.1412
 
              Baa    -0.0032    -0.427    -0.152    -0.142  0.0655  0.9862 -0.1521
    44 C(13)  Bbb    -0.0027    -0.357    -0.127    -0.119  0.7019 -0.1539 -0.6955
              Bcc     0.0058     0.784     0.280     0.262  0.7093  0.0612  0.7022
 
              Baa    -0.0058    -0.783    -0.280    -0.261  0.8498 -0.4001 -0.3431
    45 C(13)  Bbb    -0.0047    -0.631    -0.225    -0.211  0.3969  0.9141 -0.0829
              Bcc     0.0105     1.414     0.505     0.472  0.3468 -0.0658  0.9356
 
              Baa    -0.0105    -1.411    -0.503    -0.471 -0.3551  0.6203  0.6994
    46 C(13)  Bbb    -0.0097    -1.298    -0.463    -0.433  0.6793  0.6852 -0.2628
              Bcc     0.0202     2.709     0.966     0.903  0.6422 -0.3818  0.6646
 
              Baa    -0.0003    -0.046    -0.017    -0.015  0.7985 -0.5370 -0.2722
    47 C(13)  Bbb    -0.0002    -0.026    -0.009    -0.009 -0.1013 -0.5656  0.8184
              Bcc     0.0005     0.072     0.026     0.024  0.5934  0.6259  0.5060
 
              Baa    -0.0016    -0.218    -0.078    -0.073 -0.4909  0.8621 -0.1257
    48 C(13)  Bbb    -0.0014    -0.185    -0.066    -0.062 -0.6749 -0.2850  0.6806
              Bcc     0.0030     0.403     0.144     0.134  0.5510  0.4189  0.7218
 
              Baa    -0.0046    -0.616    -0.220    -0.206  0.9414 -0.2592 -0.2160
    49 C(13)  Bbb    -0.0031    -0.412    -0.147    -0.138  0.1789 -0.1595  0.9709
              Bcc     0.0077     1.029     0.367     0.343  0.2861  0.9526  0.1038
 
              Baa    -0.0051    -0.680    -0.243    -0.227  0.8398 -0.3425 -0.4213
    50 C(13)  Bbb    -0.0045    -0.598    -0.213    -0.199  0.1428 -0.6094  0.7799
              Bcc     0.0095     1.278     0.456     0.426  0.5238  0.7151  0.4629
 
              Baa    -0.0348    -4.672    -1.667    -1.558 -0.5956  0.3901  0.7022
    51 C(13)  Bbb    -0.0307    -4.119    -1.470    -1.374  0.7934  0.1487  0.5903
              Bcc     0.0655     8.791     3.137     2.932  0.1258  0.9087 -0.3981
 
              Baa    -0.0303    -4.063    -1.450    -1.355 -0.0439 -0.6492  0.7594
    52 C(13)  Bbb     0.0119     1.601     0.571     0.534  0.7129 -0.5528 -0.4314
              Bcc     0.0183     2.462     0.879     0.821  0.6998  0.5225  0.4871
 
              Baa    -0.0038    -0.509    -0.182    -0.170 -0.5304  0.7327  0.4265
    53 C(13)  Bbb    -0.0025    -0.330    -0.118    -0.110  0.6613  0.0428  0.7489
              Bcc     0.0062     0.838     0.299     0.280  0.5305  0.6792 -0.5072
 
              Baa    -0.0023    -0.305    -0.109    -0.102 -0.2968 -0.4940  0.8173
    54 C(13)  Bbb    -0.0006    -0.084    -0.030    -0.028 -0.6426  0.7364  0.2118
              Bcc     0.0029     0.389     0.139     0.130  0.7064  0.4623  0.5360
 
              Baa    -0.0052    -0.693    -0.247    -0.231 -0.3976  0.9013 -0.1722
    55 C(13)  Bbb    -0.0036    -0.485    -0.173    -0.162  0.5356  0.3804  0.7539
              Bcc     0.0088     1.178     0.420     0.393  0.7450  0.2075 -0.6340
 
              Baa    -0.0103    -1.388    -0.495    -0.463 -0.4153  0.5245  0.7433
    56 C(13)  Bbb    -0.0099    -1.330    -0.475    -0.444  0.6164 -0.4386  0.6539
              Bcc     0.0203     2.718     0.970     0.907  0.6690  0.7298 -0.1412
 
              Baa    -0.0025    -0.338    -0.121    -0.113  0.3495  0.7508  0.5605
    57 C(13)  Bbb    -0.0021    -0.282    -0.100    -0.094 -0.4853  0.6568 -0.5771
              Bcc     0.0046     0.620     0.221     0.207  0.8015  0.0703 -0.5939
 
              Baa    -0.0035    -0.463    -0.165    -0.154  0.4374  0.4668  0.7686
    58 C(13)  Bbb    -0.0028    -0.372    -0.133    -0.124  0.4091  0.6579 -0.6323
              Bcc     0.0062     0.835     0.298     0.279  0.8008 -0.5910 -0.0967
 
              Baa    -0.0107    -1.437    -0.513    -0.479  0.8268 -0.5623  0.0166
    59 C(13)  Bbb     0.0052     0.699     0.250     0.233  0.5024  0.7514  0.4278
              Bcc     0.0055     0.738     0.263     0.246 -0.2530 -0.3454  0.9037
 
              Baa    -0.0112    -1.508    -0.538    -0.503  0.8614  0.1070 -0.4965
    60 C(13)  Bbb     0.0055     0.733     0.262     0.245  0.4103  0.4294  0.8045
              Bcc     0.0058     0.775     0.277     0.259 -0.2993  0.8967 -0.3260
 
              Baa    -0.0012    -0.165    -0.059    -0.055  0.2251  0.0768  0.9713
    61 C(13)  Bbb     0.0002     0.029     0.010     0.010  0.9396 -0.2811 -0.1955
              Bcc     0.0010     0.137     0.049     0.046  0.2580  0.9566 -0.1354
 
              Baa    -0.0070    -0.945    -0.337    -0.315  0.6963 -0.4936 -0.5210
    62 C(13)  Bbb    -0.0061    -0.822    -0.293    -0.274  0.2271  0.8402 -0.4925
              Bcc     0.0132     1.767     0.630     0.589  0.6809  0.2246  0.6971
 
              Baa    -0.0049    -0.654    -0.233    -0.218  0.7143 -0.3732 -0.5920
    63 C(13)  Bbb    -0.0040    -0.532    -0.190    -0.177 -0.2093  0.6933 -0.6896
              Bcc     0.0088     1.186     0.423     0.396  0.6678  0.6165  0.4171
 
              Baa    -0.0025    -0.330    -0.118    -0.110  0.7837  0.5765  0.2312
    64 C(13)  Bbb     0.0005     0.069     0.025     0.023 -0.6183  0.6886  0.3789
              Bcc     0.0019     0.261     0.093     0.087  0.0592 -0.4399  0.8961
 
              Baa    -0.0030    -0.398    -0.142    -0.133  0.9507 -0.2012  0.2358
    65 C(13)  Bbb     0.0012     0.164     0.059     0.055  0.0010  0.7628  0.6467
              Bcc     0.0017     0.234     0.083     0.078 -0.3100 -0.6146  0.7254
 
              Baa    -0.0008    -0.103    -0.037    -0.034  0.6427  0.6545 -0.3982
    66 C(13)  Bbb    -0.0002    -0.022    -0.008    -0.007 -0.0429  0.5496  0.8343
              Bcc     0.0009     0.125     0.045     0.042  0.7649 -0.5192  0.3813
 
              Baa    -0.0753    -3.942    -1.407    -1.315  0.0776  0.9288 -0.3624
    67 Cl(35) Bbb    -0.0365    -1.909    -0.681    -0.637 -0.3023  0.3683  0.8792
              Bcc     0.1118     5.851     2.088     1.952  0.9501  0.0414  0.3093
 
              Baa    -0.0199    -1.042    -0.372    -0.348  0.9711  0.1534  0.1829
    68 Cl(35) Bbb     0.0015     0.077     0.027     0.026 -0.1869  0.9653  0.1823
              Bcc     0.0184     0.966     0.345     0.322 -0.1486 -0.2112  0.9661
 
              Baa    -0.0470    -2.462    -0.878    -0.821  0.7193  0.0743  0.6907
    69 Cl(35) Bbb    -0.0418    -2.189    -0.781    -0.730  0.2046  0.9274 -0.3130
              Bcc     0.0889     4.651     1.660     1.551  0.6638 -0.3665 -0.6519
 
              Baa    -0.0131    -0.687    -0.245    -0.229 -0.2315 -0.5174  0.8238
    70 Cl(35) Bbb    -0.0057    -0.297    -0.106    -0.099 -0.2767  0.8469  0.4541
              Bcc     0.0188     0.983     0.351     0.328  0.9327  0.1228  0.3392
 
              Baa    -0.0258    -1.353    -0.483    -0.451 -0.0198  0.8252  0.5644
    71 Cl(35) Bbb     0.0096     0.501     0.179     0.167 -0.4842 -0.5018  0.7167
              Bcc     0.0163     0.852     0.304     0.284  0.8747 -0.2591  0.4095
 
              Baa    -0.0073    -0.381    -0.136    -0.127 -0.1312  0.8022 -0.5824
    72 Cl(35) Bbb    -0.0033    -0.171    -0.061    -0.057  0.8423 -0.2197 -0.4923
              Bcc     0.0105     0.552     0.197     0.184  0.5228  0.5551  0.6469
 
              Baa    -0.2129   -11.145    -3.977    -3.718  0.3141  0.7449  0.5886
    73 Cl(35) Bbb    -0.1864    -9.755    -3.481    -3.254 -0.5988 -0.3257  0.7317
              Bcc     0.3993    20.900     7.458     6.971  0.7368 -0.5822  0.3437
 

 ---------------------------------------------------------------------------------

 No NMR shielding tensors so no spin-rotation constants.
 Leave Link  601 at Fri Jul 15 21:21:12 2022, MaxMem=  1342177280 cpu:             113.5 elap:               2.6
 (Enter /home/mkliu/g16/l9999.exe)
 1\1\GINC-NODE06\FOpt\UB3LYP\6-311G(d,p)\C66Cl7(2)\MKLIU\15-Jul-2022\0\
 \#P opt b3lyp/6-311G(d, p) empiricaldispersion=GD3\\force\\0,2\C,-1.32
 66752183,1.8780699164,-3.9075060758\C,0.1913911163,2.2641006907,-4.005
 064123\C,0.9561346412,0.8820217398,-4.332748512\C,-1.3043518657,0.3821
 30318,-3.9437117272\C,-0.1084814672,-0.1525033681,-4.2315201615\C,-2.2
 293408632,-0.1608228799,-2.9897386453\C,-1.9846014487,2.1132315263,-2.
 5645578586\C,-2.6683781088,0.9276761674,-2.1706462166\C,-1.472371156,2
 .9784130257,-1.5815282623\C,0.7240603379,2.6424845491,-2.6515626569\C,
 -0.0175324665,3.2628314559,-1.6367859115\C,1.8406931173,0.6799495263,-
 3.117855718\C,1.8335434042,1.8447733124,-2.3071299918\C,2.1594866614,-
 0.5346831949,-2.5594979384\C,0.1732958031,-1.5688605917,-3.9033255844\
 C,1.6148674974,-1.8137170833,-3.2064548409\C,-1.9623583004,-1.42942127
 87,-2.4108828568\C,-0.8064531279,-2.0998710364,-2.870813001\C,-2.49383
 89256,-1.7240686783,-1.0823897798\C,-3.0977464996,0.70882596,-0.830556
 3679\C,-3.1050788108,-0.64839572,-0.2938861957\C,-2.0789802894,2.90325
 56816,-0.3089197943\C,-2.9512880569,1.8095379638,0.0402237084\C,-1.396
 5259451,3.306190905,0.9062724716\C,0.6649168686,3.4539629478,-0.404686
 3926\C,-0.041170607,3.5862776838,0.8633751806\C,2.3931673392,1.8372600
 207,-1.009584466\C,1.9090257696,2.8291669848,-0.1297111072\C,2.7910428
 535,-0.5633092835,-1.255739223\C,2.9602373115,0.6075245802,-0.51830796
 83\C,3.1121158054,-1.9243220746,-0.6230551937\C,1.2762271876,-2.800562
 8336,-2.1148165887\C,-0.1391034733,-3.0170334174,-2.0388443279\C,2.020
 5931239,-2.9224536364,-0.9795375553\C,-1.9546968099,-2.8329361852,-0.3
 981493311\C,-0.7396754771,-3.4564855353,-0.8604339697\C,-1.9512438215,
 -2.9137281281,1.041528917\C,-3.1631440154,-0.7926614397,1.1124741456\C
 ,-2.5571302926,-1.9150578055,1.7848339364\C,-2.8974298054,1.6239020089
 ,1.4669738908\C,-1.9360263354,2.5503842969,2.0192598889\C,-3.030282752
 9,0.3511869371,1.9934666466\C,-1.1201722257,2.151695202,3.074267808\C,
 0.8217586432,3.1239156393,1.9260237271\C,2.036319042,2.6528483404,1.30
 92598594\C,0.2979723525,2.4480694239,3.0302343339\C,3.4721812072,0.593
 8349591,0.9217016004\C,2.7045717087,1.5680449327,1.8133866759\C,3.0048
 798122,-1.8749729502,0.8926090884\C,3.1955443118,-0.7289144634,1.60461
 82826\C,1.4340152615,-3.4525234947,0.2177932535\C,0.0737811133,-3.7714
 461391,0.2750079995\C,-0.6867898439,-3.4750661709,1.4695621095\C,2.074
 1204999,-2.8573279252,1.3633428096\C,-0.0557756627,-2.9689772104,2.601
 462095\C,1.3634079308,-2.6615186881,2.5517510732\C,-1.9503591905,-1.45
 22102113,3.0155750818\C,-2.2431507538,-0.0424276121,3.1455151723\C,-1.
 2834906305,0.8314799206,3.6567452623\C,-0.7040421739,-1.9499429201,3.3
 99700887\C,1.0067421165,1.318132749,3.5723313377\C,2.1949811094,0.8934
 48826,2.9643727186\C,2.4897452414,-0.5160875078,2.834203356\C,1.586532
 2407,-1.4663176727,3.3147214548\C,0.0326147519,0.325354958,3.996068685
 3\C,0.3159164657,-1.0303138884,3.8703031681\Cl,-2.397038828,2.55322600
 54,-5.2261516139\Cl,0.5655208644,3.6242863814,-5.1257003702\Cl,1.91359
 66507,0.8182325382,-5.8686813505\Cl,2.8940418779,-2.4697030029,-4.3254
 022947\Cl,4.7966311933,-2.4621988967,-1.1486587224\Cl,5.283230961,1.00
 19556382,0.9116389595\Cl,-0.0446276921,-2.5819350273,-5.4426021136\\Ve
 rsion=ES64L-G16RevA.03\State=2-A\HF=-5736.9935889\S2=0.796616\S2-1=0.\
 S2A=0.752049\RMSD=4.233e-09\RMSF=2.900e-05\Dipole=-1.3214169,0.0599699
 ,1.9157765\Quadrupole=-1.8041702,5.8748525,-4.0706823,2.4883722,-1.831
 4955,-0.3348134\PG=C01 [X(C66Cl7)]\\@


 YE HAVE SOWN MUCH, AND BRING IN LITTLE.
 YE EAT, BUT YE HAVE NOT ENOUGH.
 YE DRINK, BUT YE ARE NOT FILLED WITH DRINK.
 YE CLOTHE YOU, BUT THERE IS NONE WARM.
 AND HE THAT EARNETH WAGES EARNETH WAGES TO PUT
 IT INTO A BAG WITH HOLES.
                                     HAGGAI I,6
 Job cpu time:       4 days 11 hours 57 minutes 48.4 seconds.
 Elapsed time:       0 days  2 hours 15 minutes 10.4 seconds.
 File lengths (MBytes):  RWF=   2038 Int=      0 D2E=      0 Chk=    184 Scr=      1
 Normal termination of Gaussian 16 at Fri Jul 15 21:21:14 2022.
