 Entering Gaussian System, Link 0=g16
 Input=dmj66t6xnuku8_addon_7.gjf
 Output=dmj66t6xnuku8_addon_7.log
 Initial command:
 /home/mkliu/g16/l1.exe "/data/scratch/Gau-29868.inp" -scrdir="/data/scratch/"
 Entering Link 1 = /home/mkliu/g16/l1.exe PID=     29869.
  
 Copyright (c) 1988,1990,1992,1993,1995,1998,2003,2009,2016,
            Gaussian, Inc.  All Rights Reserved.
  
 This is part of the Gaussian(R) 16 program.  It is based on
 the Gaussian(R) 09 system (copyright 2009, Gaussian, Inc.),
 the Gaussian(R) 03 system (copyright 2003, Gaussian, Inc.),
 the Gaussian(R) 98 system (copyright 1998, Gaussian, Inc.),
 the Gaussian(R) 94 system (copyright 1995, Gaussian, Inc.),
 the Gaussian 92(TM) system (copyright 1992, Gaussian, Inc.),
 the Gaussian 90(TM) system (copyright 1990, Gaussian, Inc.),
 the Gaussian 88(TM) system (copyright 1988, Gaussian, Inc.),
 the Gaussian 86(TM) system (copyright 1986, Carnegie Mellon
 University), and the Gaussian 82(TM) system (copyright 1983,
 Carnegie Mellon University). Gaussian is a federally registered
 trademark of Gaussian, Inc.
  
 This software contains proprietary and confidential information,
 including trade secrets, belonging to Gaussian, Inc.
  
 This software is provided under written license and may be
 used, copied, transmitted, or stored only in accord with that
 written license.
  
 The following legend is applicable only to US Government
 contracts under FAR:
  
                    RESTRICTED RIGHTS LEGEND
  
 Use, reproduction and disclosure by the US Government is
 subject to restrictions as set forth in subparagraphs (a)
 and (c) of the Commercial Computer Software - Restricted
 Rights clause in FAR 52.227-19.
  
 Gaussian, Inc.
 340 Quinnipiac St., Bldg. 40, Wallingford CT 06492
  
  
 ---------------------------------------------------------------
 Warning -- This program may not be used in any manner that
 competes with the business of Gaussian, Inc. or will provide
 assistance to any competitor of Gaussian, Inc.  The licensee
 of this program is prohibited from giving any competitor of
 Gaussian, Inc. access to this program.  By using this program,
 the user acknowledges that Gaussian, Inc. is engaged in the
 business of creating and licensing software in the field of
 computational chemistry and represents and warrants to the
 licensee that it is not a competitor of Gaussian, Inc. and that
 it will not use this program in any manner prohibited above.
 ---------------------------------------------------------------
  

 Cite this work as:
 Gaussian 16, Revision A.03,
 M. J. Frisch, G. W. Trucks, H. B. Schlegel, G. E. Scuseria, 
 M. A. Robb, J. R. Cheeseman, G. Scalmani, V. Barone, 
 G. A. Petersson, H. Nakatsuji, X. Li, M. Caricato, A. V. Marenich, 
 J. Bloino, B. G. Janesko, R. Gomperts, B. Mennucci, H. P. Hratchian, 
 J. V. Ortiz, A. F. Izmaylov, J. L. Sonnenberg, D. Williams-Young, 
 F. Ding, F. Lipparini, F. Egidi, J. Goings, B. Peng, A. Petrone, 
 T. Henderson, D. Ranasinghe, V. G. Zakrzewski, J. Gao, N. Rega, 
 G. Zheng, W. Liang, M. Hada, M. Ehara, K. Toyota, R. Fukuda, 
 J. Hasegawa, M. Ishida, T. Nakajima, Y. Honda, O. Kitao, H. Nakai, 
 T. Vreven, K. Throssell, J. A. Montgomery, Jr., J. E. Peralta, 
 F. Ogliaro, M. J. Bearpark, J. J. Heyd, E. N. Brothers, K. N. Kudin, 
 V. N. Staroverov, T. A. Keith, R. Kobayashi, J. Normand, 
 K. Raghavachari, A. P. Rendell, J. C. Burant, S. S. Iyengar, 
 J. Tomasi, M. Cossi, J. M. Millam, M. Klene, C. Adamo, R. Cammi, 
 J. W. Ochterski, R. L. Martin, K. Morokuma, O. Farkas, 
 J. B. Foresman, and D. J. Fox, Gaussian, Inc., Wallingford CT, 2016.
 
 ******************************************
 Gaussian 16:  ES64L-G16RevA.03 25-Dec-2016
                15-Jul-2022 
 ******************************************
 %mem=10GB
 %chk=dmj66t6xnuku8_addon_7.chk
 %nprocshared=48
 Will use up to   48 processors via shared memory.
 -------------------------------------------------
 #P opt b3lyp/6-311G(d, p) empiricaldispersion=GD3
 -------------------------------------------------
 1/18=20,19=15,26=3,38=1/1,3;
 2/9=110,12=2,17=6,18=5,40=1/2;
 3/5=4,6=6,7=101,11=2,25=1,30=1,71=1,74=-5,124=31/1,2,3;
 4//1;
 5/5=2,38=5/2;
 6/7=2,8=2,9=2,10=2,28=1/1;
 7//1,2,3,16;
 1/18=20,19=15,26=3/3(2);
 2/9=110/2;
 99//99;
 2/9=110/2;
 3/5=4,6=6,7=101,11=2,25=1,30=1,71=1,74=-5,124=31/1,2,3;
 4/5=5,16=3,69=1/1;
 5/5=2,38=5/2;
 7//1,2,3,16;
 1/18=20,19=15,26=3/3(-5);
 2/9=110/2;
 6/7=2,8=2,9=2,10=2,19=2,28=1/1;
 99/9=1/99;
 Leave Link    1 at Fri Jul 15 03:55:51 2022, MaxMem=  1342177280 cpu:               2.2 elap:               0.1
 (Enter /home/mkliu/g16/l101.exe)
 -----
 force
 -----
 Symbolic Z-matrix:
 Charge =  0 Multiplicity = 2
 C                    -1.3335    1.87589  -3.87527 
 C                     0.1812    2.19915  -3.99499 
 C                     0.96651   0.88527  -4.29148 
 C                    -1.27643   0.39328  -3.84544 
 C                    -0.06089  -0.17501  -4.12822 
 C                    -2.16109  -0.1458   -2.92167 
 C                    -2.02561   2.11562  -2.55775 
 C                    -2.67929   0.94014  -2.13846 
 C                    -1.47957   2.93973  -1.57761 
 C                     0.66509   2.58524  -2.65308 
 C                    -0.04387   3.20828  -1.64911 
 C                     1.83285   0.67023  -3.07237 
 C                     1.78526   1.79584  -2.24618 
 C                     2.18873  -0.55306  -2.53042 
 C                     0.21308  -1.41245  -3.59419 
 C                     1.6075   -1.8142   -3.16675 
 C                    -1.9348   -1.41038  -2.36459 
 C                    -0.7517   -2.05608  -2.80763 
 C                    -2.4978   -1.72336  -1.06989 
 C                    -3.12934   0.69213  -0.82221 
 C                    -3.12159  -0.66153  -0.29935 
 C                    -2.07767   2.83888  -0.31491 
 C                    -2.97274   1.7806    0.04326 
 C                    -1.41019   3.24201   0.86741 
 C                     0.66201   3.41299  -0.42151 
 C                    -0.03286   3.48374   0.7844 
 C                     2.36431   1.78442  -0.99077 
 C                     2.08971   2.99534  -0.1531 
 C                     2.8103   -0.57526  -1.26078 
 C                     2.92122   0.60295  -0.50181 
 C                     3.13069  -1.92368  -0.63549 
 C                     1.29808  -2.81183  -2.09547 
 C                    -0.10899  -3.02689  -1.99926 
 C                     2.03953  -2.90536  -0.96587 
 C                    -1.95205  -2.82174  -0.39404 
 C                    -0.72882  -3.43672  -0.84791 
 C                    -1.95997  -2.90458   1.03439 
 C                    -3.17724  -0.80268   1.09491 
 C                    -2.57629  -1.91899   1.76908 
 C                    -2.92204   1.59724   1.45564 
 C                    -1.94773   2.52064   1.97978 
 C                    -3.05498   0.33029   1.979 
 C                    -1.13545   2.10808   3.01503 
 C                     0.81829   3.05078   1.8719 
 C                     2.05167   2.63767   1.29889 
 C                     0.27507   2.39307   2.94998 
 C                     3.4798    0.59772   0.90999 
 C                     2.70965   1.55361   1.7841 
 C                     3.01206  -1.85934   0.86254 
 C                     3.19103  -0.7179    1.57144 
 C                     1.44053  -3.43472   0.21714 
 C                     0.08861  -3.73998   0.27657 
 C                    -0.69004  -3.44936   1.4427 
 C                     2.06796  -2.82544   1.33849 
 C                    -0.06653  -2.9321    2.55973 
 C                     1.33676  -2.6209    2.4952 
 C                    -1.97613  -1.4575    2.99098 
 C                    -2.27233  -0.05947   3.11923 
 C                    -1.31289   0.8126    3.60715 
 C                    -0.73015  -1.93658   3.35381 
 C                     0.97935   1.28298   3.50009 
 C                     2.17395   0.88004   2.92163 
 C                     2.4658   -0.51262   2.78951 
 C                     1.54824  -1.43616   3.24966 
 C                     0.00349   0.32039   3.92981 
 C                     0.28637  -1.02536   3.80485 
 Cl                   -2.30134   2.6436   -5.16819 
 Cl                    0.51354   3.56544  -5.13258 
 Cl                    1.87149   0.78285  -5.80813 
 Cl                    2.70017  -2.42024  -4.44623 
 Cl                    4.77153  -2.42945  -1.20419 
 Cl                    5.23952   0.98418   0.79116 
 Cl                    3.3335    4.28205  -0.48462 
 
 ITRead=  0  0  0  0  0  0  0  0  0  0  0  0  0  0  0  0  0  0  0  0
 ITRead=  0  0  0  0  0  0  0  0  0  0  0  0  0  0  0  0  0  0  0  0
 ITRead=  0  0  0  0  0  0  0  0  0  0  0  0  0  0  0  0  0  0  0  0
 ITRead=  0  0  0  0  0  0  0  0  0  0  0  0  0
 MicOpt= -1 -1 -1 -1 -1 -1 -1 -1 -1 -1 -1 -1 -1 -1 -1 -1 -1 -1 -1 -1
 MicOpt= -1 -1 -1 -1 -1 -1 -1 -1 -1 -1 -1 -1 -1 -1 -1 -1 -1 -1 -1 -1
 MicOpt= -1 -1 -1 -1 -1 -1 -1 -1 -1 -1 -1 -1 -1 -1 -1 -1 -1 -1 -1 -1
 MicOpt= -1 -1 -1 -1 -1 -1 -1 -1 -1 -1 -1 -1 -1
 NAtoms=     73 NQM=       73 NQMF=       0 NMMI=      0 NMMIF=      0
                NMic=       0 NMicF=      0.
                    Isotopes and Nuclear Properties:
 (Nuclear quadrupole moments (NQMom) in fm**2, nuclear magnetic moments (NMagM)
  in nuclear magnetons)

  Atom         1           2           3           4           5           6           7           8           9          10
 IAtWgt=          12          12          12          12          12          12          12          12          12          12
 AtmWgt=  12.0000000  12.0000000  12.0000000  12.0000000  12.0000000  12.0000000  12.0000000  12.0000000  12.0000000  12.0000000
 NucSpn=           0           0           0           0           0           0           0           0           0           0
 AtZEff=  -0.0000000  -0.0000000  -0.0000000  -0.0000000  -0.0000000  -0.0000000  -0.0000000  -0.0000000  -0.0000000  -0.0000000
 NQMom=    0.0000000   0.0000000   0.0000000   0.0000000   0.0000000   0.0000000   0.0000000   0.0000000   0.0000000   0.0000000
 NMagM=    0.0000000   0.0000000   0.0000000   0.0000000   0.0000000   0.0000000   0.0000000   0.0000000   0.0000000   0.0000000
 AtZNuc=   6.0000000   6.0000000   6.0000000   6.0000000   6.0000000   6.0000000   6.0000000   6.0000000   6.0000000   6.0000000

  Atom        11          12          13          14          15          16          17          18          19          20
 IAtWgt=          12          12          12          12          12          12          12          12          12          12
 AtmWgt=  12.0000000  12.0000000  12.0000000  12.0000000  12.0000000  12.0000000  12.0000000  12.0000000  12.0000000  12.0000000
 NucSpn=           0           0           0           0           0           0           0           0           0           0
 AtZEff=  -0.0000000  -0.0000000  -0.0000000  -0.0000000  -0.0000000  -0.0000000  -0.0000000  -0.0000000  -0.0000000  -0.0000000
 NQMom=    0.0000000   0.0000000   0.0000000   0.0000000   0.0000000   0.0000000   0.0000000   0.0000000   0.0000000   0.0000000
 NMagM=    0.0000000   0.0000000   0.0000000   0.0000000   0.0000000   0.0000000   0.0000000   0.0000000   0.0000000   0.0000000
 AtZNuc=   6.0000000   6.0000000   6.0000000   6.0000000   6.0000000   6.0000000   6.0000000   6.0000000   6.0000000   6.0000000

  Atom        21          22          23          24          25          26          27          28          29          30
 IAtWgt=          12          12          12          12          12          12          12          12          12          12
 AtmWgt=  12.0000000  12.0000000  12.0000000  12.0000000  12.0000000  12.0000000  12.0000000  12.0000000  12.0000000  12.0000000
 NucSpn=           0           0           0           0           0           0           0           0           0           0
 AtZEff=  -0.0000000  -0.0000000  -0.0000000  -0.0000000  -0.0000000  -0.0000000  -0.0000000  -0.0000000  -0.0000000  -0.0000000
 NQMom=    0.0000000   0.0000000   0.0000000   0.0000000   0.0000000   0.0000000   0.0000000   0.0000000   0.0000000   0.0000000
 NMagM=    0.0000000   0.0000000   0.0000000   0.0000000   0.0000000   0.0000000   0.0000000   0.0000000   0.0000000   0.0000000
 AtZNuc=   6.0000000   6.0000000   6.0000000   6.0000000   6.0000000   6.0000000   6.0000000   6.0000000   6.0000000   6.0000000

  Atom        31          32          33          34          35          36          37          38          39          40
 IAtWgt=          12          12          12          12          12          12          12          12          12          12
 AtmWgt=  12.0000000  12.0000000  12.0000000  12.0000000  12.0000000  12.0000000  12.0000000  12.0000000  12.0000000  12.0000000
 NucSpn=           0           0           0           0           0           0           0           0           0           0
 AtZEff=  -0.0000000  -0.0000000  -0.0000000  -0.0000000  -0.0000000  -0.0000000  -0.0000000  -0.0000000  -0.0000000  -0.0000000
 NQMom=    0.0000000   0.0000000   0.0000000   0.0000000   0.0000000   0.0000000   0.0000000   0.0000000   0.0000000   0.0000000
 NMagM=    0.0000000   0.0000000   0.0000000   0.0000000   0.0000000   0.0000000   0.0000000   0.0000000   0.0000000   0.0000000
 AtZNuc=   6.0000000   6.0000000   6.0000000   6.0000000   6.0000000   6.0000000   6.0000000   6.0000000   6.0000000   6.0000000

  Atom        41          42          43          44          45          46          47          48          49          50
 IAtWgt=          12          12          12          12          12          12          12          12          12          12
 AtmWgt=  12.0000000  12.0000000  12.0000000  12.0000000  12.0000000  12.0000000  12.0000000  12.0000000  12.0000000  12.0000000
 NucSpn=           0           0           0           0           0           0           0           0           0           0
 AtZEff=  -0.0000000  -0.0000000  -0.0000000  -0.0000000  -0.0000000  -0.0000000  -0.0000000  -0.0000000  -0.0000000  -0.0000000
 NQMom=    0.0000000   0.0000000   0.0000000   0.0000000   0.0000000   0.0000000   0.0000000   0.0000000   0.0000000   0.0000000
 NMagM=    0.0000000   0.0000000   0.0000000   0.0000000   0.0000000   0.0000000   0.0000000   0.0000000   0.0000000   0.0000000
 AtZNuc=   6.0000000   6.0000000   6.0000000   6.0000000   6.0000000   6.0000000   6.0000000   6.0000000   6.0000000   6.0000000

  Atom        51          52          53          54          55          56          57          58          59          60
 IAtWgt=          12          12          12          12          12          12          12          12          12          12
 AtmWgt=  12.0000000  12.0000000  12.0000000  12.0000000  12.0000000  12.0000000  12.0000000  12.0000000  12.0000000  12.0000000
 NucSpn=           0           0           0           0           0           0           0           0           0           0
 AtZEff=  -0.0000000  -0.0000000  -0.0000000  -0.0000000  -0.0000000  -0.0000000  -0.0000000  -0.0000000  -0.0000000  -0.0000000
 NQMom=    0.0000000   0.0000000   0.0000000   0.0000000   0.0000000   0.0000000   0.0000000   0.0000000   0.0000000   0.0000000
 NMagM=    0.0000000   0.0000000   0.0000000   0.0000000   0.0000000   0.0000000   0.0000000   0.0000000   0.0000000   0.0000000
 AtZNuc=   6.0000000   6.0000000   6.0000000   6.0000000   6.0000000   6.0000000   6.0000000   6.0000000   6.0000000   6.0000000

  Atom        61          62          63          64          65          66          67          68          69          70
 IAtWgt=          12          12          12          12          12          12          35          35          35          35
 AtmWgt=  12.0000000  12.0000000  12.0000000  12.0000000  12.0000000  12.0000000  34.9688527  34.9688527  34.9688527  34.9688527
 NucSpn=           0           0           0           0           0           0           3           3           3           3
 AtZEff=  -0.0000000  -0.0000000  -0.0000000  -0.0000000  -0.0000000  -0.0000000  -0.0000000  -0.0000000  -0.0000000  -0.0000000
 NQMom=    0.0000000   0.0000000   0.0000000   0.0000000   0.0000000   0.0000000  -8.1650000  -8.1650000  -8.1650000  -8.1650000
 NMagM=    0.0000000   0.0000000   0.0000000   0.0000000   0.0000000   0.0000000   0.8218740   0.8218740   0.8218740   0.8218740
 AtZNuc=   6.0000000   6.0000000   6.0000000   6.0000000   6.0000000   6.0000000  17.0000000  17.0000000  17.0000000  17.0000000

  Atom        71          72          73
 IAtWgt=          35          35          35
 AtmWgt=  34.9688527  34.9688527  34.9688527
 NucSpn=           3           3           3
 AtZEff=  -0.0000000  -0.0000000  -0.0000000
 NQMom=   -8.1650000  -8.1650000  -8.1650000
 NMagM=    0.8218740   0.8218740   0.8218740
 AtZNuc=  17.0000000  17.0000000  17.0000000
 Leave Link  101 at Fri Jul 15 03:55:51 2022, MaxMem=  1342177280 cpu:              13.6 elap:               0.3
 (Enter /home/mkliu/g16/l103.exe)

 GradGradGradGradGradGradGradGradGradGradGradGradGradGradGradGradGradGrad
 Berny optimization.
 Initialization pass.
                           ----------------------------
                           !    Initial Parameters    !
                           ! (Angstroms and Degrees)  !
 --------------------------                            --------------------------
 ! Name  Definition              Value          Derivative Info.                !
 --------------------------------------------------------------------------------
 ! R1    R(1,2)                  1.5534         estimate D2E/DX2                !
 ! R2    R(1,4)                  1.484          estimate D2E/DX2                !
 ! R3    R(1,7)                  1.5074         estimate D2E/DX2                !
 ! R4    R(1,67)                 1.7882         estimate D2E/DX2                !
 ! R5    R(2,3)                  1.5591         estimate D2E/DX2                !
 ! R6    R(2,10)                 1.4778         estimate D2E/DX2                !
 ! R7    R(2,68)                 1.8087         estimate D2E/DX2                !
 ! R8    R(3,5)                  1.4854         estimate D2E/DX2                !
 ! R9    R(3,12)                 1.511          estimate D2E/DX2                !
 ! R10   R(3,69)                 1.7691         estimate D2E/DX2                !
 ! R11   R(4,5)                  1.3713         estimate D2E/DX2                !
 ! R12   R(4,6)                  1.388          estimate D2E/DX2                !
 ! R13   R(5,15)                 1.3753         estimate D2E/DX2                !
 ! R14   R(6,8)                  1.4357         estimate D2E/DX2                !
 ! R15   R(6,17)                 1.4003         estimate D2E/DX2                !
 ! R16   R(7,8)                  1.4088         estimate D2E/DX2                !
 ! R17   R(7,9)                  1.3921         estimate D2E/DX2                !
 ! R18   R(8,20)                 1.413          estimate D2E/DX2                !
 ! R19   R(9,11)                 1.4624         estimate D2E/DX2                !
 ! R20   R(9,22)                 1.4008         estimate D2E/DX2                !
 ! R21   R(10,11)                1.378          estimate D2E/DX2                !
 ! R22   R(10,13)                1.4295         estimate D2E/DX2                !
 ! R23   R(11,25)                1.4308         estimate D2E/DX2                !
 ! R24   R(12,13)                1.3971         estimate D2E/DX2                !
 ! R25   R(12,14)                1.3845         estimate D2E/DX2                !
 ! R26   R(13,27)                1.3826         estimate D2E/DX2                !
 ! R27   R(14,16)                1.5275         estimate D2E/DX2                !
 ! R28   R(14,29)                1.4138         estimate D2E/DX2                !
 ! R29   R(15,16)                1.5128         estimate D2E/DX2                !
 ! R30   R(15,18)                1.4013         estimate D2E/DX2                !
 ! R31   R(16,32)                1.4962         estimate D2E/DX2                !
 ! R32   R(16,70)                1.7884         estimate D2E/DX2                !
 ! R33   R(17,18)                1.4188         estimate D2E/DX2                !
 ! R34   R(17,19)                1.4461         estimate D2E/DX2                !
 ! R35   R(18,33)                1.4174         estimate D2E/DX2                !
 ! R36   R(19,21)                1.4527         estimate D2E/DX2                !
 ! R37   R(19,35)                1.4004         estimate D2E/DX2                !
 ! R38   R(20,21)                1.4512         estimate D2E/DX2                !
 ! R39   R(20,23)                1.3994         estimate D2E/DX2                !
 ! R40   R(21,38)                1.4025         estimate D2E/DX2                !
 ! R41   R(22,23)                1.4316         estimate D2E/DX2                !
 ! R42   R(22,24)                1.4163         estimate D2E/DX2                !
 ! R43   R(23,40)                1.4251         estimate D2E/DX2                !
 ! R44   R(24,26)                1.4008         estimate D2E/DX2                !
 ! R45   R(24,41)                1.4306         estimate D2E/DX2                !
 ! R46   R(25,26)                1.3936         estimate D2E/DX2                !
 ! R47   R(25,28)                1.5116         estimate D2E/DX2                !
 ! R48   R(26,44)                1.4473         estimate D2E/DX2                !
 ! R49   R(27,28)                1.4978         estimate D2E/DX2                !
 ! R50   R(27,30)                1.3947         estimate D2E/DX2                !
 ! R51   R(28,45)                1.4959         estimate D2E/DX2                !
 ! R52   R(28,73)                1.82           estimate D2E/DX2                !
 ! R53   R(29,30)                1.4059         estimate D2E/DX2                !
 ! R54   R(29,31)                1.5205         estimate D2E/DX2                !
 ! R55   R(30,47)                1.5183         estimate D2E/DX2                !
 ! R56   R(31,34)                1.5045         estimate D2E/DX2                !
 ! R57   R(31,49)                1.5041         estimate D2E/DX2                !
 ! R58   R(31,71)                1.8087         estimate D2E/DX2                !
 ! R59   R(32,33)                1.4267         estimate D2E/DX2                !
 ! R60   R(32,34)                1.3544         estimate D2E/DX2                !
 ! R61   R(33,36)                1.3703         estimate D2E/DX2                !
 ! R62   R(34,51)                1.4278         estimate D2E/DX2                !
 ! R63   R(35,36)                1.4424         estimate D2E/DX2                !
 ! R64   R(35,37)                1.4309         estimate D2E/DX2                !
 ! R65   R(36,52)                1.4229         estimate D2E/DX2                !
 ! R66   R(37,39)                1.3751         estimate D2E/DX2                !
 ! R67   R(37,53)                1.4409         estimate D2E/DX2                !
 ! R68   R(38,39)                1.4359         estimate D2E/DX2                !
 ! R69   R(38,42)                1.4423         estimate D2E/DX2                !
 ! R70   R(39,57)                1.4374         estimate D2E/DX2                !
 ! R71   R(40,41)                1.4411         estimate D2E/DX2                !
 ! R72   R(40,42)                1.3772         estimate D2E/DX2                !
 ! R73   R(41,43)                1.379          estimate D2E/DX2                !
 ! R74   R(42,58)                1.4369         estimate D2E/DX2                !
 ! R75   R(43,46)                1.4405         estimate D2E/DX2                !
 ! R76   R(43,59)                1.4354         estimate D2E/DX2                !
 ! R77   R(44,45)                1.4213         estimate D2E/DX2                !
 ! R78   R(44,46)                1.3747         estimate D2E/DX2                !
 ! R79   R(45,48)                1.3578         estimate D2E/DX2                !
 ! R80   R(46,61)                1.4251         estimate D2E/DX2                !
 ! R81   R(47,48)                1.507          estimate D2E/DX2                !
 ! R82   R(47,50)                1.5006         estimate D2E/DX2                !
 ! R83   R(47,72)                1.8056         estimate D2E/DX2                !
 ! R84   R(48,62)                1.4264         estimate D2E/DX2                !
 ! R85   R(49,50)                1.3555         estimate D2E/DX2                !
 ! R86   R(49,54)                1.4322         estimate D2E/DX2                !
 ! R87   R(50,63)                1.4324         estimate D2E/DX2                !
 ! R88   R(51,52)                1.3872         estimate D2E/DX2                !
 ! R89   R(51,54)                1.4221         estimate D2E/DX2                !
 ! R90   R(52,53)                1.432          estimate D2E/DX2                !
 ! R91   R(53,55)                1.3799         estimate D2E/DX2                !
 ! R92   R(54,56)                1.3836         estimate D2E/DX2                !
 ! R93   R(55,56)                1.4388         estimate D2E/DX2                !
 ! R94   R(55,60)                1.436          estimate D2E/DX2                !
 ! R95   R(56,64)                1.4204         estimate D2E/DX2                !
 ! R96   R(57,58)                1.4348         estimate D2E/DX2                !
 ! R97   R(57,60)                1.3833         estimate D2E/DX2                !
 ! R98   R(58,59)                1.3853         estimate D2E/DX2                !
 ! R99   R(59,65)                1.442          estimate D2E/DX2                !
 ! R100  R(60,66)                1.4377         estimate D2E/DX2                !
 ! R101  R(61,62)                1.3871         estimate D2E/DX2                !
 ! R102  R(61,65)                1.4365         estimate D2E/DX2                !
 ! R103  R(62,63)                1.429          estimate D2E/DX2                !
 ! R104  R(63,64)                1.3808         estimate D2E/DX2                !
 ! R105  R(64,66)                1.4385         estimate D2E/DX2                !
 ! R106  R(65,66)                1.3808         estimate D2E/DX2                !
 ! A1    A(2,1,4)               99.9011         estimate D2E/DX2                !
 ! A2    A(2,1,7)              118.8126         estimate D2E/DX2                !
 ! A3    A(2,1,67)             112.4996         estimate D2E/DX2                !
 ! A4    A(4,1,7)               99.1469         estimate D2E/DX2                !
 ! A5    A(4,1,67)             117.6624         estimate D2E/DX2                !
 ! A6    A(7,1,67)             108.3708         estimate D2E/DX2                !
 ! A7    A(1,2,3)              109.2941         estimate D2E/DX2                !
 ! A8    A(1,2,10)             107.6772         estimate D2E/DX2                !
 ! A9    A(1,2,68)             112.6334         estimate D2E/DX2                !
 ! A10   A(3,2,10)             103.1742         estimate D2E/DX2                !
 ! A11   A(3,2,68)             115.1146         estimate D2E/DX2                !
 ! A12   A(10,2,68)            108.2766         estimate D2E/DX2                !
 ! A13   A(2,3,5)              103.4289         estimate D2E/DX2                !
 ! A14   A(2,3,12)             104.7911         estimate D2E/DX2                !
 ! A15   A(2,3,69)             118.0            estimate D2E/DX2                !
 ! A16   A(5,3,12)             101.9064         estimate D2E/DX2                !
 ! A17   A(5,3,69)             113.9993         estimate D2E/DX2                !
 ! A18   A(12,3,69)            112.9645         estimate D2E/DX2                !
 ! A19   A(1,4,5)              116.3573         estimate D2E/DX2                !
 ! A20   A(1,4,6)              112.141          estimate D2E/DX2                !
 ! A21   A(5,4,6)              122.7692         estimate D2E/DX2                !
 ! A22   A(3,5,4)              109.8747         estimate D2E/DX2                !
 ! A23   A(3,5,15)             123.1707         estimate D2E/DX2                !
 ! A24   A(4,5,15)             117.9936         estimate D2E/DX2                !
 ! A25   A(4,6,8)              107.4182         estimate D2E/DX2                !
 ! A26   A(4,6,17)             120.8326         estimate D2E/DX2                !
 ! A27   A(8,6,17)             121.6278         estimate D2E/DX2                !
 ! A28   A(1,7,8)              109.9045         estimate D2E/DX2                !
 ! A29   A(1,7,9)              121.9663         estimate D2E/DX2                !
 ! A30   A(8,7,9)              117.7997         estimate D2E/DX2                !
 ! A31   A(6,8,7)              107.5342         estimate D2E/DX2                !
 ! A32   A(6,8,20)             119.365          estimate D2E/DX2                !
 ! A33   A(7,8,20)             124.852          estimate D2E/DX2                !
 ! A34   A(7,9,11)             117.3472         estimate D2E/DX2                !
 ! A35   A(7,9,22)             115.1226         estimate D2E/DX2                !
 ! A36   A(11,9,22)            118.455          estimate D2E/DX2                !
 ! A37   A(2,10,11)            127.6802         estimate D2E/DX2                !
 ! A38   A(2,10,13)            111.7631         estimate D2E/DX2                !
 ! A39   A(11,10,13)           116.453          estimate D2E/DX2                !
 ! A40   A(9,11,10)            117.2397         estimate D2E/DX2                !
 ! A41   A(9,11,25)            117.9493         estimate D2E/DX2                !
 ! A42   A(10,11,25)           115.8479         estimate D2E/DX2                !
 ! A43   A(3,12,13)            110.0566         estimate D2E/DX2                !
 ! A44   A(3,12,14)            126.0836         estimate D2E/DX2                !
 ! A45   A(13,12,14)           119.2844         estimate D2E/DX2                !
 ! A46   A(10,13,12)           107.6545         estimate D2E/DX2                !
 ! A47   A(10,13,27)           126.2429         estimate D2E/DX2                !
 ! A48   A(12,13,27)           121.0685         estimate D2E/DX2                !
 ! A49   A(12,14,16)           117.9448         estimate D2E/DX2                !
 ! A50   A(12,14,29)           118.582          estimate D2E/DX2                !
 ! A51   A(16,14,29)           121.8997         estimate D2E/DX2                !
 ! A52   A(5,15,16)            122.1592         estimate D2E/DX2                !
 ! A53   A(5,15,18)            119.6073         estimate D2E/DX2                !
 ! A54   A(16,15,18)           110.7346         estimate D2E/DX2                !
 ! A55   A(14,16,15)           104.4294         estimate D2E/DX2                !
 ! A56   A(14,16,32)           109.3248         estimate D2E/DX2                !
 ! A57   A(14,16,70)           110.2028         estimate D2E/DX2                !
 ! A58   A(15,16,32)           100.8799         estimate D2E/DX2                !
 ! A59   A(15,16,70)           116.8098         estimate D2E/DX2                !
 ! A60   A(32,16,70)           114.3718         estimate D2E/DX2                !
 ! A61   A(6,17,18)            114.9315         estimate D2E/DX2                !
 ! A62   A(6,17,19)            119.2574         estimate D2E/DX2                !
 ! A63   A(18,17,19)           120.3802         estimate D2E/DX2                !
 ! A64   A(15,18,17)           122.7077         estimate D2E/DX2                !
 ! A65   A(15,18,33)           108.8156         estimate D2E/DX2                !
 ! A66   A(17,18,33)           120.7796         estimate D2E/DX2                !
 ! A67   A(17,19,21)           118.939          estimate D2E/DX2                !
 ! A68   A(17,19,35)           116.7516         estimate D2E/DX2                !
 ! A69   A(21,19,35)           118.99           estimate D2E/DX2                !
 ! A70   A(8,20,21)            119.8457         estimate D2E/DX2                !
 ! A71   A(8,20,23)            113.8252         estimate D2E/DX2                !
 ! A72   A(21,20,23)           120.1404         estimate D2E/DX2                !
 ! A73   A(19,21,20)           119.5383         estimate D2E/DX2                !
 ! A74   A(19,21,38)           118.0854         estimate D2E/DX2                !
 ! A75   A(20,21,38)           116.8632         estimate D2E/DX2                !
 ! A76   A(9,22,23)            123.0722         estimate D2E/DX2                !
 ! A77   A(9,22,24)            122.0576         estimate D2E/DX2                !
 ! A78   A(23,22,24)           107.2305         estimate D2E/DX2                !
 ! A79   A(20,23,22)           119.3553         estimate D2E/DX2                !
 ! A80   A(20,23,40)           121.1197         estimate D2E/DX2                !
 ! A81   A(22,23,40)           108.713          estimate D2E/DX2                !
 ! A82   A(22,24,26)           117.5826         estimate D2E/DX2                !
 ! A83   A(22,24,41)           109.1768         estimate D2E/DX2                !
 ! A84   A(26,24,41)           120.1668         estimate D2E/DX2                !
 ! A85   A(11,25,26)           120.2457         estimate D2E/DX2                !
 ! A86   A(11,25,28)           125.3663         estimate D2E/DX2                !
 ! A87   A(26,25,28)           109.3493         estimate D2E/DX2                !
 ! A88   A(24,26,25)           122.1923         estimate D2E/DX2                !
 ! A89   A(24,26,44)           118.8221         estimate D2E/DX2                !
 ! A90   A(25,26,44)           109.9862         estimate D2E/DX2                !
 ! A91   A(13,27,28)           115.1108         estimate D2E/DX2                !
 ! A92   A(13,27,30)           119.5104         estimate D2E/DX2                !
 ! A93   A(28,27,30)           124.1952         estimate D2E/DX2                !
 ! A94   A(25,28,27)           107.2914         estimate D2E/DX2                !
 ! A95   A(25,28,45)           102.3806         estimate D2E/DX2                !
 ! A96   A(25,28,73)           114.6953         estimate D2E/DX2                !
 ! A97   A(27,28,45)           110.7448         estimate D2E/DX2                !
 ! A98   A(27,28,73)           110.1454         estimate D2E/DX2                !
 ! A99   A(45,28,73)           111.2986         estimate D2E/DX2                !
 ! A100  A(14,29,30)           120.4197         estimate D2E/DX2                !
 ! A101  A(14,29,31)           118.4166         estimate D2E/DX2                !
 ! A102  A(30,29,31)           120.3035         estimate D2E/DX2                !
 ! A103  A(27,30,29)           119.2863         estimate D2E/DX2                !
 ! A104  A(27,30,47)           118.4132         estimate D2E/DX2                !
 ! A105  A(29,30,47)           121.8787         estimate D2E/DX2                !
 ! A106  A(29,31,34)           109.6048         estimate D2E/DX2                !
 ! A107  A(29,31,49)           110.7953         estimate D2E/DX2                !
 ! A108  A(29,31,71)           108.0494         estimate D2E/DX2                !
 ! A109  A(34,31,49)           100.9185         estimate D2E/DX2                !
 ! A110  A(34,31,71)           113.9816         estimate D2E/DX2                !
 ! A111  A(49,31,71)           113.3694         estimate D2E/DX2                !
 ! A112  A(16,32,33)           110.6566         estimate D2E/DX2                !
 ! A113  A(16,32,34)           122.004          estimate D2E/DX2                !
 ! A114  A(33,32,34)           118.2454         estimate D2E/DX2                !
 ! A115  A(18,33,32)           107.7883         estimate D2E/DX2                !
 ! A116  A(18,33,36)           118.6158         estimate D2E/DX2                !
 ! A117  A(32,33,36)           123.2206         estimate D2E/DX2                !
 ! A118  A(31,34,32)           122.3513         estimate D2E/DX2                !
 ! A119  A(31,34,51)           111.3615         estimate D2E/DX2                !
 ! A120  A(32,34,51)           119.1416         estimate D2E/DX2                !
 ! A121  A(19,35,36)           120.8674         estimate D2E/DX2                !
 ! A122  A(19,35,37)           121.6718         estimate D2E/DX2                !
 ! A123  A(36,35,37)           107.1065         estimate D2E/DX2                !
 ! A124  A(33,36,35)           121.3638         estimate D2E/DX2                !
 ! A125  A(33,36,52)           117.8972         estimate D2E/DX2                !
 ! A126  A(35,36,52)           109.2319         estimate D2E/DX2                !
 ! A127  A(35,37,39)           119.627          estimate D2E/DX2                !
 ! A128  A(35,37,53)           107.4511         estimate D2E/DX2                !
 ! A129  A(39,37,53)           120.9701         estimate D2E/DX2                !
 ! A130  A(21,38,39)           121.897          estimate D2E/DX2                !
 ! A131  A(21,38,42)           121.8003         estimate D2E/DX2                !
 ! A132  A(39,38,42)           106.7035         estimate D2E/DX2                !
 ! A133  A(37,39,38)           119.5991         estimate D2E/DX2                !
 ! A134  A(37,39,57)           119.8106         estimate D2E/DX2                !
 ! A135  A(38,39,57)           108.9212         estimate D2E/DX2                !
 ! A136  A(23,40,41)           107.5816         estimate D2E/DX2                !
 ! A137  A(23,40,42)           119.4417         estimate D2E/DX2                !
 ! A138  A(41,40,42)           121.0991         estimate D2E/DX2                !
 ! A139  A(24,41,40)           107.1179         estimate D2E/DX2                !
 ! A140  A(24,41,43)           120.8794         estimate D2E/DX2                !
 ! A141  A(40,41,43)           118.658          estimate D2E/DX2                !
 ! A142  A(38,42,40)           119.8603         estimate D2E/DX2                !
 ! A143  A(38,42,58)           108.634          estimate D2E/DX2                !
 ! A144  A(40,42,58)           119.9023         estimate D2E/DX2                !
 ! A145  A(41,43,46)           118.9256         estimate D2E/DX2                !
 ! A146  A(41,43,59)           120.4552         estimate D2E/DX2                !
 ! A147  A(46,43,59)           108.5561         estimate D2E/DX2                !
 ! A148  A(26,44,45)           107.1188         estimate D2E/DX2                !
 ! A149  A(26,44,46)           120.0            estimate D2E/DX2                !
 ! A150  A(45,44,46)           121.331          estimate D2E/DX2                !
 ! A151  A(28,45,44)           110.1143         estimate D2E/DX2                !
 ! A152  A(28,45,48)           121.6987         estimate D2E/DX2                !
 ! A153  A(44,45,48)           120.5641         estimate D2E/DX2                !
 ! A154  A(43,46,44)           121.1304         estimate D2E/DX2                !
 ! A155  A(43,46,61)           108.202          estimate D2E/DX2                !
 ! A156  A(44,46,61)           118.6925         estimate D2E/DX2                !
 ! A157  A(30,47,48)           110.4358         estimate D2E/DX2                !
 ! A158  A(30,47,50)           110.0052         estimate D2E/DX2                !
 ! A159  A(30,47,72)           107.2548         estimate D2E/DX2                !
 ! A160  A(48,47,50)           101.6597         estimate D2E/DX2                !
 ! A161  A(48,47,72)           113.6086         estimate D2E/DX2                !
 ! A162  A(50,47,72)           113.8421         estimate D2E/DX2                !
 ! A163  A(45,48,47)           123.1492         estimate D2E/DX2                !
 ! A164  A(45,48,62)           118.6861         estimate D2E/DX2                !
 ! A165  A(47,48,62)           110.792          estimate D2E/DX2                !
 ! A166  A(31,49,50)           123.125          estimate D2E/DX2                !
 ! A167  A(31,49,54)           110.7396         estimate D2E/DX2                !
 ! A168  A(50,49,54)           118.7675         estimate D2E/DX2                !
 ! A169  A(47,50,49)           122.2186         estimate D2E/DX2                !
 ! A170  A(47,50,63)           110.281          estimate D2E/DX2                !
 ! A171  A(49,50,63)           119.9039         estimate D2E/DX2                !
 ! A172  A(34,51,52)           121.7314         estimate D2E/DX2                !
 ! A173  A(34,51,54)           108.0229         estimate D2E/DX2                !
 ! A174  A(52,51,54)           119.372          estimate D2E/DX2                !
 ! A175  A(36,52,51)           118.6275         estimate D2E/DX2                !
 ! A176  A(36,52,53)           106.7334         estimate D2E/DX2                !
 ! A177  A(51,52,53)           121.342          estimate D2E/DX2                !
 ! A178  A(37,53,52)           108.9781         estimate D2E/DX2                !
 ! A179  A(37,53,55)           119.0712         estimate D2E/DX2                !
 ! A180  A(52,53,55)           119.3135         estimate D2E/DX2                !
 ! A181  A(49,54,51)           108.5303         estimate D2E/DX2                !
 ! A182  A(49,54,56)           121.7667         estimate D2E/DX2                !
 ! A183  A(51,54,56)           119.2991         estimate D2E/DX2                !
 ! A184  A(53,55,56)           119.0428         estimate D2E/DX2                !
 ! A185  A(53,55,60)           119.9148         estimate D2E/DX2                !
 ! A186  A(56,55,60)           109.001          estimate D2E/DX2                !
 ! A187  A(54,56,55)           121.395          estimate D2E/DX2                !
 ! A188  A(54,56,64)           119.2526         estimate D2E/DX2                !
 ! A189  A(55,56,64)           107.5647         estimate D2E/DX2                !
 ! A190  A(39,57,58)           107.6141         estimate D2E/DX2                !
 ! A191  A(39,57,60)           119.1987         estimate D2E/DX2                !
 ! A192  A(58,57,60)           119.9962         estimate D2E/DX2                !
 ! A193  A(42,58,57)           107.8077         estimate D2E/DX2                !
 ! A194  A(42,58,59)           119.0766         estimate D2E/DX2                !
 ! A195  A(57,58,59)           120.1242         estimate D2E/DX2                !
 ! A196  A(43,59,58)           120.5623         estimate D2E/DX2                !
 ! A197  A(43,59,65)           106.7102         estimate D2E/DX2                !
 ! A198  A(58,59,65)           119.7484         estimate D2E/DX2                !
 ! A199  A(55,60,57)           120.7506         estimate D2E/DX2                !
 ! A200  A(55,60,66)           106.6263         estimate D2E/DX2                !
 ! A201  A(57,60,66)           119.9746         estimate D2E/DX2                !
 ! A202  A(46,61,62)           119.4005         estimate D2E/DX2                !
 ! A203  A(46,61,65)           107.5616         estimate D2E/DX2                !
 ! A204  A(62,61,65)           121.0069         estimate D2E/DX2                !
 ! A205  A(48,62,61)           121.2538         estimate D2E/DX2                !
 ! A206  A(48,62,63)           108.0449         estimate D2E/DX2                !
 ! A207  A(61,62,63)           119.8378         estimate D2E/DX2                !
 ! A208  A(50,63,62)           108.7648         estimate D2E/DX2                !
 ! A209  A(50,63,64)           121.599          estimate D2E/DX2                !
 ! A210  A(62,63,64)           119.0323         estimate D2E/DX2                !
 ! A211  A(56,64,63)           118.6732         estimate D2E/DX2                !
 ! A212  A(56,64,66)           108.2156         estimate D2E/DX2                !
 ! A213  A(63,64,66)           121.3677         estimate D2E/DX2                !
 ! A214  A(59,65,61)           108.9345         estimate D2E/DX2                !
 ! A215  A(59,65,66)           119.9636         estimate D2E/DX2                !
 ! A216  A(61,65,66)           119.133          estimate D2E/DX2                !
 ! A217  A(60,66,64)           108.5501         estimate D2E/DX2                !
 ! A218  A(60,66,65)           120.0821         estimate D2E/DX2                !
 ! A219  A(64,66,65)           119.5347         estimate D2E/DX2                !
 ! D1    D(4,1,2,3)             10.4796         estimate D2E/DX2                !
 ! D2    D(4,1,2,10)          -100.9288         estimate D2E/DX2                !
 ! D3    D(4,1,2,68)           139.7642         estimate D2E/DX2                !
 ! D4    D(7,1,2,3)            116.7505         estimate D2E/DX2                !
 ! D5    D(7,1,2,10)             5.3421         estimate D2E/DX2                !
 ! D6    D(7,1,2,68)          -113.965          estimate D2E/DX2                !
 ! D7    D(67,1,2,3)          -115.1404         estimate D2E/DX2                !
 ! D8    D(67,1,2,10)          133.4512         estimate D2E/DX2                !
 ! D9    D(67,1,2,68)           14.1441         estimate D2E/DX2                !
 ! D10   D(2,1,4,5)             -9.6094         estimate D2E/DX2                !
 ! D11   D(2,1,4,6)            139.0122         estimate D2E/DX2                !
 ! D12   D(7,1,4,5)           -131.1861         estimate D2E/DX2                !
 ! D13   D(7,1,4,6)             17.4355         estimate D2E/DX2                !
 ! D14   D(67,1,4,5)           112.4021         estimate D2E/DX2                !
 ! D15   D(67,1,4,6)           -98.9764         estimate D2E/DX2                !
 ! D16   D(2,1,7,8)           -126.0553         estimate D2E/DX2                !
 ! D17   D(2,1,7,9)             18.1025         estimate D2E/DX2                !
 ! D18   D(4,1,7,8)            -19.3569         estimate D2E/DX2                !
 ! D19   D(4,1,7,9)            124.8009         estimate D2E/DX2                !
 ! D20   D(67,1,7,8)           103.9391         estimate D2E/DX2                !
 ! D21   D(67,1,7,9)          -111.9031         estimate D2E/DX2                !
 ! D22   D(1,2,3,5)             -8.405          estimate D2E/DX2                !
 ! D23   D(1,2,3,12)          -114.8102         estimate D2E/DX2                !
 ! D24   D(1,2,3,69)           118.5042         estimate D2E/DX2                !
 ! D25   D(10,2,3,5)           105.9484         estimate D2E/DX2                !
 ! D26   D(10,2,3,12)           -0.4568         estimate D2E/DX2                !
 ! D27   D(10,2,3,69)         -127.1425         estimate D2E/DX2                !
 ! D28   D(68,2,3,5)          -136.3136         estimate D2E/DX2                !
 ! D29   D(68,2,3,12)          117.2812         estimate D2E/DX2                !
 ! D30   D(68,2,3,69)           -9.4044         estimate D2E/DX2                !
 ! D31   D(1,2,10,11)          -30.5567         estimate D2E/DX2                !
 ! D32   D(1,2,10,13)          125.5624         estimate D2E/DX2                !
 ! D33   D(3,2,10,11)         -146.0728         estimate D2E/DX2                !
 ! D34   D(3,2,10,13)           10.0462         estimate D2E/DX2                !
 ! D35   D(68,2,10,11)          91.4906         estimate D2E/DX2                !
 ! D36   D(68,2,10,13)        -112.3904         estimate D2E/DX2                !
 ! D37   D(2,3,5,4)              2.4843         estimate D2E/DX2                !
 ! D38   D(2,3,5,15)          -143.8781         estimate D2E/DX2                !
 ! D39   D(12,3,5,4)           111.0618         estimate D2E/DX2                !
 ! D40   D(12,3,5,15)          -35.3006         estimate D2E/DX2                !
 ! D41   D(69,3,5,4)          -126.9094         estimate D2E/DX2                !
 ! D42   D(69,3,5,15)           86.7282         estimate D2E/DX2                !
 ! D43   D(2,3,12,13)           -9.3683         estimate D2E/DX2                !
 ! D44   D(2,3,12,14)          146.1929         estimate D2E/DX2                !
 ! D45   D(5,3,12,13)         -116.8952         estimate D2E/DX2                !
 ! D46   D(5,3,12,14)           38.666          estimate D2E/DX2                !
 ! D47   D(69,3,12,13)         120.3671         estimate D2E/DX2                !
 ! D48   D(69,3,12,14)         -84.0717         estimate D2E/DX2                !
 ! D49   D(1,4,5,3)              4.8375         estimate D2E/DX2                !
 ! D50   D(1,4,5,15)           153.1619         estimate D2E/DX2                !
 ! D51   D(6,4,5,3)           -140.1629         estimate D2E/DX2                !
 ! D52   D(6,4,5,15)             8.1616         estimate D2E/DX2                !
 ! D53   D(1,4,6,8)             -9.6003         estimate D2E/DX2                !
 ! D54   D(1,4,6,17)          -155.4251         estimate D2E/DX2                !
 ! D55   D(5,4,6,8)            136.6986         estimate D2E/DX2                !
 ! D56   D(5,4,6,17)            -9.1262         estimate D2E/DX2                !
 ! D57   D(3,5,15,16)           -2.0582         estimate D2E/DX2                !
 ! D58   D(3,5,15,18)          144.9014         estimate D2E/DX2                !
 ! D59   D(4,5,15,16)         -145.9032         estimate D2E/DX2                !
 ! D60   D(4,5,15,18)            1.0564         estimate D2E/DX2                !
 ! D61   D(4,6,8,7)             -3.5926         estimate D2E/DX2                !
 ! D62   D(4,6,8,20)          -153.525          estimate D2E/DX2                !
 ! D63   D(17,6,8,7)           141.9028         estimate D2E/DX2                !
 ! D64   D(17,6,8,20)           -8.0296         estimate D2E/DX2                !
 ! D65   D(4,6,17,18)            0.6379         estimate D2E/DX2                !
 ! D66   D(4,6,17,19)          154.7518         estimate D2E/DX2                !
 ! D67   D(8,6,17,18)         -140.3519         estimate D2E/DX2                !
 ! D68   D(8,6,17,19)           13.762          estimate D2E/DX2                !
 ! D69   D(1,7,8,6)             15.159          estimate D2E/DX2                !
 ! D70   D(1,7,8,20)           163.0124         estimate D2E/DX2                !
 ! D71   D(9,7,8,6)           -130.6762         estimate D2E/DX2                !
 ! D72   D(9,7,8,20)            17.1773         estimate D2E/DX2                !
 ! D73   D(1,7,9,11)           -20.1345         estimate D2E/DX2                !
 ! D74   D(1,7,9,22)          -166.7482         estimate D2E/DX2                !
 ! D75   D(8,7,9,11)           121.3731         estimate D2E/DX2                !
 ! D76   D(8,7,9,22)           -25.2406         estimate D2E/DX2                !
 ! D77   D(6,8,20,21)           -2.8553         estimate D2E/DX2                !
 ! D78   D(6,8,20,23)          149.543          estimate D2E/DX2                !
 ! D79   D(7,8,20,21)         -147.2524         estimate D2E/DX2                !
 ! D80   D(7,8,20,23)            5.1459         estimate D2E/DX2                !
 ! D81   D(7,9,11,10)           -2.2968         estimate D2E/DX2                !
 ! D82   D(7,9,11,25)         -148.2166         estimate D2E/DX2                !
 ! D83   D(22,9,11,10)         143.1838         estimate D2E/DX2                !
 ! D84   D(22,9,11,25)          -2.736          estimate D2E/DX2                !
 ! D85   D(7,9,22,23)           13.2919         estimate D2E/DX2                !
 ! D86   D(7,9,22,24)          158.8715         estimate D2E/DX2                !
 ! D87   D(11,9,22,23)        -132.9324         estimate D2E/DX2                !
 ! D88   D(11,9,22,24)          12.6472         estimate D2E/DX2                !
 ! D89   D(2,10,11,9)           30.7351         estimate D2E/DX2                !
 ! D90   D(2,10,11,25)         177.3666         estimate D2E/DX2                !
 ! D91   D(13,10,11,9)        -124.4334         estimate D2E/DX2                !
 ! D92   D(13,10,11,25)         22.1981         estimate D2E/DX2                !
 ! D93   D(2,10,13,12)         -16.4483         estimate D2E/DX2                !
 ! D94   D(2,10,13,27)        -171.2437         estimate D2E/DX2                !
 ! D95   D(11,10,13,12)        142.5822         estimate D2E/DX2                !
 ! D96   D(11,10,13,27)        -12.2132         estimate D2E/DX2                !
 ! D97   D(9,11,25,26)          -6.2354         estimate D2E/DX2                !
 ! D98   D(9,11,25,28)         145.916          estimate D2E/DX2                !
 ! D99   D(10,11,25,26)       -152.6215         estimate D2E/DX2                !
 ! D100  D(10,11,25,28)         -0.47           estimate D2E/DX2                !
 ! D101  D(3,12,13,10)          15.7394         estimate D2E/DX2                !
 ! D102  D(3,12,13,27)         172.1001         estimate D2E/DX2                !
 ! D103  D(14,12,13,10)       -141.7197         estimate D2E/DX2                !
 ! D104  D(14,12,13,27)         14.641          estimate D2E/DX2                !
 ! D105  D(3,12,14,16)          -3.2274         estimate D2E/DX2                !
 ! D106  D(3,12,14,29)        -169.2063         estimate D2E/DX2                !
 ! D107  D(13,12,14,16)        150.3125         estimate D2E/DX2                !
 ! D108  D(13,12,14,29)        -15.6664         estimate D2E/DX2                !
 ! D109  D(10,13,27,28)        -20.9948         estimate D2E/DX2                !
 ! D110  D(10,13,27,30)        147.0945         estimate D2E/DX2                !
 ! D111  D(12,13,27,28)       -172.7165         estimate D2E/DX2                !
 ! D112  D(12,13,27,30)         -4.6272         estimate D2E/DX2                !
 ! D113  D(12,14,16,15)        -35.2154         estimate D2E/DX2                !
 ! D114  D(12,14,16,32)       -142.4789         estimate D2E/DX2                !
 ! D115  D(12,14,16,70)         91.008          estimate D2E/DX2                !
 ! D116  D(29,14,16,15)        130.2716         estimate D2E/DX2                !
 ! D117  D(29,14,16,32)         23.0082         estimate D2E/DX2                !
 ! D118  D(29,14,16,70)       -103.505          estimate D2E/DX2                !
 ! D119  D(12,14,29,30)          7.2972         estimate D2E/DX2                !
 ! D120  D(12,14,29,31)        176.713          estimate D2E/DX2                !
 ! D121  D(16,14,29,30)       -158.1009         estimate D2E/DX2                !
 ! D122  D(16,14,29,31)         11.315          estimate D2E/DX2                !
 ! D123  D(5,15,16,14)          38.9134         estimate D2E/DX2                !
 ! D124  D(5,15,16,32)         152.3298         estimate D2E/DX2                !
 ! D125  D(5,15,16,70)         -83.0629         estimate D2E/DX2                !
 ! D126  D(18,15,16,14)       -110.631          estimate D2E/DX2                !
 ! D127  D(18,15,16,32)          2.7854         estimate D2E/DX2                !
 ! D128  D(18,15,16,70)        127.3927         estimate D2E/DX2                !
 ! D129  D(5,15,18,17)          -9.6108         estimate D2E/DX2                !
 ! D130  D(5,15,18,33)        -159.0755         estimate D2E/DX2                !
 ! D131  D(16,15,18,17)        140.8154         estimate D2E/DX2                !
 ! D132  D(16,15,18,33)         -8.6493         estimate D2E/DX2                !
 ! D133  D(14,16,32,33)        113.7            estimate D2E/DX2                !
 ! D134  D(14,16,32,34)        -32.6075         estimate D2E/DX2                !
 ! D135  D(15,16,32,33)          4.0484         estimate D2E/DX2                !
 ! D136  D(15,16,32,34)       -142.2591         estimate D2E/DX2                !
 ! D137  D(70,16,32,33)       -122.2004         estimate D2E/DX2                !
 ! D138  D(70,16,32,34)         91.4921         estimate D2E/DX2                !
 ! D139  D(6,17,18,15)           8.512          estimate D2E/DX2                !
 ! D140  D(6,17,18,33)         154.4724         estimate D2E/DX2                !
 ! D141  D(19,17,18,15)       -145.2874         estimate D2E/DX2                !
 ! D142  D(19,17,18,33)          0.6729         estimate D2E/DX2                !
 ! D143  D(6,17,19,21)          -8.5715         estimate D2E/DX2                !
 ! D144  D(6,17,19,35)        -162.5856         estimate D2E/DX2                !
 ! D145  D(18,17,19,21)        144.1115         estimate D2E/DX2                !
 ! D146  D(18,17,19,35)         -9.9026         estimate D2E/DX2                !
 ! D147  D(15,18,33,32)         11.0356         estimate D2E/DX2                !
 ! D148  D(15,18,33,36)        157.183          estimate D2E/DX2                !
 ! D149  D(17,18,33,32)       -139.123          estimate D2E/DX2                !
 ! D150  D(17,18,33,36)          7.0244         estimate D2E/DX2                !
 ! D151  D(17,19,21,20)         -1.9465         estimate D2E/DX2                !
 ! D152  D(17,19,21,38)       -154.954          estimate D2E/DX2                !
 ! D153  D(35,19,21,20)        151.4832         estimate D2E/DX2                !
 ! D154  D(35,19,21,38)         -1.5243         estimate D2E/DX2                !
 ! D155  D(17,19,35,36)         11.7009         estimate D2E/DX2                !
 ! D156  D(17,19,35,37)        152.1814         estimate D2E/DX2                !
 ! D157  D(21,19,35,36)       -142.2995         estimate D2E/DX2                !
 ! D158  D(21,19,35,37)         -1.819          estimate D2E/DX2                !
 ! D159  D(8,20,21,19)           7.6427         estimate D2E/DX2                !
 ! D160  D(8,20,21,38)         160.9717         estimate D2E/DX2                !
 ! D161  D(23,20,21,19)       -143.01           estimate D2E/DX2                !
 ! D162  D(23,20,21,38)         10.319          estimate D2E/DX2                !
 ! D163  D(8,20,23,22)         -17.604          estimate D2E/DX2                !
 ! D164  D(8,20,23,40)        -157.9148         estimate D2E/DX2                !
 ! D165  D(21,20,23,22)        134.7053         estimate D2E/DX2                !
 ! D166  D(21,20,23,40)         -5.6056         estimate D2E/DX2                !
 ! D167  D(19,21,38,39)          3.4334         estimate D2E/DX2                !
 ! D168  D(19,21,38,42)        145.0824         estimate D2E/DX2                !
 ! D169  D(20,21,38,39)       -150.2935         estimate D2E/DX2                !
 ! D170  D(20,21,38,42)         -8.6446         estimate D2E/DX2                !
 ! D171  D(9,22,23,20)           9.0875         estimate D2E/DX2                !
 ! D172  D(9,22,23,40)         153.8314         estimate D2E/DX2                !
 ! D173  D(24,22,23,20)       -140.8081         estimate D2E/DX2                !
 ! D174  D(24,22,23,40)          3.9358         estimate D2E/DX2                !
 ! D175  D(9,22,24,26)         -13.1851         estimate D2E/DX2                !
 ! D176  D(9,22,24,41)        -154.6243         estimate D2E/DX2                !
 ! D177  D(23,22,24,26)        137.0833         estimate D2E/DX2                !
 ! D178  D(23,22,24,41)         -4.3559         estimate D2E/DX2                !
 ! D179  D(20,23,40,41)        141.9767         estimate D2E/DX2                !
 ! D180  D(20,23,40,42)         -1.2519         estimate D2E/DX2                !
 ! D181  D(22,23,40,41)         -2.0302         estimate D2E/DX2                !
 ! D182  D(22,23,40,42)       -145.2588         estimate D2E/DX2                !
 ! D183  D(22,24,26,25)          3.7048         estimate D2E/DX2                !
 ! D184  D(22,24,26,44)       -140.1384         estimate D2E/DX2                !
 ! D185  D(41,24,26,25)        140.7843         estimate D2E/DX2                !
 ! D186  D(41,24,26,44)         -3.0589         estimate D2E/DX2                !
 ! D187  D(22,24,41,40)          3.1189         estimate D2E/DX2                !
 ! D188  D(22,24,41,43)        143.3706         estimate D2E/DX2                !
 ! D189  D(26,24,41,40)       -137.1604         estimate D2E/DX2                !
 ! D190  D(26,24,41,43)          3.0914         estimate D2E/DX2                !
 ! D191  D(11,25,26,24)          5.8332         estimate D2E/DX2                !
 ! D192  D(11,25,26,44)        152.4638         estimate D2E/DX2                !
 ! D193  D(28,25,26,24)       -150.3546         estimate D2E/DX2                !
 ! D194  D(28,25,26,44)         -3.724          estimate D2E/DX2                !
 ! D195  D(11,25,28,27)        -29.5847         estimate D2E/DX2                !
 ! D196  D(11,25,28,45)       -146.2089         estimate D2E/DX2                !
 ! D197  D(11,25,28,73)         93.1105         estimate D2E/DX2                !
 ! D198  D(26,25,28,27)        125.0934         estimate D2E/DX2                !
 ! D199  D(26,25,28,45)          8.4691         estimate D2E/DX2                !
 ! D200  D(26,25,28,73)       -112.2115         estimate D2E/DX2                !
 ! D201  D(24,26,44,45)        144.8966         estimate D2E/DX2                !
 ! D202  D(24,26,44,46)          1.1819         estimate D2E/DX2                !
 ! D203  D(25,26,44,45)         -3.0106         estimate D2E/DX2                !
 ! D204  D(25,26,44,46)       -146.7254         estimate D2E/DX2                !
 ! D205  D(13,27,28,25)         37.5721         estimate D2E/DX2                !
 ! D206  D(13,27,28,45)        148.5513         estimate D2E/DX2                !
 ! D207  D(13,27,28,73)        -87.8984         estimate D2E/DX2                !
 ! D208  D(30,27,28,25)       -129.8861         estimate D2E/DX2                !
 ! D209  D(30,27,28,45)        -18.9069         estimate D2E/DX2                !
 ! D210  D(30,27,28,73)        104.6434         estimate D2E/DX2                !
 ! D211  D(13,27,30,29)         -3.892          estimate D2E/DX2                !
 ! D212  D(13,27,30,47)       -176.5803         estimate D2E/DX2                !
 ! D213  D(28,27,30,29)        163.0498         estimate D2E/DX2                !
 ! D214  D(28,27,30,47)         -9.6385         estimate D2E/DX2                !
 ! D215  D(25,28,45,44)        -10.4134         estimate D2E/DX2                !
 ! D216  D(25,28,45,48)        139.2027         estimate D2E/DX2                !
 ! D217  D(27,28,45,44)       -124.527          estimate D2E/DX2                !
 ! D218  D(27,28,45,48)         25.0891         estimate D2E/DX2                !
 ! D219  D(73,28,45,44)        112.5889         estimate D2E/DX2                !
 ! D220  D(73,28,45,48)        -97.7949         estimate D2E/DX2                !
 ! D221  D(14,29,30,27)          2.5348         estimate D2E/DX2                !
 ! D222  D(14,29,30,47)        174.96           estimate D2E/DX2                !
 ! D223  D(31,29,30,27)       -166.6808         estimate D2E/DX2                !
 ! D224  D(31,29,30,47)          5.7445         estimate D2E/DX2                !
 ! D225  D(14,29,31,34)        -36.5614         estimate D2E/DX2                !
 ! D226  D(14,29,31,49)       -147.0698         estimate D2E/DX2                !
 ! D227  D(14,29,31,71)         88.1788         estimate D2E/DX2                !
 ! D228  D(30,29,31,34)        132.8672         estimate D2E/DX2                !
 ! D229  D(30,29,31,49)         22.3587         estimate D2E/DX2                !
 ! D230  D(30,29,31,71)       -102.3927         estimate D2E/DX2                !
 ! D231  D(27,30,47,48)         31.3032         estimate D2E/DX2                !
 ! D232  D(27,30,47,50)        142.7218         estimate D2E/DX2                !
 ! D233  D(27,30,47,72)        -92.9782         estimate D2E/DX2                !
 ! D234  D(29,30,47,48)       -141.1857         estimate D2E/DX2                !
 ! D235  D(29,30,47,50)        -29.7672         estimate D2E/DX2                !
 ! D236  D(29,30,47,72)         94.5329         estimate D2E/DX2                !
 ! D237  D(29,31,34,32)         28.5383         estimate D2E/DX2                !
 ! D238  D(29,31,34,51)       -121.5406         estimate D2E/DX2                !
 ! D239  D(49,31,34,32)        145.4447         estimate D2E/DX2                !
 ! D240  D(49,31,34,51)         -4.6342         estimate D2E/DX2                !
 ! D241  D(71,31,34,32)        -92.6882         estimate D2E/DX2                !
 ! D242  D(71,31,34,51)        117.2329         estimate D2E/DX2                !
 ! D243  D(29,31,49,50)        -26.9507         estimate D2E/DX2                !
 ! D244  D(29,31,49,54)        122.5397         estimate D2E/DX2                !
 ! D245  D(34,31,49,50)       -142.9773         estimate D2E/DX2                !
 ! D246  D(34,31,49,54)          6.5131         estimate D2E/DX2                !
 ! D247  D(71,31,49,50)         94.7274         estimate D2E/DX2                !
 ! D248  D(71,31,49,54)       -115.7822         estimate D2E/DX2                !
 ! D249  D(16,32,33,18)         -9.3921         estimate D2E/DX2                !
 ! D250  D(16,32,33,36)       -153.621          estimate D2E/DX2                !
 ! D251  D(34,32,33,18)        138.3313         estimate D2E/DX2                !
 ! D252  D(34,32,33,36)         -5.8976         estimate D2E/DX2                !
 ! D253  D(16,32,34,31)          6.7438         estimate D2E/DX2                !
 ! D254  D(16,32,34,51)        154.6124         estimate D2E/DX2                !
 ! D255  D(33,32,34,31)       -137.1535         estimate D2E/DX2                !
 ! D256  D(33,32,34,51)         10.7151         estimate D2E/DX2                !
 ! D257  D(18,33,36,35)         -5.2968         estimate D2E/DX2                !
 ! D258  D(18,33,36,52)       -144.6886         estimate D2E/DX2                !
 ! D259  D(32,33,36,35)        135.3535         estimate D2E/DX2                !
 ! D260  D(32,33,36,52)         -4.0382         estimate D2E/DX2                !
 ! D261  D(31,34,51,52)        145.0718         estimate D2E/DX2                !
 ! D262  D(31,34,51,54)          1.2071         estimate D2E/DX2                !
 ! D263  D(32,34,51,52)         -6.0825         estimate D2E/DX2                !
 ! D264  D(32,34,51,54)       -149.9471         estimate D2E/DX2                !
 ! D265  D(19,35,36,33)         -4.3407         estimate D2E/DX2                !
 ! D266  D(19,35,36,52)        138.1245         estimate D2E/DX2                !
 ! D267  D(37,35,36,33)       -149.8245         estimate D2E/DX2                !
 ! D268  D(37,35,36,52)         -7.3593         estimate D2E/DX2                !
 ! D269  D(19,35,37,39)          3.3534         estimate D2E/DX2                !
 ! D270  D(19,35,37,53)       -139.7123         estimate D2E/DX2                !
 ! D271  D(36,35,37,39)        148.4991         estimate D2E/DX2                !
 ! D272  D(36,35,37,53)          5.4334         estimate D2E/DX2                !
 ! D273  D(33,36,52,51)          8.7164         estimate D2E/DX2                !
 ! D274  D(33,36,52,53)        150.243          estimate D2E/DX2                !
 ! D275  D(35,36,52,51)       -135.2241         estimate D2E/DX2                !
 ! D276  D(35,36,52,53)          6.3025         estimate D2E/DX2                !
 ! D277  D(35,37,39,38)         -1.4473         estimate D2E/DX2                !
 ! D278  D(35,37,39,57)       -140.497          estimate D2E/DX2                !
 ! D279  D(53,37,39,38)        136.5972         estimate D2E/DX2                !
 ! D280  D(53,37,39,57)         -2.4525         estimate D2E/DX2                !
 ! D281  D(35,37,53,52)         -1.6398         estimate D2E/DX2                !
 ! D282  D(35,37,53,55)        139.9464         estimate D2E/DX2                !
 ! D283  D(39,37,53,52)       -144.109          estimate D2E/DX2                !
 ! D284  D(39,37,53,55)         -2.5229         estimate D2E/DX2                !
 ! D285  D(21,38,39,37)         -1.9667         estimate D2E/DX2                !
 ! D286  D(21,38,39,57)        141.0803         estimate D2E/DX2                !
 ! D287  D(42,38,39,37)       -148.5606         estimate D2E/DX2                !
 ! D288  D(42,38,39,57)         -5.5136         estimate D2E/DX2                !
 ! D289  D(21,38,42,40)          2.1125         estimate D2E/DX2                !
 ! D290  D(21,38,42,58)       -141.039          estimate D2E/DX2                !
 ! D291  D(39,38,42,40)        148.7459         estimate D2E/DX2                !
 ! D292  D(39,38,42,58)          5.5945         estimate D2E/DX2                !
 ! D293  D(37,39,57,58)        146.3217         estimate D2E/DX2                !
 ! D294  D(37,39,57,60)          5.2149         estimate D2E/DX2                !
 ! D295  D(38,39,57,58)          3.3657         estimate D2E/DX2                !
 ! D296  D(38,39,57,60)       -137.7412         estimate D2E/DX2                !
 ! D297  D(23,40,41,24)         -0.6429         estimate D2E/DX2                !
 ! D298  D(23,40,41,43)       -141.9321         estimate D2E/DX2                !
 ! D299  D(42,40,41,24)        141.853          estimate D2E/DX2                !
 ! D300  D(42,40,41,43)          0.5638         estimate D2E/DX2                !
 ! D301  D(23,40,42,38)          3.0587         estimate D2E/DX2                !
 ! D302  D(23,40,42,58)        142.0987         estimate D2E/DX2                !
 ! D303  D(41,40,42,38)       -135.1479         estimate D2E/DX2                !
 ! D304  D(41,40,42,58)          3.8922         estimate D2E/DX2                !
 ! D305  D(24,41,43,46)         -1.1408         estimate D2E/DX2                !
 ! D306  D(24,41,43,59)       -139.4478         estimate D2E/DX2                !
 ! D307  D(40,41,43,46)        134.7203         estimate D2E/DX2                !
 ! D308  D(40,41,43,59)         -3.5867         estimate D2E/DX2                !
 ! D309  D(38,42,58,57)         -3.5881         estimate D2E/DX2                !
 ! D310  D(38,42,58,59)        137.8338         estimate D2E/DX2                !
 ! D311  D(40,42,58,57)       -146.7215         estimate D2E/DX2                !
 ! D312  D(40,42,58,59)         -5.2996         estimate D2E/DX2                !
 ! D313  D(41,43,46,44)         -0.7683         estimate D2E/DX2                !
 ! D314  D(41,43,46,61)       -142.8624         estimate D2E/DX2                !
 ! D315  D(59,43,46,44)        142.0165         estimate D2E/DX2                !
 ! D316  D(59,43,46,61)         -0.0776         estimate D2E/DX2                !
 ! D317  D(41,43,59,58)          2.1515         estimate D2E/DX2                !
 ! D318  D(41,43,59,65)        143.3141         estimate D2E/DX2                !
 ! D319  D(46,43,59,58)       -139.963          estimate D2E/DX2                !
 ! D320  D(46,43,59,65)          1.1996         estimate D2E/DX2                !
 ! D321  D(26,44,45,28)          8.6624         estimate D2E/DX2                !
 ! D322  D(26,44,45,48)       -141.3524         estimate D2E/DX2                !
 ! D323  D(46,44,45,28)        151.7915         estimate D2E/DX2                !
 ! D324  D(46,44,45,48)          1.7768         estimate D2E/DX2                !
 ! D325  D(26,44,46,43)          0.7454         estimate D2E/DX2                !
 ! D326  D(26,44,46,61)        139.0385         estimate D2E/DX2                !
 ! D327  D(45,44,46,43)       -137.7912         estimate D2E/DX2                !
 ! D328  D(45,44,46,61)          0.5019         estimate D2E/DX2                !
 ! D329  D(28,45,48,47)         -2.4724         estimate D2E/DX2                !
 ! D330  D(28,45,48,62)       -149.6826         estimate D2E/DX2                !
 ! D331  D(44,45,48,47)        144.0523         estimate D2E/DX2                !
 ! D332  D(44,45,48,62)         -3.1579         estimate D2E/DX2                !
 ! D333  D(43,46,61,62)        141.9045         estimate D2E/DX2                !
 ! D334  D(43,46,61,65)         -1.0855         estimate D2E/DX2                !
 ! D335  D(44,46,61,62)         -1.2609         estimate D2E/DX2                !
 ! D336  D(44,46,61,65)       -144.2508         estimate D2E/DX2                !
 ! D337  D(30,47,48,45)        -26.1493         estimate D2E/DX2                !
 ! D338  D(30,47,48,62)        123.3077         estimate D2E/DX2                !
 ! D339  D(50,47,48,45)       -142.8714         estimate D2E/DX2                !
 ! D340  D(50,47,48,62)          6.5856         estimate D2E/DX2                !
 ! D341  D(72,47,48,45)         94.4022         estimate D2E/DX2                !
 ! D342  D(72,47,48,62)       -116.1408         estimate D2E/DX2                !
 ! D343  D(30,47,50,49)         26.0271         estimate D2E/DX2                !
 ! D344  D(30,47,50,63)       -123.4143         estimate D2E/DX2                !
 ! D345  D(48,47,50,49)        143.0622         estimate D2E/DX2                !
 ! D346  D(48,47,50,63)         -6.3792         estimate D2E/DX2                !
 ! D347  D(72,47,50,49)        -94.3717         estimate D2E/DX2                !
 ! D348  D(72,47,50,63)        116.187          estimate D2E/DX2                !
 ! D349  D(45,48,62,61)          2.3919         estimate D2E/DX2                !
 ! D350  D(45,48,62,63)        146.472          estimate D2E/DX2                !
 ! D351  D(47,48,62,61)       -148.5953         estimate D2E/DX2                !
 ! D352  D(47,48,62,63)         -4.5151         estimate D2E/DX2                !
 ! D353  D(31,49,50,47)          2.1136         estimate D2E/DX2                !
 ! D354  D(31,49,50,63)        148.7366         estimate D2E/DX2                !
 ! D355  D(54,49,50,47)       -145.0916         estimate D2E/DX2                !
 ! D356  D(54,49,50,63)          1.5315         estimate D2E/DX2                !
 ! D357  D(31,49,54,51)         -6.2687         estimate D2E/DX2                !
 ! D358  D(31,49,54,56)       -150.8184         estimate D2E/DX2                !
 ! D359  D(50,49,54,51)        144.7163         estimate D2E/DX2                !
 ! D360  D(50,49,54,56)          0.1667         estimate D2E/DX2                !
 ! D361  D(47,50,63,62)          4.1039         estimate D2E/DX2                !
 ! D362  D(47,50,63,64)        148.275          estimate D2E/DX2                !
 ! D363  D(49,50,63,62)       -146.1474         estimate D2E/DX2                !
 ! D364  D(49,50,63,64)         -1.9763         estimate D2E/DX2                !
 ! D365  D(34,51,52,36)         -3.94           estimate D2E/DX2                !
 ! D366  D(34,51,52,53)       -139.7051         estimate D2E/DX2                !
 ! D367  D(54,51,52,36)        136.0085         estimate D2E/DX2                !
 ! D368  D(54,51,52,53)          0.2434         estimate D2E/DX2                !
 ! D369  D(34,51,54,49)          3.077          estimate D2E/DX2                !
 ! D370  D(34,51,54,56)        148.6437         estimate D2E/DX2                !
 ! D371  D(52,51,54,49)       -141.7862         estimate D2E/DX2                !
 ! D372  D(52,51,54,56)          3.7805         estimate D2E/DX2                !
 ! D373  D(36,52,53,37)         -2.8632         estimate D2E/DX2                !
 ! D374  D(36,52,53,55)       -144.3418         estimate D2E/DX2                !
 ! D375  D(51,52,53,37)        137.3899         estimate D2E/DX2                !
 ! D376  D(51,52,53,55)         -4.0887         estimate D2E/DX2                !
 ! D377  D(37,53,55,56)       -133.8336         estimate D2E/DX2                !
 ! D378  D(37,53,55,60)          4.6833         estimate D2E/DX2                !
 ! D379  D(52,53,55,56)          3.8018         estimate D2E/DX2                !
 ! D380  D(52,53,55,60)        142.3187         estimate D2E/DX2                !
 ! D381  D(49,54,56,55)        136.8492         estimate D2E/DX2                !
 ! D382  D(49,54,56,64)         -1.4843         estimate D2E/DX2                !
 ! D383  D(51,54,56,55)         -4.0567         estimate D2E/DX2                !
 ! D384  D(51,54,56,64)       -142.3902         estimate D2E/DX2                !
 ! D385  D(53,55,56,54)          0.2168         estimate D2E/DX2                !
 ! D386  D(53,55,56,64)        142.7444         estimate D2E/DX2                !
 ! D387  D(60,55,56,54)       -142.3935         estimate D2E/DX2                !
 ! D388  D(60,55,56,64)          0.1341         estimate D2E/DX2                !
 ! D389  D(53,55,60,57)         -1.9174         estimate D2E/DX2                !
 ! D390  D(53,55,60,66)       -143.5807         estimate D2E/DX2                !
 ! D391  D(56,55,60,57)        140.3136         estimate D2E/DX2                !
 ! D392  D(56,55,60,66)         -1.3497         estimate D2E/DX2                !
 ! D393  D(54,56,64,63)          1.0506         estimate D2E/DX2                !
 ! D394  D(54,56,64,66)        144.6173         estimate D2E/DX2                !
 ! D395  D(55,56,64,63)       -142.4214         estimate D2E/DX2                !
 ! D396  D(55,56,64,66)          1.1453         estimate D2E/DX2                !
 ! D397  D(39,57,58,42)          0.1491         estimate D2E/DX2                !
 ! D398  D(39,57,58,59)       -140.7939         estimate D2E/DX2                !
 ! D399  D(60,57,58,42)        140.8881         estimate D2E/DX2                !
 ! D400  D(60,57,58,59)         -0.055          estimate D2E/DX2                !
 ! D401  D(39,57,60,55)         -3.0604         estimate D2E/DX2                !
 ! D402  D(39,57,60,66)        133.6161         estimate D2E/DX2                !
 ! D403  D(58,57,60,55)       -139.3522         estimate D2E/DX2                !
 ! D404  D(58,57,60,66)         -2.6758         estimate D2E/DX2                !
 ! D405  D(42,58,59,43)          2.3133         estimate D2E/DX2                !
 ! D406  D(42,58,59,65)       -133.9139         estimate D2E/DX2                !
 ! D407  D(57,58,59,43)        138.9666         estimate D2E/DX2                !
 ! D408  D(57,58,59,65)          2.7394         estimate D2E/DX2                !
 ! D409  D(43,59,65,61)         -1.8815         estimate D2E/DX2                !
 ! D410  D(43,59,65,66)       -144.2415         estimate D2E/DX2                !
 ! D411  D(58,59,65,61)        139.6592         estimate D2E/DX2                !
 ! D412  D(58,59,65,66)         -2.7007         estimate D2E/DX2                !
 ! D413  D(55,60,66,64)          2.051          estimate D2E/DX2                !
 ! D414  D(55,60,66,65)        144.733          estimate D2E/DX2                !
 ! D415  D(57,60,66,64)       -139.9696         estimate D2E/DX2                !
 ! D416  D(57,60,66,65)          2.7124         estimate D2E/DX2                !
 ! D417  D(46,61,62,48)         -0.1607         estimate D2E/DX2                !
 ! D418  D(46,61,62,63)       -140.1417         estimate D2E/DX2                !
 ! D419  D(65,61,62,48)        137.8047         estimate D2E/DX2                !
 ! D420  D(65,61,62,63)         -2.1763         estimate D2E/DX2                !
 ! D421  D(46,61,65,59)          1.8502         estimate D2E/DX2                !
 ! D422  D(46,61,65,66)        144.571          estimate D2E/DX2                !
 ! D423  D(62,61,65,59)       -140.4256         estimate D2E/DX2                !
 ! D424  D(62,61,65,66)          2.2952         estimate D2E/DX2                !
 ! D425  D(48,62,63,50)          0.2534         estimate D2E/DX2                !
 ! D426  D(48,62,63,64)       -144.9804         estimate D2E/DX2                !
 ! D427  D(61,62,63,50)        144.9323         estimate D2E/DX2                !
 ! D428  D(61,62,63,64)         -0.3015         estimate D2E/DX2                !
 ! D429  D(50,63,64,56)          0.6406         estimate D2E/DX2                !
 ! D430  D(50,63,64,66)       -138.007          estimate D2E/DX2                !
 ! D431  D(62,63,64,56)        141.3018         estimate D2E/DX2                !
 ! D432  D(62,63,64,66)          2.6541         estimate D2E/DX2                !
 ! D433  D(56,64,66,60)         -2.0053         estimate D2E/DX2                !
 ! D434  D(56,64,66,65)       -144.9253         estimate D2E/DX2                !
 ! D435  D(63,64,66,60)        140.3872         estimate D2E/DX2                !
 ! D436  D(63,64,66,65)         -2.5328         estimate D2E/DX2                !
 ! D437  D(59,65,66,60)         -0.0197         estimate D2E/DX2                !
[...]
    11 C(13)  Bbb     0.0561     7.523     2.685     2.510  0.3642  0.6305  0.6855
              Bcc     0.0745    10.002     3.569     3.336  0.6968 -0.6728  0.2486
 
              Baa    -0.0797   -10.698    -3.817    -3.568  0.8095  0.2306  0.5399
    12 C(13)  Bbb    -0.0765   -10.272    -3.665    -3.426 -0.3157 -0.6043  0.7315
              Bcc     0.1563    20.970     7.483     6.995 -0.4949  0.7627  0.4164
 
              Baa    -0.0948   -12.721    -4.539    -4.243 -0.6074  0.3328  0.7213
    13 C(13)  Bbb     0.0379     5.091     1.817     1.698  0.6385 -0.3355  0.6926
              Bcc     0.0569     7.630     2.723     2.545  0.4725  0.8813 -0.0087
 
              Baa    -0.0604    -8.105    -2.892    -2.704 -0.4498  0.8472  0.2827
    14 C(13)  Bbb     0.0275     3.687     1.315     1.230  0.2271 -0.1977  0.9536
              Bcc     0.0329     4.418     1.577     1.474  0.8638  0.4932 -0.1035
 
              Baa    -0.0105    -1.407    -0.502    -0.469  0.2075  0.9252  0.3177
    15 C(13)  Bbb    -0.0082    -1.098    -0.392    -0.366  0.7786  0.0404 -0.6263
              Bcc     0.0187     2.505     0.894     0.836  0.5923 -0.3773  0.7119
 
              Baa    -0.0014    -0.189    -0.068    -0.063  0.9905 -0.0617 -0.1230
    16 C(13)  Bbb    -0.0012    -0.158    -0.057    -0.053  0.1236  0.7921  0.5977
              Bcc     0.0026     0.348     0.124     0.116  0.0605 -0.6072  0.7922
 
              Baa    -0.0052    -0.692    -0.247    -0.231  0.0889  0.9781 -0.1882
    17 C(13)  Bbb    -0.0047    -0.625    -0.223    -0.208  0.9597 -0.1347 -0.2466
              Bcc     0.0098     1.317     0.470     0.439  0.2666  0.1587  0.9507
 
              Baa    -0.0035    -0.474    -0.169    -0.158  0.7855 -0.2057  0.5837
    18 C(13)  Bbb     0.0006     0.081     0.029     0.027  0.2543  0.9671 -0.0014
              Bcc     0.0029     0.393     0.140     0.131 -0.5642  0.1495  0.8120
 
              Baa    -0.0048    -0.649    -0.232    -0.217  0.2929  0.4349  0.8515
    19 C(13)  Bbb     0.0019     0.258     0.092     0.086 -0.2908  0.8889 -0.3540
              Bcc     0.0029     0.391     0.140     0.131  0.9109  0.1439 -0.3868
 
              Baa    -0.0115    -1.541    -0.550    -0.514  0.2891  0.8324  0.4729
    20 C(13)  Bbb     0.0054     0.725     0.259     0.242  0.0839 -0.5141  0.8536
              Bcc     0.0061     0.816     0.291     0.272  0.9536 -0.2072 -0.2184
 
              Baa    -0.0008    -0.110    -0.039    -0.037  0.5296  0.8364 -0.1413
    21 C(13)  Bbb    -0.0006    -0.084    -0.030    -0.028  0.7557 -0.3895  0.5264
              Bcc     0.0014     0.193     0.069     0.064 -0.3853  0.3856  0.8384
 
              Baa    -0.0401    -5.378    -1.919    -1.794  0.2920  0.9270 -0.2353
    22 C(13)  Bbb     0.0193     2.588     0.924     0.863  0.9525 -0.3041 -0.0157
              Bcc     0.0208     2.789     0.995     0.930  0.0861  0.2195  0.9718
 
              Baa    -0.0106    -1.429    -0.510    -0.477  0.2572 -0.4000  0.8797
    23 C(13)  Bbb    -0.0100    -1.343    -0.479    -0.448  0.9390 -0.1118 -0.3254
              Bcc     0.0207     2.772     0.989     0.925  0.2285  0.9097  0.3469
 
              Baa    -0.0713    -9.570    -3.415    -3.192  0.4730  0.4125  0.7785
    24 C(13)  Bbb    -0.0672    -9.023    -3.220    -3.010  0.8741 -0.3307 -0.3558
              Bcc     0.1386    18.593     6.634     6.202  0.1107  0.8488 -0.5170
 
              Baa    -0.1479   -19.851    -7.083    -6.621  0.6883  0.4893  0.5356
    25 C(13)  Bbb    -0.1389   -18.638    -6.651    -6.217 -0.5533  0.8316 -0.0486
              Bcc     0.2868    38.489    13.734    12.839 -0.4692 -0.2629  0.8431
 
              Baa    -0.0626    -8.401    -2.998    -2.802 -0.1500 -0.5846  0.7974
    26 C(13)  Bbb     0.0220     2.957     1.055     0.986  0.6711  0.5320  0.5163
              Bcc     0.0406     5.444     1.942     1.816  0.7260 -0.6125 -0.3125
 
              Baa    -0.0789   -10.588    -3.778    -3.532  0.9276  0.1198  0.3538
    27 C(13)  Bbb    -0.0740    -9.927    -3.542    -3.311  0.0794  0.8622 -0.5002
              Bcc     0.1529    20.515     7.320     6.843 -0.3650  0.4921  0.7903
 
              Baa    -0.0084    -1.130    -0.403    -0.377  0.7479  0.0418 -0.6625
    28 C(13)  Bbb     0.0020     0.267     0.095     0.089 -0.2712  0.9302 -0.2475
              Bcc     0.0064     0.863     0.308     0.288  0.6059  0.3648  0.7070
 
              Baa    -0.0903   -12.114    -4.323    -4.041  0.6615 -0.0909  0.7445
    29 C(13)  Bbb    -0.0832   -11.162    -3.983    -3.723  0.6497  0.5653 -0.5083
              Bcc     0.1735    23.275     8.305     7.764 -0.3746  0.8199  0.4330
 
              Baa    -0.0584    -7.834    -2.795    -2.613 -0.3835  0.7431  0.5484
    30 C(13)  Bbb     0.0251     3.363     1.200     1.122  0.8554  0.0618  0.5143
              Bcc     0.0333     4.471     1.595     1.491  0.3483  0.6663 -0.6593
 
              Baa    -0.0029    -0.383    -0.137    -0.128 -0.3209  0.8779  0.3555
    31 C(13)  Bbb    -0.0007    -0.088    -0.031    -0.029  0.6948 -0.0368  0.7182
              Bcc     0.0035     0.471     0.168     0.157  0.6436  0.4775 -0.5981
 
              Baa    -0.0023    -0.310    -0.111    -0.104  0.9646 -0.0283 -0.2623
    32 C(13)  Bbb    -0.0016    -0.209    -0.075    -0.070  0.2086  0.6905  0.6926
              Bcc     0.0039     0.519     0.185     0.173 -0.1616  0.7228 -0.6720
 
              Baa    -0.0014    -0.186    -0.066    -0.062 -0.4072  0.9056  0.1189
    33 C(13)  Bbb    -0.0010    -0.141    -0.050    -0.047  0.9126  0.3980  0.0940
              Bcc     0.0024     0.327     0.117     0.109 -0.0378 -0.1468  0.9884
 
              Baa    -0.0027    -0.365    -0.130    -0.122 -0.4097  0.9041 -0.1214
    34 C(13)  Bbb    -0.0006    -0.087    -0.031    -0.029  0.8487  0.4266  0.3127
              Bcc     0.0034     0.452     0.161     0.151 -0.3346 -0.0251  0.9420
 
              Baa    -0.0023    -0.310    -0.111    -0.103  0.3537  0.9314 -0.0862
    35 C(13)  Bbb    -0.0020    -0.270    -0.096    -0.090  0.9344 -0.3476  0.0776
              Bcc     0.0043     0.580     0.207     0.194 -0.0423  0.1080  0.9933
 
              Baa    -0.0006    -0.084    -0.030    -0.028  0.6647  0.0487  0.7455
    36 C(13)  Bbb    -0.0000    -0.005    -0.002    -0.002 -0.0647  0.9979 -0.0074
              Bcc     0.0007     0.089     0.032     0.030  0.7443  0.0433 -0.6665
 
              Baa    -0.0049    -0.651    -0.232    -0.217 -0.3577  0.1300  0.9247
    37 C(13)  Bbb     0.0022     0.299     0.107     0.100  0.8308  0.4966  0.2515
              Bcc     0.0026     0.352     0.126     0.117 -0.4265  0.8582 -0.2856
 
              Baa    -0.0038    -0.509    -0.182    -0.170 -0.2291  0.6760  0.7004
    38 C(13)  Bbb     0.0015     0.205     0.073     0.068  0.5170 -0.5252  0.6759
              Bcc     0.0023     0.304     0.109     0.102  0.8248  0.5169 -0.2291
 
              Baa    -0.0055    -0.734    -0.262    -0.245  0.6594  0.7442  0.1065
    39 C(13)  Bbb    -0.0051    -0.688    -0.245    -0.229  0.5368 -0.5652  0.6264
              Bcc     0.0106     1.422     0.507     0.474 -0.5264  0.3558  0.7722
 
              Baa    -0.0072    -0.971    -0.347    -0.324  0.3732 -0.0073  0.9277
    40 C(13)  Bbb    -0.0057    -0.759    -0.271    -0.253  0.8837  0.3071 -0.3531
              Bcc     0.0129     1.730     0.617     0.577 -0.2823  0.9517  0.1211
 
              Baa    -0.0323    -4.335    -1.547    -1.446 -0.1933  0.9045 -0.3800
    41 C(13)  Bbb     0.0132     1.770     0.631     0.590  0.2061  0.4161  0.8856
              Bcc     0.0191     2.565     0.915     0.856  0.9592  0.0928 -0.2669
 
              Baa    -0.0074    -0.999    -0.356    -0.333 -0.4998  0.8313  0.2433
    42 C(13)  Bbb     0.0028     0.372     0.133     0.124  0.0061 -0.2775  0.9607
              Bcc     0.0047     0.627     0.224     0.209  0.8661  0.4816  0.1336
 
              Baa    -0.0372    -4.991    -1.781    -1.665  0.4533  0.6976  0.5549
    43 C(13)  Bbb    -0.0343    -4.604    -1.643    -1.536  0.7103  0.0934 -0.6976
              Bcc     0.0715     9.594     3.423     3.200 -0.5385  0.7104 -0.4532
 
              Baa    -0.0235    -3.153    -1.125    -1.052  0.2733  0.9254  0.2626
    44 C(13)  Bbb    -0.0206    -2.759    -0.984    -0.920  0.9473 -0.2115 -0.2408
              Bcc     0.0441     5.912     2.109     1.972  0.1673 -0.3146  0.9344
 
              Baa    -0.0123    -1.651    -0.589    -0.551 -0.0597 -0.0323  0.9977
    45 C(13)  Bbb     0.0027     0.361     0.129     0.120 -0.2973  0.9547  0.0131
              Bcc     0.0096     1.290     0.460     0.430  0.9529  0.2959  0.0666
 
              Baa    -0.0254    -3.402    -1.214    -1.135  0.4412 -0.4659  0.7670
    46 C(13)  Bbb     0.0115     1.539     0.549     0.513  0.6392  0.7631  0.0959
              Bcc     0.0139     1.864     0.665     0.622 -0.6299  0.4479  0.6345
 
              Baa    -0.0011    -0.149    -0.053    -0.050 -0.5553  0.4399  0.7058
    47 C(13)  Bbb    -0.0006    -0.082    -0.029    -0.027 -0.2200  0.7407 -0.6347
              Bcc     0.0017     0.230     0.082     0.077  0.8020  0.5078  0.3145
 
              Baa    -0.0049    -0.660    -0.235    -0.220 -0.3180  0.8926 -0.3196
    48 C(13)  Bbb    -0.0026    -0.346    -0.124    -0.116  0.8477  0.1167 -0.5175
              Bcc     0.0075     1.006     0.359     0.336  0.4246  0.4355  0.7938
 
              Baa    -0.0026    -0.352    -0.125    -0.117 -0.0842  0.9057  0.4154
    49 C(13)  Bbb    -0.0008    -0.110    -0.039    -0.037  0.2191 -0.3899  0.8944
              Bcc     0.0034     0.462     0.165     0.154  0.9721  0.1663 -0.1657
 
              Baa    -0.0018    -0.247    -0.088    -0.083 -0.3199 -0.1746  0.9312
    50 C(13)  Bbb    -0.0006    -0.077    -0.027    -0.026  0.7156 -0.6887  0.1167
              Bcc     0.0024     0.324     0.116     0.108  0.6209  0.7037  0.3452
 
              Baa    -0.0019    -0.256    -0.091    -0.085  0.6853  0.1726  0.7075
    51 C(13)  Bbb    -0.0010    -0.132    -0.047    -0.044  0.6450 -0.5950 -0.4796
              Bcc     0.0029     0.388     0.138     0.129  0.3382  0.7850 -0.5190
 
              Baa    -0.0016    -0.218    -0.078    -0.073 -0.1936 -0.6291  0.7529
    52 C(13)  Bbb     0.0004     0.055     0.020     0.018  0.7096  0.4402  0.5502
              Bcc     0.0012     0.163     0.058     0.054  0.6775 -0.6407 -0.3612
 
              Baa    -0.0044    -0.591    -0.211    -0.197  0.6050  0.5277  0.5962
    53 C(13)  Bbb    -0.0039    -0.524    -0.187    -0.175 -0.5428  0.8212 -0.1760
              Bcc     0.0083     1.114     0.398     0.372 -0.5825 -0.2171  0.7833
 
              Baa    -0.0032    -0.429    -0.153    -0.143  0.3860  0.9184 -0.0870
    54 C(13)  Bbb     0.0011     0.153     0.054     0.051  0.4041 -0.0835  0.9109
              Bcc     0.0021     0.276     0.099     0.092  0.8293 -0.3868 -0.4033
 
              Baa    -0.0046    -0.618    -0.220    -0.206  0.8401  0.2508 -0.4810
    55 C(13)  Bbb     0.0019     0.261     0.093     0.087  0.2546  0.6006  0.7579
              Bcc     0.0027     0.357     0.127     0.119 -0.4790  0.7592 -0.4407
 
              Baa    -0.0017    -0.229    -0.082    -0.076  0.4283  0.0405  0.9027
    56 C(13)  Bbb    -0.0012    -0.165    -0.059    -0.055 -0.5632  0.7932  0.2316
              Bcc     0.0029     0.394     0.141     0.131  0.7066  0.6076 -0.3625
 
              Baa    -0.0075    -1.013    -0.361    -0.338  0.7926 -0.4280 -0.4342
    57 C(13)  Bbb     0.0029     0.390     0.139     0.130  0.5713  0.2727  0.7741
              Bcc     0.0046     0.623     0.222     0.208  0.2129  0.8617 -0.4607
 
              Baa    -0.0225    -3.017    -1.076    -1.006  0.5556  0.3547  0.7520
    58 C(13)  Bbb    -0.0213    -2.853    -1.018    -0.952  0.4246  0.6566 -0.6234
              Bcc     0.0437     5.869     2.094     1.958  0.7148 -0.6657 -0.2142
 
              Baa    -0.0148    -1.983    -0.707    -0.661  0.7306 -0.6582  0.1817
    59 C(13)  Bbb     0.0058     0.784     0.280     0.262  0.5627  0.7312  0.3857
              Bcc     0.0089     1.199     0.428     0.400 -0.3867 -0.1795  0.9046
 
              Baa    -0.0089    -1.192    -0.425    -0.397  0.2979  0.5402  0.7871
    60 C(13)  Bbb    -0.0083    -1.108    -0.395    -0.370 -0.1288  0.8397 -0.5275
              Bcc     0.0171     2.300     0.821     0.767  0.9459 -0.0557 -0.3197
 
              Baa    -0.0037    -0.494    -0.176    -0.165  0.1302  0.9697 -0.2067
    61 C(13)  Bbb    -0.0026    -0.352    -0.126    -0.117 -0.6370  0.2415  0.7321
              Bcc     0.0063     0.846     0.302     0.282  0.7598  0.0364  0.6491
 
              Baa    -0.0094    -1.266    -0.452    -0.422  0.5004  0.3048  0.8104
    62 C(13)  Bbb     0.0042     0.558     0.199     0.186  0.0377  0.9274 -0.3721
              Bcc     0.0053     0.708     0.253     0.236  0.8650 -0.2167 -0.4526
 
              Baa    -0.0011    -0.143    -0.051    -0.048 -0.2062  0.1452  0.9677
    63 C(13)  Bbb    -0.0007    -0.098    -0.035    -0.033 -0.2249  0.9554 -0.1913
              Bcc     0.0018     0.241     0.086     0.080  0.9523  0.2570  0.1644
 
              Baa    -0.0020    -0.267    -0.095    -0.089  0.8032  0.5485  0.2324
    64 C(13)  Bbb     0.0009     0.119     0.042     0.040  0.1958 -0.6115  0.7666
              Bcc     0.0011     0.147     0.053     0.049 -0.5626  0.5702  0.5986
 
              Baa    -0.0028    -0.381    -0.136    -0.127  0.1162  0.7986  0.5906
    65 C(13)  Bbb    -0.0023    -0.307    -0.109    -0.102 -0.2490 -0.5522  0.7957
              Bcc     0.0051     0.688     0.245     0.229  0.9615 -0.2396  0.1347
 
              Baa    -0.0044    -0.584    -0.208    -0.195  0.9971 -0.0373  0.0661
    66 C(13)  Bbb     0.0020     0.266     0.095     0.089  0.0359  0.9991  0.0221
              Bcc     0.0024     0.318     0.114     0.106 -0.0668 -0.0197  0.9976
 
              Baa    -0.0356    -1.862    -0.664    -0.621  0.9764 -0.1866 -0.1089
    67 Cl(35) Bbb    -0.0106    -0.553    -0.197    -0.184 -0.0314 -0.6210  0.7831
              Bcc     0.0461     2.415     0.862     0.805  0.2137  0.7612  0.6122
 
              Baa    -0.2222   -11.627    -4.149    -3.878 -0.0513 -0.1306  0.9901
    68 Cl(35) Bbb    -0.1986   -10.392    -3.708    -3.466 -0.0829  0.9886  0.1261
              Bcc     0.4207    22.019     7.857     7.345  0.9952  0.0756  0.0616
 
              Baa    -0.0215    -1.127    -0.402    -0.376 -0.2604  0.5675  0.7811
    69 Cl(35) Bbb    -0.0128    -0.668    -0.238    -0.223 -0.1585  0.7729 -0.6144
              Bcc     0.0343     1.795     0.640     0.599  0.9524  0.2838  0.1113
 
              Baa    -0.0330    -1.728    -0.616    -0.576 -0.4915  0.6371 -0.5938
    70 Cl(35) Bbb     0.0126     0.661     0.236     0.220  0.8297  0.5498 -0.0969
              Bcc     0.0204     1.067     0.381     0.356 -0.2647  0.5403  0.7988
 
              Baa    -0.0692    -3.620    -1.292    -1.208  0.8140 -0.2492 -0.5247
    71 Cl(35) Bbb    -0.0598    -3.129    -1.116    -1.044  0.5379 -0.0173  0.8428
              Bcc     0.1290     6.749     2.408     2.251  0.2191  0.9683 -0.1199
 
              Baa    -0.0352    -1.843    -0.658    -0.615  0.4302  0.5845  0.6880
    72 Cl(35) Bbb     0.0145     0.757     0.270     0.252 -0.6063 -0.3776  0.6999
              Bcc     0.0208     1.086     0.388     0.362 -0.6688  0.7182 -0.1920
 
              Baa    -0.1734    -9.077    -3.239    -3.028  0.9579  0.1056  0.2670
    73 Cl(35) Bbb    -0.1571    -8.224    -2.935    -2.743 -0.0373  0.9678 -0.2488
              Bcc     0.3306    17.301     6.173     5.771 -0.2847  0.2283  0.9310
 

 ---------------------------------------------------------------------------------

 No NMR shielding tensors so no spin-rotation constants.
 Leave Link  601 at Fri Jul 15 06:19:25 2022, MaxMem=  1342177280 cpu:             106.1 elap:               2.5
 (Enter /home/mkliu/g16/l9999.exe)
 1\1\GINC-NODE02\FOpt\UB3LYP\6-311G(d,p)\C66Cl7(2)\MKLIU\15-Jul-2022\0\
 \#P opt b3lyp/6-311G(d, p) empiricaldispersion=GD3\\force\\0,2\C,-1.33
 73994555,1.861816425,-3.9065268395\C,0.188288275,2.2464512984,-3.99678
 89501\C,0.9564520259,0.8644646836,-4.3124400376\C,-1.3439093187,0.3605
 266451,-3.959819122\C,-0.1060236629,-0.1921701855,-4.2112460966\C,-2.2
 185942967,-0.1732447738,-3.0047445841\C,-1.9917397231,2.0960506727,-2.
 5571578568\C,-2.6878855051,0.9344734339,-2.1728747832\C,-1.4815268643,
 2.9646246196,-1.5714822812\C,0.7248640221,2.6490981751,-2.6574335713\C
 ,-0.0345758629,3.254961379,-1.6149844863\C,1.8535641819,0.6744251607,-
 3.0993636842\C,1.8269592083,1.8159493414,-2.2865494258\C,2.2108758486,
 -0.5542456684,-2.5508799967\C,0.1836665612,-1.4335524477,-3.6651829022
 \C,1.5890639318,-1.8106727881,-3.1859012317\C,-1.9812035717,-1.4371960
 632,-2.4363191697\C,-0.7829310414,-2.0935002771,-2.88381014\C,-2.50341
 70863,-1.735427496,-1.0999023921\C,-3.1168102662,0.7048974574,-0.84325
 66137\C,-3.1175266217,-0.659569238,-0.3093460527\C,-2.1049260067,2.892
 4374124,-0.3061593488\C,-2.9795018758,1.8053972645,0.0356376115\C,-1.4
 240012958,3.291304217,0.9017934142\C,0.6326254768,3.4728003454,-0.4076
 643874\C,-0.054185451,3.5426662048,0.837132462\C,2.3889459719,1.809074
 3099,-1.0022548793\C,2.0718565108,3.0176402473,-0.1532222552\C,2.80972
 79694,-0.5836844865,-1.2643611383\C,2.9387355724,0.6171692125,-0.51039
 1045\C,3.1253798239,-1.9386134353,-0.6220378855\C,1.2885096499,-2.8273
 615999,-2.1093098656\C,-0.1217845361,-3.0531930404,-2.0387977471\C,2.0
 369990048,-2.9449150847,-0.9753983274\C,-1.9553853224,-2.8391466527,-0
 .4147269511\C,-0.7266539183,-3.4770182163,-0.8751037621\C,-1.949955764
 ,-2.9160616446,1.0181138692\C,-3.1717196484,-0.8045109303,1.0957851161
 \C,-2.5623807045,-1.9203872908,1.7640832469\C,-2.9227447606,1.61430828
 02,1.4642007246\C,-1.9551784636,2.5390286016,2.0125452774\C,-3.0451357
 52,0.3415440478,1.9849202573\C,-1.1329883385,2.1388799672,3.0634098798
 \C,0.8164278738,3.0936352637,1.901897078\C,2.0527012406,2.6699712969,1
 .3147394412\C,0.2872265201,2.4313410136,3.0102893263\C,3.4728054787,0.
 5994168348,0.9231172099\C,2.7041471747,1.5765778933,1.8071771103\C,3.0
 093610456,-1.8792512853,0.8917701435\C,3.1881251627,-0.7269822952,1.59
 93435137\C,1.4472985974,-3.4696548093,0.2171220365\C,0.0819688611,-3.7
 834555287,0.2665534216\C,-0.684023675,-3.478005962,1.4533578283\C,2.07
 92251982,-2.8634284062,1.3622699726\C,-0.0585310429,-2.9720556864,2.58
 62847991\C,1.3606031735,-2.6648272736,2.5445439037\C,-1.9580717756,-1.
 4572997961,2.9991221077\C,-2.2565789492,-0.0527482728,3.1343255214\C,-
 1.2943978927,0.8247114317,3.647713407\C,-0.7111946435,-1.9532447735,3.
 3853429508\C,0.9965049482,1.3098165295,3.5616579117\C,2.1822886565,0.8
 920286451,2.9532905613\C,2.4771893171,-0.5155473491,2.8246404158\C,1.5
 776290752,-1.4686121116,3.3067542905\C,0.0209052823,0.3195373461,3.987
 5352319\C,0.3049001596,-1.0363926756,3.860585055\Cl,-2.3975448154,2.57
 61489562,-5.2116082685\Cl,0.564537767,3.5998837002,-5.1344769211\Cl,1.
 8975329353,0.8022753459,-5.8531382106\Cl,2.6599942678,-2.5118741647,-4
 .4979604385\Cl,4.8063848689,-2.4892799895,-1.1518353496\Cl,5.278341526
 4,0.9813633157,0.8812984817\Cl,3.2903608587,4.3786827029,-0.5159661355
 \\Version=ES64L-G16RevA.03\State=2-A\HF=-5737.0022519\S2=0.784598\S2-1
 =0.\S2A=0.751034\RMSD=6.292e-09\RMSF=2.876e-05\Dipole=-1.6191792,-0.68
 1384,1.4576963\Quadrupole=-2.9741774,2.260348,0.7138294,0.7910247,-0.2
 950114,1.3858778\PG=C01 [X(C66Cl7)]\\@


 THOSE WHO ARE UNABLE TO LEARN FROM PAST MEETINGS
 ARE CONDEMNED TO REPEAT THEM.
 Job cpu time:       4 days 18 hours 19 minutes 25.8 seconds.
 Elapsed time:       0 days  2 hours 23 minutes  8.3 seconds.
 File lengths (MBytes):  RWF=   2038 Int=      0 D2E=      0 Chk=    184 Scr=      1
 Normal termination of Gaussian 16 at Fri Jul 15 06:19:27 2022.
