 Entering Gaussian System, Link 0=g16
 Input=eubutj9l3bq4g_addon_7.gjf
 Output=eubutj9l3bq4g_addon_7.log
 Initial command:
 /home/mkliu/g16/l1.exe "/data/scratch/Gau-224714.inp" -scrdir="/data/scratch/"
 Entering Link 1 = /home/mkliu/g16/l1.exe PID=    224715.
  
 Copyright (c) 1988,1990,1992,1993,1995,1998,2003,2009,2016,
            Gaussian, Inc.  All Rights Reserved.
  
 This is part of the Gaussian(R) 16 program.  It is based on
 the Gaussian(R) 09 system (copyright 2009, Gaussian, Inc.),
 the Gaussian(R) 03 system (copyright 2003, Gaussian, Inc.),
 the Gaussian(R) 98 system (copyright 1998, Gaussian, Inc.),
 the Gaussian(R) 94 system (copyright 1995, Gaussian, Inc.),
 the Gaussian 92(TM) system (copyright 1992, Gaussian, Inc.),
 the Gaussian 90(TM) system (copyright 1990, Gaussian, Inc.),
 the Gaussian 88(TM) system (copyright 1988, Gaussian, Inc.),
 the Gaussian 86(TM) system (copyright 1986, Carnegie Mellon
 University), and the Gaussian 82(TM) system (copyright 1983,
 Carnegie Mellon University). Gaussian is a federally registered
 trademark of Gaussian, Inc.
  
 This software contains proprietary and confidential information,
 including trade secrets, belonging to Gaussian, Inc.
  
 This software is provided under written license and may be
 used, copied, transmitted, or stored only in accord with that
 written license.
  
 The following legend is applicable only to US Government
 contracts under FAR:
  
                    RESTRICTED RIGHTS LEGEND
  
 Use, reproduction and disclosure by the US Government is
 subject to restrictions as set forth in subparagraphs (a)
 and (c) of the Commercial Computer Software - Restricted
 Rights clause in FAR 52.227-19.
  
 Gaussian, Inc.
 340 Quinnipiac St., Bldg. 40, Wallingford CT 06492
  
  
 ---------------------------------------------------------------
 Warning -- This program may not be used in any manner that
 competes with the business of Gaussian, Inc. or will provide
 assistance to any competitor of Gaussian, Inc.  The licensee
 of this program is prohibited from giving any competitor of
 Gaussian, Inc. access to this program.  By using this program,
 the user acknowledges that Gaussian, Inc. is engaged in the
 business of creating and licensing software in the field of
 computational chemistry and represents and warrants to the
 licensee that it is not a competitor of Gaussian, Inc. and that
 it will not use this program in any manner prohibited above.
 ---------------------------------------------------------------
  

 Cite this work as:
 Gaussian 16, Revision A.03,
 M. J. Frisch, G. W. Trucks, H. B. Schlegel, G. E. Scuseria, 
 M. A. Robb, J. R. Cheeseman, G. Scalmani, V. Barone, 
 G. A. Petersson, H. Nakatsuji, X. Li, M. Caricato, A. V. Marenich, 
 J. Bloino, B. G. Janesko, R. Gomperts, B. Mennucci, H. P. Hratchian, 
 J. V. Ortiz, A. F. Izmaylov, J. L. Sonnenberg, D. Williams-Young, 
 F. Ding, F. Lipparini, F. Egidi, J. Goings, B. Peng, A. Petrone, 
 T. Henderson, D. Ranasinghe, V. G. Zakrzewski, J. Gao, N. Rega, 
 G. Zheng, W. Liang, M. Hada, M. Ehara, K. Toyota, R. Fukuda, 
 J. Hasegawa, M. Ishida, T. Nakajima, Y. Honda, O. Kitao, H. Nakai, 
 T. Vreven, K. Throssell, J. A. Montgomery, Jr., J. E. Peralta, 
 F. Ogliaro, M. J. Bearpark, J. J. Heyd, E. N. Brothers, K. N. Kudin, 
 V. N. Staroverov, T. A. Keith, R. Kobayashi, J. Normand, 
 K. Raghavachari, A. P. Rendell, J. C. Burant, S. S. Iyengar, 
 J. Tomasi, M. Cossi, J. M. Millam, M. Klene, C. Adamo, R. Cammi, 
 J. W. Ochterski, R. L. Martin, K. Morokuma, O. Farkas, 
 J. B. Foresman, and D. J. Fox, Gaussian, Inc., Wallingford CT, 2016.
 
 ******************************************
 Gaussian 16:  ES64L-G16RevA.03 25-Dec-2016
                15-Jul-2022 
 ******************************************
 %mem=10GB
 %chk=eubutj9l3bq4g_addon_7.chk
 %nprocshared=48
 Will use up to   48 processors via shared memory.
 -------------------------------------------------
 #P opt b3lyp/6-311G(d, p) empiricaldispersion=GD3
 -------------------------------------------------
 1/18=20,19=15,26=3,38=1/1,3;
 2/9=110,12=2,17=6,18=5,40=1/2;
 3/5=4,6=6,7=101,11=2,25=1,30=1,71=1,74=-5,124=31/1,2,3;
 4//1;
 5/5=2,38=5/2;
 6/7=2,8=2,9=2,10=2,28=1/1;
 7//1,2,3,16;
 1/18=20,19=15,26=3/3(2);
 2/9=110/2;
 99//99;
 2/9=110/2;
 3/5=4,6=6,7=101,11=2,25=1,30=1,71=1,74=-5,124=31/1,2,3;
 4/5=5,16=3,69=1/1;
 5/5=2,38=5/2;
 7//1,2,3,16;
 1/18=20,19=15,26=3/3(-5);
 2/9=110/2;
 6/7=2,8=2,9=2,10=2,19=2,28=1/1;
 99/9=1/99;
 Leave Link    1 at Fri Jul 15 04:51:50 2022, MaxMem=  1342177280 cpu:               2.2 elap:               0.1
 (Enter /home/mkliu/g16/l101.exe)
 -----
 force
 -----
 Symbolic Z-matrix:
 Charge =  0 Multiplicity = 2
 C                    -1.34038   1.86862  -3.91351 
 C                     0.18496   2.19689  -3.97657 
 C                     0.93842   0.87774  -4.24017 
 C                    -1.49762   0.33977  -4.21455 
 C                    -0.1051   -0.15925  -4.06737 
 C                    -2.46673  -0.22237  -3.12784 
 C                    -1.90008   2.01375  -2.53866 
 C                    -2.6023    0.89938  -2.15426 
 C                    -1.423     2.91709  -1.56291 
 C                     0.72024   2.62666  -2.64945 
 C                    -0.00819   3.2262   -1.62902 
 C                     1.89022   0.69828  -3.08545 
 C                     1.8349    1.83747  -2.27003 
 C                     2.24463  -0.52115  -2.52623 
 C                     0.21265  -1.33944  -3.55617 
 C                     1.60445  -1.75702  -3.13991 
 C                    -1.97549  -1.44894  -2.40532 
 C                    -0.80348  -2.06045  -2.79396 
 C                    -2.50665  -1.74067  -1.08954 
 C                    -3.04638   0.68235  -0.8365 
 C                    -3.0979   -0.66934  -0.30937 
 C                    -2.02698   2.84407  -0.32179 
 C                    -2.8967    1.76861   0.02445 
 C                    -1.36915   3.27108   0.8858 
 C                     0.67249   3.42928  -0.39984 
 C                    -0.02621   3.56637   0.84041 
 C                     2.40888   1.81534  -0.99327 
 C                     1.9097    2.7892   -0.1183 
 C                     2.89168  -0.56553  -1.26632 
 C                     3.0284    0.61788  -0.49058 
 C                     3.14665  -1.91263  -0.61145 
 C                     1.30071  -2.76932  -2.0811 
 C                    -0.11508  -3.00752  -2.00214 
 C                     2.04098  -2.88107  -0.95666 
 C                    -1.92429  -2.80986  -0.39922 
 C                    -0.71232  -3.43298  -0.83913 
 C                    -1.92533  -2.88576   1.03015 
 C                    -3.12993  -0.7902    1.0855 
 C                    -2.53253  -1.90117   1.76505 
 C                    -2.86118   1.6115    1.44178 
 C                    -1.91769   2.54195   1.99853 
 C                    -2.99659   0.34497   1.96141 
 C                    -1.10082   2.14166   3.03803 
 C                     0.83518   3.11952   1.91397 
 C                     2.03597   2.6419    1.29682 
 C                     0.30803   2.43788   2.99146 
 C                     3.24937   0.54843   0.92158 
 C                     2.71372   1.53486   1.79006 
 C                     3.02752  -1.88042   0.88431 
 C                     3.19364  -0.725     1.59984 
 C                     1.45434  -3.43218   0.22983 
 C                     0.10542  -3.73492   0.29112 
 C                    -0.66359  -3.44149   1.46134 
 C                     2.09628  -2.84281   1.36274 
 C                    -0.03667  -2.92948   2.57999 
 C                     1.36526  -2.62932   2.5308 
 C                    -1.93344  -1.43455   2.99024 
 C                    -2.2222   -0.0389    3.10866 
 C                    -1.26334   0.83308   3.61048 
 C                    -0.69566  -1.91943   3.37005 
 C                     1.01932   1.30819   3.53763 
 C                     2.21033   0.88246   2.97495 
 C                     2.49759  -0.51715   2.84307 
 C                     1.57954  -1.44324   3.295 
 C                     0.04018   0.33626   3.95987 
 C                     0.31572  -1.01485   3.83793 
 Cl                   -2.32878   2.88282  -4.99286 
 Cl                    0.55492   3.47853  -5.15941 
 Cl                    1.74121   0.71764  -5.82044 
 Cl                    2.6673   -2.40811  -4.43292 
 Cl                   -2.02234   0.00369  -5.88527 
 Cl                   -4.10858  -0.59861  -3.80681 
 Cl                    4.77123  -2.46965  -1.21831 
 
 ITRead=  0  0  0  0  0  0  0  0  0  0  0  0  0  0  0  0  0  0  0  0
 ITRead=  0  0  0  0  0  0  0  0  0  0  0  0  0  0  0  0  0  0  0  0
 ITRead=  0  0  0  0  0  0  0  0  0  0  0  0  0  0  0  0  0  0  0  0
 ITRead=  0  0  0  0  0  0  0  0  0  0  0  0  0
 MicOpt= -1 -1 -1 -1 -1 -1 -1 -1 -1 -1 -1 -1 -1 -1 -1 -1 -1 -1 -1 -1
 MicOpt= -1 -1 -1 -1 -1 -1 -1 -1 -1 -1 -1 -1 -1 -1 -1 -1 -1 -1 -1 -1
 MicOpt= -1 -1 -1 -1 -1 -1 -1 -1 -1 -1 -1 -1 -1 -1 -1 -1 -1 -1 -1 -1
 MicOpt= -1 -1 -1 -1 -1 -1 -1 -1 -1 -1 -1 -1 -1
 NAtoms=     73 NQM=       73 NQMF=       0 NMMI=      0 NMMIF=      0
                NMic=       0 NMicF=      0.
                    Isotopes and Nuclear Properties:
 (Nuclear quadrupole moments (NQMom) in fm**2, nuclear magnetic moments (NMagM)
  in nuclear magnetons)

  Atom         1           2           3           4           5           6           7           8           9          10
 IAtWgt=          12          12          12          12          12          12          12          12          12          12
 AtmWgt=  12.0000000  12.0000000  12.0000000  12.0000000  12.0000000  12.0000000  12.0000000  12.0000000  12.0000000  12.0000000
 NucSpn=           0           0           0           0           0           0           0           0           0           0
 AtZEff=  -0.0000000  -0.0000000  -0.0000000  -0.0000000  -0.0000000  -0.0000000  -0.0000000  -0.0000000  -0.0000000  -0.0000000
 NQMom=    0.0000000   0.0000000   0.0000000   0.0000000   0.0000000   0.0000000   0.0000000   0.0000000   0.0000000   0.0000000
 NMagM=    0.0000000   0.0000000   0.0000000   0.0000000   0.0000000   0.0000000   0.0000000   0.0000000   0.0000000   0.0000000
 AtZNuc=   6.0000000   6.0000000   6.0000000   6.0000000   6.0000000   6.0000000   6.0000000   6.0000000   6.0000000   6.0000000

  Atom        11          12          13          14          15          16          17          18          19          20
 IAtWgt=          12          12          12          12          12          12          12          12          12          12
 AtmWgt=  12.0000000  12.0000000  12.0000000  12.0000000  12.0000000  12.0000000  12.0000000  12.0000000  12.0000000  12.0000000
 NucSpn=           0           0           0           0           0           0           0           0           0           0
 AtZEff=  -0.0000000  -0.0000000  -0.0000000  -0.0000000  -0.0000000  -0.0000000  -0.0000000  -0.0000000  -0.0000000  -0.0000000
 NQMom=    0.0000000   0.0000000   0.0000000   0.0000000   0.0000000   0.0000000   0.0000000   0.0000000   0.0000000   0.0000000
 NMagM=    0.0000000   0.0000000   0.0000000   0.0000000   0.0000000   0.0000000   0.0000000   0.0000000   0.0000000   0.0000000
 AtZNuc=   6.0000000   6.0000000   6.0000000   6.0000000   6.0000000   6.0000000   6.0000000   6.0000000   6.0000000   6.0000000

  Atom        21          22          23          24          25          26          27          28          29          30
 IAtWgt=          12          12          12          12          12          12          12          12          12          12
 AtmWgt=  12.0000000  12.0000000  12.0000000  12.0000000  12.0000000  12.0000000  12.0000000  12.0000000  12.0000000  12.0000000
 NucSpn=           0           0           0           0           0           0           0           0           0           0
 AtZEff=  -0.0000000  -0.0000000  -0.0000000  -0.0000000  -0.0000000  -0.0000000  -0.0000000  -0.0000000  -0.0000000  -0.0000000
 NQMom=    0.0000000   0.0000000   0.0000000   0.0000000   0.0000000   0.0000000   0.0000000   0.0000000   0.0000000   0.0000000
 NMagM=    0.0000000   0.0000000   0.0000000   0.0000000   0.0000000   0.0000000   0.0000000   0.0000000   0.0000000   0.0000000
 AtZNuc=   6.0000000   6.0000000   6.0000000   6.0000000   6.0000000   6.0000000   6.0000000   6.0000000   6.0000000   6.0000000

  Atom        31          32          33          34          35          36          37          38          39          40
 IAtWgt=          12          12          12          12          12          12          12          12          12          12
 AtmWgt=  12.0000000  12.0000000  12.0000000  12.0000000  12.0000000  12.0000000  12.0000000  12.0000000  12.0000000  12.0000000
 NucSpn=           0           0           0           0           0           0           0           0           0           0
 AtZEff=  -0.0000000  -0.0000000  -0.0000000  -0.0000000  -0.0000000  -0.0000000  -0.0000000  -0.0000000  -0.0000000  -0.0000000
 NQMom=    0.0000000   0.0000000   0.0000000   0.0000000   0.0000000   0.0000000   0.0000000   0.0000000   0.0000000   0.0000000
 NMagM=    0.0000000   0.0000000   0.0000000   0.0000000   0.0000000   0.0000000   0.0000000   0.0000000   0.0000000   0.0000000
 AtZNuc=   6.0000000   6.0000000   6.0000000   6.0000000   6.0000000   6.0000000   6.0000000   6.0000000   6.0000000   6.0000000

  Atom        41          42          43          44          45          46          47          48          49          50
 IAtWgt=          12          12          12          12          12          12          12          12          12          12
 AtmWgt=  12.0000000  12.0000000  12.0000000  12.0000000  12.0000000  12.0000000  12.0000000  12.0000000  12.0000000  12.0000000
 NucSpn=           0           0           0           0           0           0           0           0           0           0
 AtZEff=  -0.0000000  -0.0000000  -0.0000000  -0.0000000  -0.0000000  -0.0000000  -0.0000000  -0.0000000  -0.0000000  -0.0000000
 NQMom=    0.0000000   0.0000000   0.0000000   0.0000000   0.0000000   0.0000000   0.0000000   0.0000000   0.0000000   0.0000000
 NMagM=    0.0000000   0.0000000   0.0000000   0.0000000   0.0000000   0.0000000   0.0000000   0.0000000   0.0000000   0.0000000
 AtZNuc=   6.0000000   6.0000000   6.0000000   6.0000000   6.0000000   6.0000000   6.0000000   6.0000000   6.0000000   6.0000000

  Atom        51          52          53          54          55          56          57          58          59          60
 IAtWgt=          12          12          12          12          12          12          12          12          12          12
 AtmWgt=  12.0000000  12.0000000  12.0000000  12.0000000  12.0000000  12.0000000  12.0000000  12.0000000  12.0000000  12.0000000
 NucSpn=           0           0           0           0           0           0           0           0           0           0
 AtZEff=  -0.0000000  -0.0000000  -0.0000000  -0.0000000  -0.0000000  -0.0000000  -0.0000000  -0.0000000  -0.0000000  -0.0000000
 NQMom=    0.0000000   0.0000000   0.0000000   0.0000000   0.0000000   0.0000000   0.0000000   0.0000000   0.0000000   0.0000000
 NMagM=    0.0000000   0.0000000   0.0000000   0.0000000   0.0000000   0.0000000   0.0000000   0.0000000   0.0000000   0.0000000
 AtZNuc=   6.0000000   6.0000000   6.0000000   6.0000000   6.0000000   6.0000000   6.0000000   6.0000000   6.0000000   6.0000000

  Atom        61          62          63          64          65          66          67          68          69          70
 IAtWgt=          12          12          12          12          12          12          35          35          35          35
 AtmWgt=  12.0000000  12.0000000  12.0000000  12.0000000  12.0000000  12.0000000  34.9688527  34.9688527  34.9688527  34.9688527
 NucSpn=           0           0           0           0           0           0           3           3           3           3
 AtZEff=  -0.0000000  -0.0000000  -0.0000000  -0.0000000  -0.0000000  -0.0000000  -0.0000000  -0.0000000  -0.0000000  -0.0000000
 NQMom=    0.0000000   0.0000000   0.0000000   0.0000000   0.0000000   0.0000000  -8.1650000  -8.1650000  -8.1650000  -8.1650000
 NMagM=    0.0000000   0.0000000   0.0000000   0.0000000   0.0000000   0.0000000   0.8218740   0.8218740   0.8218740   0.8218740
 AtZNuc=   6.0000000   6.0000000   6.0000000   6.0000000   6.0000000   6.0000000  17.0000000  17.0000000  17.0000000  17.0000000

  Atom        71          72          73
 IAtWgt=          35          35          35
 AtmWgt=  34.9688527  34.9688527  34.9688527
 NucSpn=           3           3           3
 AtZEff=  -0.0000000  -0.0000000  -0.0000000
 NQMom=   -8.1650000  -8.1650000  -8.1650000
 NMagM=    0.8218740   0.8218740   0.8218740
 AtZNuc=  17.0000000  17.0000000  17.0000000
 Leave Link  101 at Fri Jul 15 04:51:51 2022, MaxMem=  1342177280 cpu:              13.0 elap:               0.3
 (Enter /home/mkliu/g16/l103.exe)

 GradGradGradGradGradGradGradGradGradGradGradGradGradGradGradGradGradGrad
 Berny optimization.
 Initialization pass.
                           ----------------------------
                           !    Initial Parameters    !
                           ! (Angstroms and Degrees)  !
 --------------------------                            --------------------------
 ! Name  Definition              Value          Derivative Info.                !
 --------------------------------------------------------------------------------
 ! R1    R(1,2)                  1.5615         estimate D2E/DX2                !
 ! R2    R(1,4)                  1.5661         estimate D2E/DX2                !
 ! R3    R(1,7)                  1.4915         estimate D2E/DX2                !
 ! R4    R(1,67)                 1.7806         estimate D2E/DX2                !
 ! R5    R(2,3)                  1.5419         estimate D2E/DX2                !
 ! R6    R(2,10)                 1.4941         estimate D2E/DX2                !
 ! R7    R(2,68)                 1.7829         estimate D2E/DX2                !
 ! R8    R(3,5)                  1.4813         estimate D2E/DX2                !
 ! R9    R(3,12)                 1.5072         estimate D2E/DX2                !
 ! R10   R(3,69)                 1.7797         estimate D2E/DX2                !
 ! R11   R(4,5)                  1.4865         estimate D2E/DX2                !
 ! R12   R(4,6)                  1.5608         estimate D2E/DX2                !
 ! R13   R(4,71)                 1.7831         estimate D2E/DX2                !
 ! R14   R(5,15)                 1.3248         estimate D2E/DX2                !
 ! R15   R(6,8)                  1.4915         estimate D2E/DX2                !
 ! R16   R(6,17)                 1.5059         estimate D2E/DX2                !
 ! R17   R(6,72)                 1.8161         estimate D2E/DX2                !
 ! R18   R(7,8)                  1.3721         estimate D2E/DX2                !
 ! R19   R(7,9)                  1.4127         estimate D2E/DX2                !
 ! R20   R(8,20)                 1.4074         estimate D2E/DX2                !
 ! R21   R(9,11)                 1.4497         estimate D2E/DX2                !
 ! R22   R(9,22)                 1.3822         estimate D2E/DX2                !
 ! R23   R(10,11)                1.3897         estimate D2E/DX2                !
 ! R24   R(10,13)                1.4175         estimate D2E/DX2                !
 ! R25   R(11,25)                1.4197         estimate D2E/DX2                !
 ! R26   R(12,13)                1.402          estimate D2E/DX2                !
 ! R27   R(12,14)                1.3876         estimate D2E/DX2                !
 ! R28   R(13,27)                1.4            estimate D2E/DX2                !
 ! R29   R(14,16)                1.5211         estimate D2E/DX2                !
 ! R30   R(14,29)                1.417          estimate D2E/DX2                !
 ! R31   R(15,16)                1.5115         estimate D2E/DX2                !
 ! R32   R(15,18)                1.4606         estimate D2E/DX2                !
 ! R33   R(16,32)                1.496          estimate D2E/DX2                !
 ! R34   R(16,70)                1.796          estimate D2E/DX2                !
 ! R35   R(17,18)                1.3779         estimate D2E/DX2                !
 ! R36   R(17,19)                1.4486         estimate D2E/DX2                !
 ! R37   R(18,33)                1.4134         estimate D2E/DX2                !
 ! R38   R(19,21)                1.4512         estimate D2E/DX2                !
 ! R39   R(19,35)                1.3996         estimate D2E/DX2                !
 ! R40   R(20,21)                1.4517         estimate D2E/DX2                !
 ! R41   R(20,23)                1.3941         estimate D2E/DX2                !
 ! R42   R(21,38)                1.4005         estimate D2E/DX2                !
 ! R43   R(22,23)                1.4258         estimate D2E/DX2                !
 ! R44   R(22,24)                1.4399         estimate D2E/DX2                !
 ! R45   R(23,40)                1.4265         estimate D2E/DX2                !
 ! R46   R(24,26)                1.3758         estimate D2E/DX2                !
 ! R47   R(24,41)                1.439          estimate D2E/DX2                !
 ! R48   R(25,26)                1.4301         estimate D2E/DX2                !
 ! R49   R(25,28)                1.4211         estimate D2E/DX2                !
 ! R50   R(26,44)                1.4471         estimate D2E/DX2                !
 ! R51   R(27,28)                1.4011         estimate D2E/DX2                !
 ! R52   R(27,30)                1.4389         estimate D2E/DX2                !
 ! R53   R(28,45)                1.4284         estimate D2E/DX2                !
 ! R54   R(29,30)                1.4216         estimate D2E/DX2                !
 ! R55   R(29,31)                1.5194         estimate D2E/DX2                !
 ! R56   R(30,47)                1.431          estimate D2E/DX2                !
 ! R57   R(31,34)                1.5098         estimate D2E/DX2                !
 ! R58   R(31,49)                1.5008         estimate D2E/DX2                !
 ! R59   R(31,73)                1.8215         estimate D2E/DX2                !
 ! R60   R(32,33)                1.4379         estimate D2E/DX2                !
 ! R61   R(32,34)                1.3509         estimate D2E/DX2                !
 ! R62   R(33,36)                1.3749         estimate D2E/DX2                !
 ! R63   R(34,51)                1.4337         estimate D2E/DX2                !
 ! R64   R(35,36)                1.432          estimate D2E/DX2                !
 ! R65   R(35,37)                1.4314         estimate D2E/DX2                !
 ! R66   R(36,52)                1.4273         estimate D2E/DX2                !
 ! R67   R(37,39)                1.3705         estimate D2E/DX2                !
 ! R68   R(37,53)                1.4446         estimate D2E/DX2                !
 ! R69   R(38,39)                1.4328         estimate D2E/DX2                !
 ! R70   R(38,42)                1.44           estimate D2E/DX2                !
 ! R71   R(39,57)                1.4414         estimate D2E/DX2                !
 ! R72   R(40,41)                1.4373         estimate D2E/DX2                !
 ! R73   R(40,42)                1.3757         estimate D2E/DX2                !
 ! R74   R(41,43)                1.3813         estimate D2E/DX2                !
 ! R75   R(42,58)                1.4364         estimate D2E/DX2                !
 ! R76   R(43,46)                1.4404         estimate D2E/DX2                !
 ! R77   R(43,59)                1.4375         estimate D2E/DX2                !
 ! R78   R(44,45)                1.4321         estimate D2E/DX2                !
 ! R79   R(44,46)                1.3797         estimate D2E/DX2                !
 ! R80   R(45,48)                1.3886         estimate D2E/DX2                !
 ! R81   R(46,61)                1.4424         estimate D2E/DX2                !
 ! R82   R(47,48)                1.4192         estimate D2E/DX2                !
 ! R83   R(47,50)                1.4439         estimate D2E/DX2                !
 ! R84   R(48,62)                1.4433         estimate D2E/DX2                !
 ! R85   R(49,50)                1.3692         estimate D2E/DX2                !
 ! R86   R(49,54)                1.4221         estimate D2E/DX2                !
 ! R87   R(50,63)                1.4399         estimate D2E/DX2                !
 ! R88   R(51,52)                1.3838         estimate D2E/DX2                !
 ! R89   R(51,54)                1.4293         estimate D2E/DX2                !
 ! R90   R(52,53)                1.4307         estimate D2E/DX2                !
 ! R91   R(53,55)                1.3808         estimate D2E/DX2                !
 ! R92   R(54,56)                1.3944         estimate D2E/DX2                !
 ! R93   R(55,56)                1.4345         estimate D2E/DX2                !
 ! R94   R(55,60)                1.4418         estimate D2E/DX2                !
 ! R95   R(56,64)                1.4271         estimate D2E/DX2                !
 ! R96   R(57,58)                1.4301         estimate D2E/DX2                !
 ! R97   R(57,60)                1.3826         estimate D2E/DX2                !
 ! R98   R(58,59)                1.3898         estimate D2E/DX2                !
 ! R99   R(59,65)                1.4381         estimate D2E/DX2                !
 ! R100  R(60,66)                1.4353         estimate D2E/DX2                !
 ! R101  R(61,62)                1.3843         estimate D2E/DX2                !
 ! R102  R(61,65)                1.4428         estimate D2E/DX2                !
 ! R103  R(62,63)                1.4349         estimate D2E/DX2                !
 ! R104  R(63,64)                1.3801         estimate D2E/DX2                !
 ! R105  R(64,66)                1.4407         estimate D2E/DX2                !
 ! R106  R(65,66)                1.3843         estimate D2E/DX2                !
 ! A1    A(2,1,4)              107.1894         estimate D2E/DX2                !
 ! A2    A(2,1,7)              112.5398         estimate D2E/DX2                !
 ! A3    A(2,1,67)             113.4536         estimate D2E/DX2                !
 ! A4    A(4,1,7)              103.5621         estimate D2E/DX2                !
 ! A5    A(4,1,67)             112.5683         estimate D2E/DX2                !
 ! A6    A(7,1,67)             107.1602         estimate D2E/DX2                !
 ! A7    A(1,2,3)              107.721          estimate D2E/DX2                !
 ! A8    A(1,2,10)             111.9964         estimate D2E/DX2                !
 ! A9    A(1,2,68)             112.3715         estimate D2E/DX2                !
 ! A10   A(3,2,10)             102.878          estimate D2E/DX2                !
 ! A11   A(3,2,68)             113.5907         estimate D2E/DX2                !
 ! A12   A(10,2,68)            107.9496         estimate D2E/DX2                !
 ! A13   A(2,3,5)              103.5772         estimate D2E/DX2                !
 ! A14   A(2,3,12)             106.2297         estimate D2E/DX2                !
 ! A15   A(2,3,69)             116.6926         estimate D2E/DX2                !
 ! A16   A(5,3,12)             105.7923         estimate D2E/DX2                !
 ! A17   A(5,3,69)             111.001          estimate D2E/DX2                !
 ! A18   A(12,3,69)            112.6264         estimate D2E/DX2                !
 ! A19   A(1,4,5)              102.3936         estimate D2E/DX2                !
 ! A20   A(1,4,6)              106.266          estimate D2E/DX2                !
 ! A21   A(1,4,71)             113.1806         estimate D2E/DX2                !
 ! A22   A(5,4,6)              113.0662         estimate D2E/DX2                !
 ! A23   A(5,4,71)             107.7674         estimate D2E/DX2                !
 ! A24   A(6,4,71)             113.6883         estimate D2E/DX2                !
 ! A25   A(3,5,4)              114.416          estimate D2E/DX2                !
 ! A26   A(3,5,15)             119.98           estimate D2E/DX2                !
 ! A27   A(4,5,15)             124.1893         estimate D2E/DX2                !
 ! A28   A(4,6,8)              103.889          estimate D2E/DX2                !
 ! A29   A(4,6,17)             115.1418         estimate D2E/DX2                !
 ! A30   A(4,6,72)             112.0642         estimate D2E/DX2                !
 ! A31   A(8,6,17)             109.2111         estimate D2E/DX2                !
 ! A32   A(8,6,72)             108.5224         estimate D2E/DX2                !
 ! A33   A(17,6,72)            107.7901         estimate D2E/DX2                !
 ! A34   A(1,7,8)              111.7934         estimate D2E/DX2                !
 ! A35   A(1,7,9)              124.9023         estimate D2E/DX2                !
 ! A36   A(8,7,9)              119.9116         estimate D2E/DX2                !
 ! A37   A(6,8,7)              112.4226         estimate D2E/DX2                !
 ! A38   A(6,8,20)             121.5925         estimate D2E/DX2                !
 ! A39   A(7,8,20)             123.3001         estimate D2E/DX2                !
 ! A40   A(7,9,11)             115.7492         estimate D2E/DX2                !
 ! A41   A(7,9,22)             116.0305         estimate D2E/DX2                !
 ! A42   A(11,9,22)            118.5982         estimate D2E/DX2                !
 ! A43   A(2,10,11)            126.0503         estimate D2E/DX2                !
 ! A44   A(2,10,13)            111.059          estimate D2E/DX2                !
 ! A45   A(11,10,13)           117.1178         estimate D2E/DX2                !
 ! A46   A(9,11,10)            116.9387         estimate D2E/DX2                !
 ! A47   A(9,11,25)            117.3193         estimate D2E/DX2                !
 ! A48   A(10,11,25)           116.4965         estimate D2E/DX2                !
 ! A49   A(3,12,13)            108.9009         estimate D2E/DX2                !
 ! A50   A(3,12,14)            125.0804         estimate D2E/DX2                !
 ! A51   A(13,12,14)           119.3238         estimate D2E/DX2                !
 ! A52   A(10,13,12)           109.1304         estimate D2E/DX2                !
 ! A53   A(10,13,27)           125.1205         estimate D2E/DX2                !
 ! A54   A(12,13,27)           120.0912         estimate D2E/DX2                !
 ! A55   A(12,14,16)           116.3552         estimate D2E/DX2                !
 ! A56   A(12,14,29)           120.1644         estimate D2E/DX2                !
 ! A57   A(16,14,29)           121.6972         estimate D2E/DX2                !
 ! A58   A(5,15,16)            124.9747         estimate D2E/DX2                !
 ! A59   A(5,15,18)            118.3108         estimate D2E/DX2                !
 ! A60   A(16,15,18)           111.1307         estimate D2E/DX2                !
 ! A61   A(14,16,15)           105.9121         estimate D2E/DX2                !
 ! A62   A(14,16,32)           110.4677         estimate D2E/DX2                !
 ! A63   A(14,16,70)           109.6298         estimate D2E/DX2                !
 ! A64   A(15,16,32)           101.2387         estimate D2E/DX2                !
 ! A65   A(15,16,70)           116.5389         estimate D2E/DX2                !
 ! A66   A(32,16,70)           112.6064         estimate D2E/DX2                !
 ! A67   A(6,17,18)            120.2387         estimate D2E/DX2                !
 ! A68   A(6,17,19)            118.6988         estimate D2E/DX2                !
 ! A69   A(18,17,19)           118.6002         estimate D2E/DX2                !
 ! A70   A(15,18,17)           121.3227         estimate D2E/DX2                !
 ! A71   A(15,18,33)           106.5155         estimate D2E/DX2                !
 ! A72   A(17,18,33)           123.6159         estimate D2E/DX2                !
 ! A73   A(17,19,21)           119.2762         estimate D2E/DX2                !
 ! A74   A(17,19,35)           116.6971         estimate D2E/DX2                !
 ! A75   A(21,19,35)           117.926          estimate D2E/DX2                !
 ! A76   A(8,20,21)            119.653          estimate D2E/DX2                !
 ! A77   A(8,20,23)            115.0991         estimate D2E/DX2                !
 ! A78   A(21,20,23)           120.3343         estimate D2E/DX2                !
 ! A79   A(19,21,20)           118.5349         estimate D2E/DX2                !
 ! A80   A(19,21,38)           118.7545         estimate D2E/DX2                !
 ! A81   A(20,21,38)           116.2835         estimate D2E/DX2                !
 ! A82   A(9,22,23)            121.6308         estimate D2E/DX2                !
 ! A83   A(9,22,24)            122.5306         estimate D2E/DX2                !
 ! A84   A(23,22,24)           107.3795         estimate D2E/DX2                !
 ! A85   A(20,23,22)           120.2143         estimate D2E/DX2                !
 ! A86   A(20,23,40)           122.0364         estimate D2E/DX2                !
 ! A87   A(22,23,40)           108.0094         estimate D2E/DX2                !
 ! A88   A(22,24,26)           118.812          estimate D2E/DX2                !
 ! A89   A(22,24,41)           108.9106         estimate D2E/DX2                !
 ! A90   A(26,24,41)           120.4223         estimate D2E/DX2                !
 ! A91   A(11,25,26)           122.0286         estimate D2E/DX2                !
 ! A92   A(11,25,28)           121.6349         estimate D2E/DX2                !
 ! A93   A(26,25,28)           107.2597         estimate D2E/DX2                !
 ! A94   A(24,26,25)           119.0088         estimate D2E/DX2                !
 ! A95   A(24,26,44)           119.3591         estimate D2E/DX2                !
 ! A96   A(25,26,44)           108.8416         estimate D2E/DX2                !
 ! A97   A(13,27,28)           114.3589         estimate D2E/DX2                !
 ! A98   A(13,27,30)           120.5483         estimate D2E/DX2                !
 ! A99   A(28,27,30)           120.9082         estimate D2E/DX2                !
 ! A100  A(25,28,27)           119.9669         estimate D2E/DX2                !
 ! A101  A(25,28,45)           108.6433         estimate D2E/DX2                !
 ! A102  A(27,28,45)           121.0319         estimate D2E/DX2                !
 ! A103  A(14,29,30)           120.1998         estimate D2E/DX2                !
 ! A104  A(14,29,31)           119.1836         estimate D2E/DX2                !
 ! A105  A(30,29,31)           119.1254         estimate D2E/DX2                !
 ! A106  A(27,30,29)           117.4344         estimate D2E/DX2                !
 ! A107  A(27,30,47)           116.8476         estimate D2E/DX2                !
 ! A108  A(29,30,47)           120.8596         estimate D2E/DX2                !
 ! A109  A(29,31,34)           110.3196         estimate D2E/DX2                !
 ! A110  A(29,31,49)           113.4038         estimate D2E/DX2                !
 ! A111  A(29,31,73)           106.0929         estimate D2E/DX2                !
 ! A112  A(34,31,49)           100.574          estimate D2E/DX2                !
 ! A113  A(34,31,73)           112.3848         estimate D2E/DX2                !
 ! A114  A(49,31,73)           114.1669         estimate D2E/DX2                !
 ! A115  A(16,32,33)           110.5408         estimate D2E/DX2                !
 ! A116  A(16,32,34)           122.2651         estimate D2E/DX2                !
 ! A117  A(33,32,34)           118.6968         estimate D2E/DX2                !
 ! A118  A(18,33,32)           109.743          estimate D2E/DX2                !
 ! A119  A(18,33,36)           118.0121         estimate D2E/DX2                !
 ! A120  A(32,33,36)           121.6977         estimate D2E/DX2                !
 ! A121  A(31,34,32)           122.5857         estimate D2E/DX2                !
 ! A122  A(31,34,51)           110.9153         estimate D2E/DX2                !
 ! A123  A(32,34,51)           119.7627         estimate D2E/DX2                !
 ! A124  A(19,35,36)           122.2121         estimate D2E/DX2                !
 ! A125  A(19,35,37)           122.1908         estimate D2E/DX2                !
 ! A126  A(36,35,37)           106.5171         estimate D2E/DX2                !
 ! A127  A(33,36,35)           119.5275         estimate D2E/DX2                !
 ! A128  A(33,36,52)           119.1052         estimate D2E/DX2                !
 ! A129  A(35,36,52)           109.4919         estimate D2E/DX2                !
 ! A130  A(35,37,39)           119.8483         estimate D2E/DX2                !
 ! A131  A(35,37,53)           108.532          estimate D2E/DX2                !
 ! A132  A(39,37,53)           120.2196         estimate D2E/DX2                !
 ! A133  A(21,38,39)           121.9897         estimate D2E/DX2                !
 ! A134  A(21,38,42)           122.3907         estimate D2E/DX2                !
 ! A135  A(39,38,42)           106.5079         estimate D2E/DX2                !
 ! A136  A(37,39,38)           119.1744         estimate D2E/DX2                !
 ! A137  A(37,39,57)           120.279          estimate D2E/DX2                !
 ! A138  A(38,39,57)           108.9906         estimate D2E/DX2                !
 ! A139  A(23,40,41)           109.2643         estimate D2E/DX2                !
 ! A140  A(23,40,42)           118.3114         estimate D2E/DX2                !
 ! A141  A(41,40,42)           120.9504         estimate D2E/DX2                !
 ! A142  A(24,41,40)           106.1831         estimate D2E/DX2                !
 ! A143  A(24,41,43)           120.2199         estimate D2E/DX2                !
 ! A144  A(40,41,43)           119.4783         estimate D2E/DX2                !
 ! A145  A(38,42,40)           120.3398         estimate D2E/DX2                !
 ! A146  A(38,42,58)           108.9702         estimate D2E/DX2                !
 ! A147  A(40,42,58)           119.6477         estimate D2E/DX2                !
 ! A148  A(41,43,46)           119.6358         estimate D2E/DX2                !
 ! A149  A(41,43,59)           119.7756         estimate D2E/DX2                !
 ! A150  A(46,43,59)           108.0985         estimate D2E/DX2                !
 ! A151  A(26,44,45)           106.4028         estimate D2E/DX2                !
 ! A152  A(26,44,46)           120.2979         estimate D2E/DX2                !
 ! A153  A(45,44,46)           119.4821         estimate D2E/DX2                !
 ! A154  A(28,45,44)           108.568          estimate D2E/DX2                !
 ! A155  A(28,45,48)           118.5081         estimate D2E/DX2                !
 ! A156  A(44,45,48)           121.4711         estimate D2E/DX2                !
 ! A157  A(43,46,44)           120.0371         estimate D2E/DX2                !
 ! A158  A(43,46,61)           108.0005         estimate D2E/DX2                !
 ! A159  A(44,46,61)           119.6208         estimate D2E/DX2                !
 ! A160  A(30,47,48)           120.7876         estimate D2E/DX2                !
 ! A161  A(30,47,50)           120.0266         estimate D2E/DX2                !
 ! A162  A(48,47,50)           108.118          estimate D2E/DX2                !
 ! A163  A(45,48,47)           121.3971         estimate D2E/DX2                !
 ! A164  A(45,48,62)           118.8008         estimate D2E/DX2                !
 ! A165  A(47,48,62)           108.6535         estimate D2E/DX2                !
 ! A166  A(31,49,50)           121.9594         estimate D2E/DX2                !
 ! A167  A(31,49,54)           111.8852         estimate D2E/DX2                !
 ! A168  A(50,49,54)           118.3423         estimate D2E/DX2                !
 ! A169  A(47,50,49)           120.2294         estimate D2E/DX2                !
 ! A170  A(47,50,63)           107.2738         estimate D2E/DX2                !
 ! A171  A(49,50,63)           120.9568         estimate D2E/DX2                !
 ! A172  A(34,51,52)           121.3046         estimate D2E/DX2                !
 ! A173  A(34,51,54)           108.2801         estimate D2E/DX2                !
 ! A174  A(52,51,54)           119.5314         estimate D2E/DX2                !
 ! A175  A(36,52,51)           118.4969         estimate D2E/DX2                !
 ! A176  A(36,52,53)           107.2384         estimate D2E/DX2                !
 ! A177  A(51,52,53)           121.0178         estimate D2E/DX2                !
 ! A178  A(37,53,52)           107.7128         estimate D2E/DX2                !
 ! A179  A(37,53,55)           119.7189         estimate D2E/DX2                !
 ! A180  A(52,53,55)           119.6472         estimate D2E/DX2                !
 ! A181  A(49,54,51)           107.8485         estimate D2E/DX2                !
 ! A182  A(49,54,56)           121.434          estimate D2E/DX2                !
 ! A183  A(51,54,56)           119.4488         estimate D2E/DX2                !
 ! A184  A(53,55,56)           119.572          estimate D2E/DX2                !
 ! A185  A(53,55,60)           119.7488         estimate D2E/DX2                !
 ! A186  A(56,55,60)           108.596          estimate D2E/DX2                !
 ! A187  A(54,56,55)           120.5992         estimate D2E/DX2                !
 ! A188  A(54,56,64)           119.808          estimate D2E/DX2                !
 ! A189  A(55,56,64)           107.5937         estimate D2E/DX2                !
 ! A190  A(39,57,58)           107.6005         estimate D2E/DX2                !
 ! A191  A(39,57,60)           119.4767         estimate D2E/DX2                !
 ! A192  A(58,57,60)           120.0187         estimate D2E/DX2                !
 ! A193  A(42,58,57)           107.6692         estimate D2E/DX2                !
 ! A194  A(42,58,59)           119.5163         estimate D2E/DX2                !
 ! A195  A(57,58,59)           120.1907         estimate D2E/DX2                !
 ! A196  A(43,59,58)           120.3541         estimate D2E/DX2                !
 ! A197  A(43,59,65)           107.9846         estimate D2E/DX2                !
 ! A198  A(58,59,65)           119.758          estimate D2E/DX2                !
 ! A199  A(55,60,57)           120.2898         estimate D2E/DX2                !
 ! A200  A(55,60,66)           107.3425         estimate D2E/DX2                !
 ! A201  A(57,60,66)           119.959          estimate D2E/DX2                !
 ! A202  A(46,61,62)           120.746          estimate D2E/DX2                !
 ! A203  A(46,61,65)           107.6837         estimate D2E/DX2                !
 ! A204  A(62,61,65)           119.7128         estimate D2E/DX2                !
 ! A205  A(48,62,61)           119.654          estimate D2E/DX2                !
 ! A206  A(48,62,63)           107.1961         estimate D2E/DX2                !
 ! A207  A(61,62,63)           120.6362         estimate D2E/DX2                !
 ! A208  A(50,63,62)           108.4779         estimate D2E/DX2                !
 ! A209  A(50,63,64)           120.4931         estimate D2E/DX2                !
 ! A210  A(62,63,64)           119.424          estimate D2E/DX2                !
 ! A211  A(56,64,63)           118.8299         estimate D2E/DX2                !
 ! A212  A(56,64,66)           108.4947         estimate D2E/DX2                !
 ! A213  A(63,64,66)           120.492          estimate D2E/DX2                !
 ! A214  A(59,65,61)           108.1383         estimate D2E/DX2                !
 ! A215  A(59,65,66)           119.7496         estimate D2E/DX2                !
 ! A216  A(61,65,66)           119.7775         estimate D2E/DX2                !
 ! A217  A(60,66,64)           107.9322         estimate D2E/DX2                !
 ! A218  A(60,66,65)           120.2376         estimate D2E/DX2                !
 ! A219  A(64,66,65)           119.8701         estimate D2E/DX2                !
 ! D1    D(4,1,2,3)             -2.7524         estimate D2E/DX2                !
 ! D2    D(4,1,2,10)          -115.1745         estimate D2E/DX2                !
 ! D3    D(4,1,2,68)           123.1108         estimate D2E/DX2                !
 ! D4    D(7,1,2,3)            110.4608         estimate D2E/DX2                !
 ! D5    D(7,1,2,10)            -1.9614         estimate D2E/DX2                !
 ! D6    D(7,1,2,68)          -123.676          estimate D2E/DX2                !
 ! D7    D(67,1,2,3)          -127.6504         estimate D2E/DX2                !
 ! D8    D(67,1,2,10)          119.9275         estimate D2E/DX2                !
 ! D9    D(67,1,2,68)           -1.7872         estimate D2E/DX2                !
 ! D10   D(2,1,4,5)             14.3649         estimate D2E/DX2                !
 ! D11   D(2,1,4,6)            133.1801         estimate D2E/DX2                !
 ! D12   D(2,1,4,71)          -101.3547         estimate D2E/DX2                !
 ! D13   D(7,1,4,5)           -104.8036         estimate D2E/DX2                !
 ! D14   D(7,1,4,6)             14.0116         estimate D2E/DX2                !
 ! D15   D(7,1,4,71)           139.4768         estimate D2E/DX2                !
 ! D16   D(67,1,4,5)           139.7966         estimate D2E/DX2                !
 ! D17   D(67,1,4,6)          -101.3882         estimate D2E/DX2                !
 ! D18   D(67,1,4,71)           24.077          estimate D2E/DX2                !
 ! D19   D(2,1,7,8)           -128.9952         estimate D2E/DX2                !
 ! D20   D(2,1,7,9)             30.0381         estimate D2E/DX2                !
 ! D21   D(4,1,7,8)            -13.5742         estimate D2E/DX2                !
 ! D22   D(4,1,7,9)            145.4591         estimate D2E/DX2                !
 ! D23   D(67,1,7,8)           105.6136         estimate D2E/DX2                !
 ! D24   D(67,1,7,9)           -95.3531         estimate D2E/DX2                !
 ! D25   D(1,2,3,5)            -10.1343         estimate D2E/DX2                !
 ! D26   D(1,2,3,12)          -121.3509         estimate D2E/DX2                !
 ! D27   D(1,2,3,69)           112.1479         estimate D2E/DX2                !
 ! D28   D(10,2,3,5)           108.3168         estimate D2E/DX2                !
 ! D29   D(10,2,3,12)           -2.8998         estimate D2E/DX2                !
 ! D30   D(10,2,3,69)         -129.401          estimate D2E/DX2                !
 ! D31   D(68,2,3,5)          -135.2726         estimate D2E/DX2                !
 ! D32   D(68,2,3,12)          113.5108         estimate D2E/DX2                !
 ! D33   D(68,2,3,69)          -12.9904         estimate D2E/DX2                !
 ! D34   D(1,2,10,11)          -26.4151         estimate D2E/DX2                !
 ! D35   D(1,2,10,13)          125.7632         estimate D2E/DX2                !
 ! D36   D(3,2,10,11)         -141.8258         estimate D2E/DX2                !
 ! D37   D(3,2,10,13)           10.3525         estimate D2E/DX2                !
 ! D38   D(68,2,10,11)          97.8036         estimate D2E/DX2                !
 ! D39   D(68,2,10,13)        -110.0182         estimate D2E/DX2                !
 ! D40   D(2,3,5,4)             21.2259         estimate D2E/DX2                !
 ! D41   D(2,3,5,15)          -145.7626         estimate D2E/DX2                !
 ! D42   D(12,3,5,4)           132.7632         estimate D2E/DX2                !
 ! D43   D(12,3,5,15)          -34.2253         estimate D2E/DX2                !
 ! D44   D(69,3,5,4)          -104.7686         estimate D2E/DX2                !
 ! D45   D(69,3,5,15)           88.2429         estimate D2E/DX2                !
 ! D46   D(2,3,12,13)           -5.361          estimate D2E/DX2                !
 ! D47   D(2,3,12,14)          145.4516         estimate D2E/DX2                !
 ! D48   D(5,3,12,13)         -115.0197         estimate D2E/DX2                !
 ! D49   D(5,3,12,14)           35.7929         estimate D2E/DX2                !
 ! D50   D(69,3,12,13)         123.5554         estimate D2E/DX2                !
 ! D51   D(69,3,12,14)         -85.632          estimate D2E/DX2                !
 ! D52   D(1,4,5,3)            -22.7035         estimate D2E/DX2                !
 ! D53   D(1,4,5,15)           143.6597         estimate D2E/DX2                !
 ! D54   D(6,4,5,3)           -136.612          estimate D2E/DX2                !
 ! D55   D(6,4,5,15)            29.7512         estimate D2E/DX2                !
 ! D56   D(71,4,5,3)            96.8755         estimate D2E/DX2                !
 ! D57   D(71,4,5,15)          -96.7613         estimate D2E/DX2                !
 ! D58   D(1,4,6,8)             -9.9885         estimate D2E/DX2                !
 ! D59   D(1,4,6,17)          -129.361          estimate D2E/DX2                !
 ! D60   D(1,4,6,72)           106.969          estimate D2E/DX2                !
 ! D61   D(5,4,6,8)            101.5578         estimate D2E/DX2                !
 ! D62   D(5,4,6,17)           -17.8147         estimate D2E/DX2                !
 ! D63   D(5,4,6,72)          -141.4847         estimate D2E/DX2                !
 ! D64   D(71,4,6,8)          -135.143          estimate D2E/DX2                !
 ! D65   D(71,4,6,17)          105.4846         estimate D2E/DX2                !
 ! D66   D(71,4,6,72)          -18.1854         estimate D2E/DX2                !
 ! D67   D(3,5,15,16)           -1.3564         estimate D2E/DX2                !
 ! D68   D(3,5,15,18)          149.8738         estimate D2E/DX2                !
 ! D69   D(4,5,15,16)         -167.0065         estimate D2E/DX2                !
 ! D70   D(4,5,15,18)          -15.7763         estimate D2E/DX2                !
 ! D71   D(4,6,8,7)              1.8806         estimate D2E/DX2                !
 ! D72   D(4,6,8,20)          -160.1173         estimate D2E/DX2                !
 ! D73   D(17,6,8,7)           125.2221         estimate D2E/DX2                !
 ! D74   D(17,6,8,20)          -36.7758         estimate D2E/DX2                !
 ! D75   D(72,6,8,7)          -117.5219         estimate D2E/DX2                !
 ! D76   D(72,6,8,20)           80.4802         estimate D2E/DX2                !
 ! D77   D(4,6,17,18)           -5.3854         estimate D2E/DX2                !
 ! D78   D(4,6,17,19)          156.5686         estimate D2E/DX2                !
 ! D79   D(8,6,17,18)         -121.7664         estimate D2E/DX2                !
 ! D80   D(8,6,17,19)           40.1875         estimate D2E/DX2                !
 ! D81   D(72,6,17,18)         120.516          estimate D2E/DX2                !
 ! D82   D(72,6,17,19)         -77.5301         estimate D2E/DX2                !
 ! D83   D(1,7,8,6)              7.688          estimate D2E/DX2                !
 ! D84   D(1,7,8,20)           169.3293         estimate D2E/DX2                !
 ! D85   D(9,7,8,6)           -152.5228         estimate D2E/DX2                !
 ! D86   D(9,7,8,20)             9.1185         estimate D2E/DX2                !
 ! D87   D(1,7,9,11)           -30.5597         estimate D2E/DX2                !
 ! D88   D(1,7,9,22)          -176.3505         estimate D2E/DX2                !
 ! D89   D(8,7,9,11)           126.9014         estimate D2E/DX2                !
 ! D90   D(8,7,9,22)           -18.8894         estimate D2E/DX2                !
 ! D91   D(6,8,20,21)           13.6919         estimate D2E/DX2                !
 ! D92   D(6,8,20,23)          168.9799         estimate D2E/DX2                !
 ! D93   D(7,8,20,21)         -146.321          estimate D2E/DX2                !
 ! D94   D(7,8,20,23)            8.967          estimate D2E/DX2                !
 ! D95   D(7,9,11,10)            1.1007         estimate D2E/DX2                !
 ! D96   D(7,9,11,25)         -144.5669         estimate D2E/DX2                !
 ! D97   D(22,9,11,10)         145.9742         estimate D2E/DX2                !
 ! D98   D(22,9,11,25)           0.3066         estimate D2E/DX2                !
 ! D99   D(7,9,22,23)           11.1088         estimate D2E/DX2                !
 ! D100  D(7,9,22,24)          155.1033         estimate D2E/DX2                !
 ! D101  D(11,9,22,23)        -133.6685         estimate D2E/DX2                !
 ! D102  D(11,9,22,24)          10.3261         estimate D2E/DX2                !
 ! D103  D(2,10,11,9)           27.8871         estimate D2E/DX2                !
 ! D104  D(2,10,11,25)         173.8384         estimate D2E/DX2                !
 ! D105  D(13,10,11,9)        -122.8155         estimate D2E/DX2                !
 ! D106  D(13,10,11,25)         23.1358         estimate D2E/DX2                !
 ! D107  D(2,10,13,12)         -14.4157         estimate D2E/DX2                !
 ! D108  D(2,10,13,27)        -167.6402         estimate D2E/DX2                !
 ! D109  D(11,10,13,12)        140.5001         estimate D2E/DX2                !
 ! D110  D(11,10,13,27)        -12.7244         estimate D2E/DX2                !
 ! D111  D(9,11,25,26)         -11.0272         estimate D2E/DX2                !
 ! D112  D(9,11,25,28)         131.7633         estimate D2E/DX2                !
 ! D113  D(10,11,25,26)       -156.8463         estimate D2E/DX2                !
 ! D114  D(10,11,25,28)        -14.0559         estimate D2E/DX2                !
 ! D115  D(3,12,13,10)          12.0483         estimate D2E/DX2                !
 ! D116  D(3,12,13,27)         166.8422         estimate D2E/DX2                !
 ! D117  D(14,12,13,10)       -140.7108         estimate D2E/DX2                !
 ! D118  D(14,12,13,27)         14.0831         estimate D2E/DX2                !
 ! D119  D(3,12,14,16)          -0.2927         estimate D2E/DX2                !
 ! D120  D(3,12,14,29)        -165.343          estimate D2E/DX2                !
 ! D121  D(13,12,14,16)        147.7573         estimate D2E/DX2                !
 ! D122  D(13,12,14,29)        -17.293          estimate D2E/DX2                !
 ! D123  D(10,13,27,28)         -8.3345         estimate D2E/DX2                !
 ! D124  D(10,13,27,30)        148.8774         estimate D2E/DX2                !
 ! D125  D(12,13,27,28)       -158.8681         estimate D2E/DX2                !
 ! D126  D(12,13,27,30)         -1.6562         estimate D2E/DX2                !
 ! D127  D(12,14,16,15)        -34.4411         estimate D2E/DX2                !
 ! D128  D(12,14,16,32)       -143.2689         estimate D2E/DX2                !
 ! D129  D(12,14,16,70)         92.0686         estimate D2E/DX2                !
 ! D130  D(29,14,16,15)        130.3618         estimate D2E/DX2                !
 ! D131  D(29,14,16,32)         21.534          estimate D2E/DX2                !
 ! D132  D(29,14,16,70)       -103.1285         estimate D2E/DX2                !
 ! D133  D(12,14,29,30)          8.0645         estimate D2E/DX2                !
 ! D134  D(12,14,29,31)        174.0158         estimate D2E/DX2                !
 ! D135  D(16,14,29,30)       -156.1711         estimate D2E/DX2                !
 ! D136  D(16,14,29,31)          9.7802         estimate D2E/DX2                !
 ! D137  D(5,15,16,14)          37.6013         estimate D2E/DX2                !
 ! D138  D(5,15,16,32)         152.902          estimate D2E/DX2                !
 ! D139  D(5,15,16,70)         -84.5971         estimate D2E/DX2                !
 ! D140  D(18,15,16,14)       -115.3808         estimate D2E/DX2                !
 ! D141  D(18,15,16,32)         -0.0801         estimate D2E/DX2                !
 ! D142  D(18,15,16,70)        122.4208         estimate D2E/DX2                !
 ! D143  D(5,15,18,17)         -11.4643         estimate D2E/DX2                !
 ! D144  D(5,15,18,33)        -160.3799         estimate D2E/DX2                !
 ! D145  D(16,15,18,17)        143.524          estimate D2E/DX2                !
 ! D146  D(16,15,18,33)         -5.3915         estimate D2E/DX2                !
 ! D147  D(14,16,32,33)        117.4306         estimate D2E/DX2                !
 ! D148  D(14,16,32,34)        -30.0242         estimate D2E/DX2                !
 ! D149  D(15,16,32,33)          5.5592         estimate D2E/DX2                !
 ! D150  D(15,16,32,34)       -141.8956         estimate D2E/DX2                !
 ! D151  D(70,16,32,33)       -119.6241         estimate D2E/DX2                !
 ! D152  D(70,16,32,34)         92.9211         estimate D2E/DX2                !
 ! D153  D(6,17,18,15)          21.3629         estimate D2E/DX2                !
 ! D154  D(6,17,18,33)         164.8928         estimate D2E/DX2                !
 ! D155  D(19,17,18,15)       -140.6086         estimate D2E/DX2                !
 ! D156  D(19,17,18,33)          2.9213         estimate D2E/DX2                !
 ! D157  D(6,17,19,21)         -21.661          estimate D2E/DX2                !
 ! D158  D(6,17,19,35)        -173.656          estimate D2E/DX2                !
 ! D159  D(18,17,19,21)        140.5913         estimate D2E/DX2                !
 ! D160  D(18,17,19,35)        -11.4036         estimate D2E/DX2                !
 ! D161  D(15,18,33,32)          8.9171         estimate D2E/DX2                !
 ! D162  D(15,18,33,36)        154.3293         estimate D2E/DX2                !
 ! D163  D(17,18,33,32)       -139.103          estimate D2E/DX2                !
 ! D164  D(17,18,33,36)          6.3092         estimate D2E/DX2                !
 ! D165  D(17,19,21,20)         -4.5348         estimate D2E/DX2                !
 ! D166  D(17,19,21,38)       -155.3791         estimate D2E/DX2                !
 ! D167  D(35,19,21,20)        147.1203         estimate D2E/DX2                !
 ! D168  D(35,19,21,38)         -3.7241         estimate D2E/DX2                !
 ! D169  D(17,19,35,36)         11.3111         estimate D2E/DX2                !
 ! D170  D(17,19,35,37)        153.8405         estimate D2E/DX2                !
 ! D171  D(21,19,35,36)       -141.0722         estimate D2E/DX2                !
 ! D172  D(21,19,35,37)          1.4572         estimate D2E/DX2                !
 ! D173  D(8,20,21,19)           8.8398         estimate D2E/DX2                !
 ! D174  D(8,20,21,38)         160.3921         estimate D2E/DX2                !
 ! D175  D(23,20,21,19)       -145.1434         estimate D2E/DX2                !
 ! D176  D(23,20,21,38)          6.4089         estimate D2E/DX2                !
 ! D177  D(8,20,23,22)         -16.6804         estimate D2E/DX2                !
 ! D178  D(8,20,23,40)        -158.5361         estimate D2E/DX2                !
 ! D179  D(21,20,23,22)        138.4259         estimate D2E/DX2                !
 ! D180  D(21,20,23,40)         -3.4298         estimate D2E/DX2                !
 ! D181  D(19,21,38,39)          3.5072         estimate D2E/DX2                !
 ! D182  D(19,21,38,42)        145.9745         estimate D2E/DX2                !
 ! D183  D(20,21,38,39)       -147.98           estimate D2E/DX2                !
 ! D184  D(20,21,38,42)         -5.5127         estimate D2E/DX2                !
 ! D185  D(9,22,23,20)           6.9558         estimate D2E/DX2                !
 ! D186  D(9,22,23,40)         153.5505         estimate D2E/DX2                !
 ! D187  D(24,22,23,20)       -141.7564         estimate D2E/DX2                !
 ! D188  D(24,22,23,40)          4.8384         estimate D2E/DX2                !
 ! D189  D(9,22,24,26)         -10.3707         estimate D2E/DX2                !
 ! D190  D(9,22,24,41)        -153.4354         estimate D2E/DX2                !
 ! D191  D(23,22,24,26)        137.9964         estimate D2E/DX2                !
 ! D192  D(23,22,24,41)         -5.0684         estimate D2E/DX2                !
 ! D193  D(20,23,40,41)        142.9958         estimate D2E/DX2                !
 ! D194  D(20,23,40,42)         -0.8174         estimate D2E/DX2                !
 ! D195  D(22,23,40,41)         -2.863          estimate D2E/DX2                !
 ! D196  D(22,23,40,42)       -146.6762         estimate D2E/DX2                !
 ! D197  D(22,24,26,25)         -0.4967         estimate D2E/DX2                !
 ! D198  D(22,24,26,44)       -137.857          estimate D2E/DX2                !
 ! D199  D(41,24,26,25)        138.2609         estimate D2E/DX2                !
 ! D200  D(41,24,26,44)          0.9006         estimate D2E/DX2                !
 ! D201  D(22,24,41,40)          3.2847         estimate D2E/DX2                !
 ! D202  D(22,24,41,43)        142.9276         estimate D2E/DX2                !
 ! D203  D(26,24,41,40)       -139.083          estimate D2E/DX2                !
 ! D204  D(26,24,41,43)          0.5599         estimate D2E/DX2                !
 ! D205  D(11,25,26,24)         11.1825         estimate D2E/DX2                !
 ! D206  D(11,25,26,44)        152.5874         estimate D2E/DX2                !
 ! D207  D(28,25,26,24)       -136.1916         estimate D2E/DX2                !
 ! D208  D(28,25,26,44)          5.2133         estimate D2E/DX2                !
 ! D209  D(11,25,28,27)         -7.4968         estimate D2E/DX2                !
 ! D210  D(11,25,28,45)       -152.8375         estimate D2E/DX2                !
 ! D211  D(26,25,28,27)        140.0333         estimate D2E/DX2                !
 ! D212  D(26,25,28,45)         -5.3074         estimate D2E/DX2                !
 ! D213  D(24,26,44,45)        138.1356         estimate D2E/DX2                !
 ! D214  D(24,26,44,46)         -1.8774         estimate D2E/DX2                !
 ! D215  D(25,26,44,45)         -3.1127         estimate D2E/DX2                !
 ! D216  D(25,26,44,46)       -143.1257         estimate D2E/DX2                !
 ! D217  D(13,27,28,25)         17.9662         estimate D2E/DX2                !
 ! D218  D(13,27,28,45)        159.0004         estimate D2E/DX2                !
 ! D219  D(30,27,28,25)       -139.1557         estimate D2E/DX2                !
 ! D220  D(30,27,28,45)          1.8786         estimate D2E/DX2                !
 ! D221  D(13,27,30,29)         -7.3383         estimate D2E/DX2                !
 ! D222  D(13,27,30,47)       -162.9148         estimate D2E/DX2                !
 ! D223  D(28,27,30,29)        148.3787         estimate D2E/DX2                !
 ! D224  D(28,27,30,47)         -7.1979         estimate D2E/DX2                !
 ! D225  D(25,28,45,44)          3.4261         estimate D2E/DX2                !
 ! D226  D(25,28,45,48)        147.4417         estimate D2E/DX2                !
 ! D227  D(27,28,45,44)       -141.4773         estimate D2E/DX2                !
 ! D228  D(27,28,45,48)          2.5382         estimate D2E/DX2                !
 ! D229  D(14,29,30,27)          4.1853         estimate D2E/DX2                !
 ! D230  D(14,29,30,47)        158.7336         estimate D2E/DX2                !
 ! D231  D(31,29,30,27)       -161.7742         estimate D2E/DX2                !
 ! D232  D(31,29,30,47)         -7.2259         estimate D2E/DX2                !
 ! D233  D(14,29,31,34)        -32.9648         estimate D2E/DX2                !
 ! D234  D(14,29,31,49)       -144.8963         estimate D2E/DX2                !
 ! D235  D(14,29,31,73)         89.0063         estimate D2E/DX2                !
 ! D236  D(30,29,31,34)        133.1388         estimate D2E/DX2                !
 ! D237  D(30,29,31,49)         21.2073         estimate D2E/DX2                !
 ! D238  D(30,29,31,73)       -104.8901         estimate D2E/DX2                !
 ! D239  D(27,30,47,48)          8.3707         estimate D2E/DX2                !
 ! D240  D(27,30,47,50)        148.0532         estimate D2E/DX2                !
 ! D241  D(29,30,47,48)       -146.3203         estimate D2E/DX2                !
 ! D242  D(29,30,47,50)         -6.6378         estimate D2E/DX2                !
 ! D243  D(29,31,34,32)         25.8498         estimate D2E/DX2                !
 ! D244  D(29,31,34,51)       -125.1928         estimate D2E/DX2                !
 ! D245  D(49,31,34,32)        145.8504         estimate D2E/DX2                !
 ! D246  D(49,31,34,51)         -5.1922         estimate D2E/DX2                !
 ! D247  D(73,31,34,32)        -92.3269         estimate D2E/DX2                !
 ! D248  D(73,31,34,51)        116.6305         estimate D2E/DX2                !
 ! D249  D(29,31,49,50)        -23.7214         estimate D2E/DX2                !
 ! D250  D(29,31,49,54)        124.8863         estimate D2E/DX2                !
 ! D251  D(34,31,49,50)       -141.4783         estimate D2E/DX2                !
 ! D252  D(34,31,49,54)          7.1295         estimate D2E/DX2                !
 ! D253  D(73,31,49,50)         97.9655         estimate D2E/DX2                !
 ! D254  D(73,31,49,54)       -113.4268         estimate D2E/DX2                !
 ! D255  D(16,32,33,18)         -9.4087         estimate D2E/DX2                !
 ! D256  D(16,32,33,36)       -153.3206         estimate D2E/DX2                !
 ! D257  D(34,32,33,18)        139.3534         estimate D2E/DX2                !
 ! D258  D(34,32,33,36)         -4.5585         estimate D2E/DX2                !
 ! D259  D(16,32,34,31)          6.14           estimate D2E/DX2                !
 ! D260  D(16,32,34,51)        154.7419         estimate D2E/DX2                !
 ! D261  D(33,32,34,31)       -138.8093         estimate D2E/DX2                !
 ! D262  D(33,32,34,51)          9.7926         estimate D2E/DX2                !
 ! D263  D(18,33,36,35)         -6.5701         estimate D2E/DX2                !
 ! D264  D(18,33,36,52)       -145.528          estimate D2E/DX2                !
 ! D265  D(32,33,36,35)        134.5292         estimate D2E/DX2                !
 ! D266  D(32,33,36,52)         -4.4287         estimate D2E/DX2                !
 ! D267  D(31,34,51,52)        145.6022         estimate D2E/DX2                !
 ! D268  D(31,34,51,54)          1.6597         estimate D2E/DX2                !
 ! D269  D(32,34,51,52)         -6.3676         estimate D2E/DX2                !
 ! D270  D(32,34,51,54)       -150.3102         estimate D2E/DX2                !
 ! D271  D(19,35,36,33)         -2.3239         estimate D2E/DX2                !
 ! D272  D(19,35,36,52)        140.1892         estimate D2E/DX2                !
 ! D273  D(37,35,36,33)       -149.8445         estimate D2E/DX2                !
 ! D274  D(37,35,36,52)         -7.3315         estimate D2E/DX2                !
 ! D275  D(19,35,37,39)          1.2104         estimate D2E/DX2                !
 ! D276  D(19,35,37,53)       -142.3406         estimate D2E/DX2                !
 ! D277  D(36,35,37,39)        148.7396         estimate D2E/DX2                !
 ! D278  D(36,35,37,53)          5.1886         estimate D2E/DX2                !
 ! D279  D(33,36,52,51)          7.8532         estimate D2E/DX2                !
 ! D280  D(33,36,52,53)        149.3313         estimate D2E/DX2                !
 ! D281  D(35,36,52,51)       -134.8412         estimate D2E/DX2                !
 ! D282  D(35,36,52,53)          6.6369         estimate D2E/DX2                !
 ! D283  D(35,37,39,38)         -1.5426         estimate D2E/DX2                !
 ! D284  D(35,37,39,57)       -140.7898         estimate D2E/DX2                !
 ! D285  D(53,37,39,38)        137.7732         estimate D2E/DX2                !
 ! D286  D(53,37,39,57)         -1.4741         estimate D2E/DX2                !
 ! D287  D(35,37,53,52)         -1.2093         estimate D2E/DX2                !
 ! D288  D(35,37,53,55)        140.0727         estimate D2E/DX2                !
 ! D289  D(39,37,53,52)       -144.6013         estimate D2E/DX2                !
 ! D290  D(39,37,53,55)         -3.3193         estimate D2E/DX2                !
 ! D291  D(21,38,39,37)         -0.8442         estimate D2E/DX2                !
 ! D292  D(21,38,39,57)        142.5582         estimate D2E/DX2                !
 ! D293  D(42,38,39,37)       -148.3954         estimate D2E/DX2                !
 ! D294  D(42,38,39,57)         -4.993          estimate D2E/DX2                !
 ! D295  D(21,38,42,40)          1.4979         estimate D2E/DX2                !
 ! D296  D(21,38,42,58)       -142.3322         estimate D2E/DX2                !
 ! D297  D(39,38,42,40)        148.8882         estimate D2E/DX2                !
 ! D298  D(39,38,42,58)          5.058          estimate D2E/DX2                !
 ! D299  D(37,39,57,58)        146.0116         estimate D2E/DX2                !
 ! D300  D(37,39,57,60)          4.549          estimate D2E/DX2                !
 ! D301  D(38,39,57,58)          3.0817         estimate D2E/DX2                !
 ! D302  D(38,39,57,60)       -138.3809         estimate D2E/DX2                !
 ! D303  D(23,40,41,24)         -0.2677         estimate D2E/DX2                !
 ! D304  D(23,40,41,43)       -140.2699         estimate D2E/DX2                !
 ! D305  D(42,40,41,24)        142.4245         estimate D2E/DX2                !
 ! D306  D(42,40,41,43)          2.4223         estimate D2E/DX2                !
 ! D307  D(23,40,42,38)          1.8257         estimate D2E/DX2                !
 ! D308  D(23,40,42,58)        141.8694         estimate D2E/DX2                !
 ! D309  D(41,40,42,38)       -137.6404         estimate D2E/DX2                !
 ! D310  D(41,40,42,58)          2.4033         estimate D2E/DX2                !
 ! D311  D(24,41,43,46)         -1.0686         estimate D2E/DX2                !
 ! D312  D(24,41,43,59)       -138.5673         estimate D2E/DX2                !
 ! D313  D(40,41,43,46)        133.3396         estimate D2E/DX2                !
 ! D314  D(40,41,43,59)         -4.1591         estimate D2E/DX2                !
 ! D315  D(38,42,58,57)         -3.2232         estimate D2E/DX2                !
 ! D316  D(38,42,58,59)        138.6675         estimate D2E/DX2                !
 ! D317  D(40,42,58,57)       -147.3438         estimate D2E/DX2                !
 ! D318  D(40,42,58,59)         -5.4531         estimate D2E/DX2                !
 ! D319  D(41,43,46,44)          0.0923         estimate D2E/DX2                !
 ! D320  D(41,43,46,61)       -141.9248         estimate D2E/DX2                !
 ! D321  D(59,43,46,44)        141.9997         estimate D2E/DX2                !
 ! D322  D(59,43,46,61)         -0.0174         estimate D2E/DX2                !
 ! D323  D(41,43,59,58)          1.0953         estimate D2E/DX2                !
 ! D324  D(41,43,59,65)        143.7352         estimate D2E/DX2                !
 ! D325  D(46,43,59,58)       -140.7495         estimate D2E/DX2                !
 ! D326  D(46,43,59,65)          1.8904         estimate D2E/DX2                !
 ! D327  D(26,44,45,28)         -0.1807         estimate D2E/DX2                !
 ! D328  D(26,44,45,48)       -142.9252         estimate D2E/DX2                !
 ! D329  D(46,44,45,28)        140.2229         estimate D2E/DX2                !
 ! D330  D(46,44,45,48)         -2.5216         estimate D2E/DX2                !
 ! D331  D(26,44,46,43)          1.3763         estimate D2E/DX2                !
 ! D332  D(26,44,46,61)        139.0547         estimate D2E/DX2                !
 ! D333  D(45,44,46,43)       -133.5383         estimate D2E/DX2                !
 ! D334  D(45,44,46,61)          4.14           estimate D2E/DX2                !
 ! D335  D(28,45,48,47)         -1.3494         estimate D2E/DX2                !
 ! D336  D(28,45,48,62)       -141.0921         estimate D2E/DX2                !
 ! D337  D(44,45,48,47)        137.8793         estimate D2E/DX2                !
 ! D338  D(44,45,48,62)         -1.8634         estimate D2E/DX2                !
 ! D339  D(43,46,61,62)        140.7994         estimate D2E/DX2                !
 ! D340  D(43,46,61,65)         -1.853          estimate D2E/DX2                !
 ! D341  D(44,46,61,62)         -1.4035         estimate D2E/DX2                !
 ! D342  D(44,46,61,65)       -144.0559         estimate D2E/DX2                !
 ! D343  D(30,47,48,45)         -4.2709         estimate D2E/DX2                !
 ! D344  D(30,47,48,62)        139.0253         estimate D2E/DX2                !
 ! D345  D(50,47,48,45)       -148.1556         estimate D2E/DX2                !
 ! D346  D(50,47,48,62)         -4.8595         estimate D2E/DX2                !
 ! D347  D(30,47,50,49)          4.8055         estimate D2E/DX2                !
 ! D348  D(30,47,50,63)       -138.7727         estimate D2E/DX2                !
 ! D349  D(48,47,50,49)        149.0142         estimate D2E/DX2                !
 ! D350  D(48,47,50,63)          5.436          estimate D2E/DX2                !
 ! D351  D(45,48,62,61)          4.5896         estimate D2E/DX2                !
 ! D352  D(45,48,62,63)        146.7769         estimate D2E/DX2                !
 ! D353  D(47,48,62,61)       -139.8063         estimate D2E/DX2                !
 ! D354  D(47,48,62,63)          2.381          estimate D2E/DX2                !
 ! D355  D(31,49,50,47)         11.3204         estimate D2E/DX2                !
 ! D356  D(31,49,50,63)        149.9352         estimate D2E/DX2                !
 ! D357  D(54,49,50,47)       -135.3683         estimate D2E/DX2                !
 ! D358  D(54,49,50,63)          3.2464         estimate D2E/DX2                !
 ! D359  D(31,49,54,51)         -6.6166         estimate D2E/DX2                !
 ! D360  D(31,49,54,56)       -149.9529         estimate D2E/DX2                !
 ! D361  D(50,49,54,51)        143.2424         estimate D2E/DX2                !
 ! D362  D(50,49,54,56)         -0.094          estimate D2E/DX2                !
 ! D363  D(47,50,63,62)         -3.9677         estimate D2E/DX2                !
 ! D364  D(47,50,63,64)        138.9619         estimate D2E/DX2                !
 ! D365  D(49,50,63,62)       -147.2268         estimate D2E/DX2                !
 ! D366  D(49,50,63,64)         -4.2971         estimate D2E/DX2                !
 ! D367  D(34,51,52,36)         -2.6684         estimate D2E/DX2                !
 ! D368  D(34,51,52,53)       -138.714          estimate D2E/DX2                !
 ! D369  D(54,51,52,36)        137.3649         estimate D2E/DX2                !
 ! D370  D(54,51,52,53)          1.3194         estimate D2E/DX2                !
 ! D371  D(34,51,54,49)          2.9628         estimate D2E/DX2                !
 ! D372  D(34,51,54,56)        147.1542         estimate D2E/DX2                !
 ! D373  D(52,51,54,49)       -141.7274         estimate D2E/DX2                !
 ! D374  D(52,51,54,56)          2.464          estimate D2E/DX2                !
 ! D375  D(36,52,53,37)         -3.2872         estimate D2E/DX2                !
 ! D376  D(36,52,53,55)       -144.602          estimate D2E/DX2                !
 ! D377  D(51,52,53,37)        137.0192         estimate D2E/DX2                !
 ! D378  D(51,52,53,55)         -4.2956         estimate D2E/DX2                !
 ! D379  D(37,53,55,56)       -133.318          estimate D2E/DX2                !
 ! D380  D(37,53,55,60)          4.9795         estimate D2E/DX2                !
 ! D381  D(52,53,55,56)          3.4003         estimate D2E/DX2                !
 ! D382  D(52,53,55,60)        141.6978         estimate D2E/DX2                !
 ! D383  D(49,54,56,55)        135.9245         estimate D2E/DX2                !
 ! D384  D(49,54,56,64)         -2.1064         estimate D2E/DX2                !
 ! D385  D(51,54,56,55)         -3.3293         estimate D2E/DX2                !
 ! D386  D(51,54,56,64)       -141.3602         estimate D2E/DX2                !
 ! D387  D(53,55,56,54)          0.3703         estimate D2E/DX2                !
 ! D388  D(53,55,56,64)        142.8727         estimate D2E/DX2                !
 ! D389  D(60,55,56,54)       -142.0833         estimate D2E/DX2                !
 ! D390  D(60,55,56,64)          0.4191         estimate D2E/DX2                !
 ! D391  D(53,55,60,57)         -1.8999         estimate D2E/DX2                !
 ! D392  D(53,55,60,66)       -143.925          estimate D2E/DX2                !
 ! D393  D(56,55,60,57)        140.4761         estimate D2E/DX2                !
 ! D394  D(56,55,60,66)         -1.5489         estimate D2E/DX2                !
 ! D395  D(54,56,64,63)          1.0863         estimate D2E/DX2                !
 ! D396  D(54,56,64,66)        143.729          estimate D2E/DX2                !
 ! D397  D(55,56,64,63)       -141.7673         estimate D2E/DX2                !
 ! D398  D(55,56,64,66)          0.8755         estimate D2E/DX2                !
 ! D399  D(39,57,58,42)          0.0961         estimate D2E/DX2                !
 ! D400  D(39,57,58,59)       -141.4893         estimate D2E/DX2                !
 ! D401  D(60,57,58,42)        141.3108         estimate D2E/DX2                !
 ! D402  D(60,57,58,59)         -0.2746         estimate D2E/DX2                !
 ! D403  D(39,57,60,55)         -2.8617         estimate D2E/DX2                !
 ! D404  D(39,57,60,66)        134.4564         estimate D2E/DX2                !
 ! D405  D(58,57,60,55)       -139.5584         estimate D2E/DX2                !
 ! D406  D(58,57,60,66)         -2.2402         estimate D2E/DX2                !
 ! D407  D(42,58,59,43)          3.7211         estimate D2E/DX2                !
 ! D408  D(42,58,59,65)       -134.6084         estimate D2E/DX2                !
 ! D409  D(57,58,59,43)        140.8516         estimate D2E/DX2                !
 ! D410  D(57,58,59,65)          2.5221         estimate D2E/DX2                !
 ! D411  D(43,59,65,61)         -3.0428         estimate D2E/DX2                !
 ! D412  D(43,59,65,66)       -145.1505         estimate D2E/DX2                !
 ! D413  D(58,59,65,61)        139.8592         estimate D2E/DX2                !
 ! D414  D(58,59,65,66)         -2.2486         estimate D2E/DX2                !
 ! D415  D(55,60,66,64)          2.073          estimate D2E/DX2                !
 ! D416  D(55,60,66,65)        144.684          estimate D2E/DX2                !
 ! D417  D(57,60,66,64)       -140.1015         estimate D2E/DX2                !
 ! D418  D(57,60,66,65)          2.5095         estimate D2E/DX2                !
 ! D419  D(46,61,62,48)         -3.007          estimate D2E/DX2                !
 ! D420  D(46,61,62,63)       -140.1096         estimate D2E/DX2                !
 ! D421  D(65,61,62,48)        135.2737         estimate D2E/DX2                !
 ! D422  D(65,61,62,63)         -1.8289         estimate D2E/DX2                !
 ! D423  D(46,61,65,59)          3.0241         estimate D2E/DX2                !
 ! D424  D(46,61,65,66)        145.1194         estimate D2E/DX2                !
 ! D425  D(62,61,65,59)       -140.0839         estimate D2E/DX2                !
 ! D426  D(62,61,65,66)          2.0114         estimate D2E/DX2                !
 ! D427  D(48,62,63,50)          1.0256         estimate D2E/DX2                !
 ! D428  D(48,62,63,64)       -142.3658         estimate D2E/DX2                !
 ! D429  D(61,62,63,50)        142.7666         estimate D2E/DX2                !
 ! D430  D(61,62,63,64)         -0.6247         estimate D2E/DX2                !
 ! D431  D(50,63,64,56)          2.0172         estimate D2E/DX2                !
 ! D432  D(50,63,64,66)       -136.0852         estimate D2E/DX2                !
 ! D433  D(62,63,64,56)        140.9923         estimate D2E/DX2                !
 ! D434  D(62,63,64,66)          2.8899         estimate D2E/DX2                !
 ! D435  D(56,64,66,60)         -1.842          estimate D2E/DX2                !
 ! D436  D(56,64,66,65)       -144.615          estimate D2E/DX2                !
 ! D437  D(63,64,66,60)        140.0685         estimate D2E/DX2                !
[...]
              Bcc     0.0437     5.863     2.092     1.956  0.7542  0.6244  0.2032
 
              Baa    -0.1577   -21.165    -7.552    -7.060 -0.1134  0.6497  0.7517
    12 C(13)  Bbb    -0.1524   -20.450    -7.297    -6.822  0.9063 -0.2423  0.3462
              Bcc     0.3101    41.615    14.849    13.881  0.4071  0.7205 -0.5613
 
              Baa    -0.0861   -11.557    -4.124    -3.855 -0.4681 -0.3534  0.8100
    13 C(13)  Bbb     0.0389     5.215     1.861     1.739  0.8831 -0.1529  0.4436
              Bcc     0.0473     6.343     2.263     2.116 -0.0329  0.9229  0.3837
 
              Baa    -0.1180   -15.840    -5.652    -5.284  0.3554  0.8543 -0.3793
    14 C(13)  Bbb     0.0506     6.789     2.423     2.265  0.2425  0.3076  0.9201
              Bcc     0.0674     9.050     3.229     3.019  0.9027 -0.4189 -0.0978
 
              Baa    -0.0103    -1.378    -0.492    -0.460 -0.4250  0.8835 -0.1971
    15 C(13)  Bbb    -0.0068    -0.906    -0.323    -0.302 -0.5836 -0.1010  0.8058
              Bcc     0.0170     2.285     0.815     0.762  0.6920  0.4575  0.5585
 
              Baa    -0.0018    -0.239    -0.085    -0.080 -0.0141  0.7758 -0.6309
    16 C(13)  Bbb    -0.0007    -0.092    -0.033    -0.031  0.9702 -0.1421 -0.1965
              Bcc     0.0025     0.331     0.118     0.111  0.2421  0.6148  0.7506
 
              Baa    -0.0082    -1.107    -0.395    -0.369  0.2579  0.9658 -0.0264
    17 C(13)  Bbb    -0.0077    -1.037    -0.370    -0.346  0.8499 -0.2397 -0.4693
              Bcc     0.0160     2.144     0.765     0.715  0.4596 -0.0986  0.8826
 
              Baa    -0.0074    -0.993    -0.354    -0.331  0.6428  0.3459  0.6835
    18 C(13)  Bbb     0.0031     0.417     0.149     0.139  0.7227 -0.5698 -0.3913
              Bcc     0.0043     0.576     0.205     0.192  0.2541  0.7455 -0.6162
 
              Baa    -0.0075    -1.007    -0.359    -0.336  0.3312 -0.3621  0.8713
    19 C(13)  Bbb     0.0034     0.456     0.163     0.152  0.8330 -0.3214 -0.4503
              Bcc     0.0041     0.551     0.197     0.184  0.4431  0.8750  0.1952
 
              Baa    -0.0162    -2.178    -0.777    -0.726 -0.3713  0.7546 -0.5410
    20 C(13)  Bbb     0.0077     1.032     0.368     0.344  0.8961  0.4438  0.0041
              Bcc     0.0085     1.146     0.409     0.382 -0.2432  0.4833  0.8410
 
              Baa    -0.0196    -2.625    -0.936    -0.875  0.9499  0.2435 -0.1960
    21 C(13)  Bbb    -0.0193    -2.583    -0.922    -0.862 -0.0666  0.7703  0.6342
              Bcc     0.0388     5.208     1.858     1.737  0.3054 -0.5894  0.7479
 
              Baa    -0.0294    -3.942    -1.407    -1.315 -0.3484  0.9197  0.1808
    22 C(13)  Bbb     0.0144     1.928     0.688     0.643  0.9341  0.3247  0.1486
              Bcc     0.0150     2.014     0.719     0.672 -0.0780 -0.2207  0.9722
 
              Baa    -0.0125    -1.679    -0.599    -0.560  0.2984  0.4329  0.8506
    23 C(13)  Bbb    -0.0122    -1.637    -0.584    -0.546  0.8845  0.2095 -0.4169
              Bcc     0.0247     3.315     1.183     1.106 -0.3587  0.8768 -0.3204
 
              Baa    -0.0307    -4.125    -1.472    -1.376  0.6826 -0.2486  0.6872
    24 C(13)  Bbb    -0.0271    -3.632    -1.296    -1.211  0.7112  0.4422 -0.5465
              Bcc     0.0578     7.757     2.768     2.588 -0.1680  0.8618  0.4787
 
              Baa    -0.0963   -12.928    -4.613    -4.312 -0.5505  0.6924 -0.4664
    25 C(13)  Bbb    -0.0910   -12.212    -4.358    -4.074  0.7367  0.6657  0.1188
              Bcc     0.1874    25.141     8.971     8.386 -0.3928  0.2782  0.8765
 
              Baa    -0.0229    -3.074    -1.097    -1.025 -0.2257  0.4943  0.8395
    26 C(13)  Bbb     0.0062     0.837     0.299     0.279  0.7541 -0.4569  0.4718
              Bcc     0.0167     2.237     0.798     0.746  0.6167  0.7396 -0.2696
 
              Baa    -0.0258    -3.460    -1.235    -1.154  0.2467  0.8270  0.5052
    27 C(13)  Bbb    -0.0226    -3.028    -1.080    -1.010  0.9509 -0.3071  0.0383
              Bcc     0.0483     6.487     2.315     2.164 -0.1868 -0.4710  0.8621
 
              Baa    -0.0921   -12.364    -4.412    -4.124 -0.2316 -0.1090  0.9667
    28 C(13)  Bbb     0.0429     5.761     2.056     1.922  0.5828  0.7801  0.2275
              Bcc     0.0492     6.602     2.356     2.202  0.7789 -0.6161  0.1171
 
              Baa    -0.1511   -20.273    -7.234    -6.762  0.5854  0.3092  0.7494
    29 C(13)  Bbb    -0.1430   -19.189    -6.847    -6.401  0.7866 -0.4404 -0.4328
              Bcc     0.2941    39.461    14.081    13.163  0.1962  0.8429 -0.5011
 
              Baa    -0.1039   -13.940    -4.974    -4.650  0.1221  0.7205 -0.6826
    30 C(13)  Bbb     0.0459     6.162     2.199     2.055 -0.5392  0.6256  0.5639
              Bcc     0.0580     7.778     2.776     2.595  0.8333  0.2992  0.4649
 
              Baa    -0.0075    -1.004    -0.358    -0.335 -0.2475  0.7425 -0.6225
    31 C(13)  Bbb     0.0031     0.419     0.149     0.140  0.9403  0.3389  0.0304
              Bcc     0.0044     0.585     0.209     0.195 -0.2336  0.5778  0.7821
 
              Baa    -0.0030    -0.403    -0.144    -0.134  0.7354  0.2423 -0.6328
    32 C(13)  Bbb    -0.0012    -0.155    -0.055    -0.052 -0.5701  0.7261 -0.3845
              Bcc     0.0042     0.559     0.199     0.186  0.3663  0.6435  0.6721
 
              Baa    -0.0010    -0.138    -0.049    -0.046  0.9311 -0.3078 -0.1959
    33 C(13)  Bbb    -0.0005    -0.063    -0.022    -0.021  0.2488  0.9284 -0.2760
              Bcc     0.0015     0.201     0.072     0.067  0.2668  0.2083  0.9410
 
              Baa    -0.0066    -0.883    -0.315    -0.295 -0.3923  0.8825 -0.2594
    34 C(13)  Bbb    -0.0032    -0.426    -0.152    -0.142  0.9029  0.3157 -0.2917
              Bcc     0.0098     1.309     0.467     0.437  0.1756  0.3486  0.9207
 
              Baa    -0.0046    -0.612    -0.218    -0.204  0.9284  0.3693 -0.0403
    35 C(13)  Bbb    -0.0041    -0.545    -0.194    -0.182 -0.3599  0.9210  0.1493
              Bcc     0.0086     1.157     0.413     0.386  0.0923 -0.1241  0.9880
 
              Baa    -0.0012    -0.158    -0.056    -0.053  0.4130  0.4494  0.7921
    36 C(13)  Bbb     0.0002     0.029     0.010     0.010  0.8675 -0.4590 -0.1919
              Bcc     0.0010     0.129     0.046     0.043  0.2774  0.7664 -0.5794
 
              Baa    -0.0165    -2.217    -0.791    -0.740 -0.2377 -0.0982  0.9664
    37 C(13)  Bbb     0.0075     1.002     0.358     0.334  0.9439  0.2112  0.2537
              Bcc     0.0091     1.215     0.434     0.405 -0.2290  0.9725  0.0425
 
              Baa    -0.0177    -2.378    -0.848    -0.793  0.0215 -0.6627  0.7486
    38 C(13)  Bbb     0.0080     1.076     0.384     0.359  0.0509  0.7485  0.6611
              Bcc     0.0097     1.301     0.464     0.434  0.9985 -0.0238 -0.0498
 
              Baa    -0.0130    -1.741    -0.621    -0.581  0.5029  0.6699  0.5462
    39 C(13)  Bbb    -0.0125    -1.684    -0.601    -0.562  0.7955 -0.6058  0.0106
              Bcc     0.0255     3.425     1.222     1.142 -0.3380 -0.4292  0.8376
 
              Baa    -0.0031    -0.416    -0.148    -0.139 -0.4657  0.7799 -0.4182
    40 C(13)  Bbb     0.0009     0.121     0.043     0.040  0.7336  0.0760 -0.6753
              Bcc     0.0022     0.295     0.105     0.098  0.4949  0.6213  0.6075
 
              Baa    -0.0124    -1.660    -0.592    -0.554  0.4257 -0.2215  0.8774
    41 C(13)  Bbb    -0.0112    -1.502    -0.536    -0.501  0.8633 -0.1910 -0.4671
              Bcc     0.0236     3.162     1.128     1.055  0.2710  0.9563  0.1100
 
              Baa    -0.0052    -0.699    -0.249    -0.233  0.2847  0.4581  0.8421
    42 C(13)  Bbb    -0.0045    -0.608    -0.217    -0.203  0.9146 -0.3929 -0.0955
              Bcc     0.0097     1.306     0.466     0.436  0.2872  0.7973 -0.5308
 
              Baa    -0.0065    -0.878    -0.313    -0.293 -0.4403  0.2376  0.8658
    43 C(13)  Bbb    -0.0046    -0.622    -0.222    -0.208  0.7380 -0.4535  0.4997
              Bcc     0.0112     1.500     0.535     0.500  0.5114  0.8590  0.0244
 
              Baa    -0.0174    -2.329    -0.831    -0.777  0.2285  0.0788  0.9704
    44 C(13)  Bbb     0.0042     0.564     0.201     0.188  0.8774 -0.4485 -0.1702
              Bcc     0.0132     1.765     0.630     0.589  0.4218  0.8903 -0.1716
 
              Baa    -0.0776   -10.413    -3.715    -3.473  0.9830 -0.0668 -0.1711
    45 C(13)  Bbb    -0.0725    -9.727    -3.471    -3.245  0.0788  0.9948  0.0642
              Bcc     0.1501    20.139     7.186     6.718  0.1659 -0.0766  0.9832
 
              Baa    -0.0330    -4.431    -1.581    -1.478  0.8118 -0.4242 -0.4012
    46 C(13)  Bbb    -0.0302    -4.047    -1.444    -1.350  0.0973  0.7758 -0.6235
              Bcc     0.0632     8.478     3.025     2.828  0.5757  0.4671  0.6711
 
              Baa    -0.1691   -22.697    -8.099    -7.571  0.9939  0.0842 -0.0709
    47 C(13)  Bbb    -0.1640   -22.004    -7.852    -7.340 -0.0192  0.7668  0.6415
              Bcc     0.3331    44.701    15.951    14.911  0.1083 -0.6363  0.7638
 
              Baa    -0.0790   -10.594    -3.780    -3.534  0.3215 -0.3707  0.8713
    48 C(13)  Bbb     0.0320     4.293     1.532     1.432  0.9328 -0.0343 -0.3588
              Bcc     0.0470     6.302     2.249     2.102  0.1629  0.9281  0.3347
 
              Baa    -0.0638    -8.557    -3.053    -2.854  0.4770  0.3650  0.7995
    49 C(13)  Bbb    -0.0580    -7.777    -2.775    -2.594  0.8023  0.1906 -0.5657
              Bcc     0.1217    16.334     5.828     5.448 -0.3589  0.9113 -0.2019
 
              Baa    -0.0557    -7.470    -2.665    -2.492 -0.3543  0.7282 -0.5867
    50 C(13)  Bbb     0.0216     2.902     1.035     0.968  0.7737  0.5807  0.2535
              Bcc     0.0340     4.568     1.630     1.524 -0.5252  0.3641  0.7691
 
              Baa    -0.0167    -2.236    -0.798    -0.746  0.9353  0.1123  0.3355
    51 C(13)  Bbb    -0.0146    -1.954    -0.697    -0.652 -0.2274 -0.5354  0.8134
              Bcc     0.0312     4.189     1.495     1.397 -0.2710  0.8371  0.4753
 
              Baa    -0.0124    -1.660    -0.592    -0.554 -0.2799  0.6082  0.7428
    52 C(13)  Bbb     0.0046     0.622     0.222     0.207  0.9113 -0.0752  0.4049
              Bcc     0.0077     1.039     0.371     0.347  0.3021  0.7902 -0.5332
 
              Baa    -0.0218    -2.929    -1.045    -0.977  0.8828  0.1356  0.4498
    53 C(13)  Bbb    -0.0206    -2.763    -0.986    -0.922 -0.0285  0.9711 -0.2369
              Bcc     0.0424     5.692     2.031     1.899 -0.4689  0.1963  0.8611
 
              Baa    -0.0262    -3.512    -1.253    -1.171 -0.5062  0.8561  0.1037
    54 C(13)  Bbb     0.0097     1.307     0.466     0.436  0.6861  0.3270  0.6499
              Bcc     0.0164     2.204     0.787     0.735 -0.5225 -0.4002  0.7529
 
              Baa    -0.0200    -2.685    -0.958    -0.896  0.7313 -0.3031 -0.6110
    55 C(13)  Bbb     0.0091     1.215     0.434     0.405  0.4496  0.8879  0.0977
              Bcc     0.0110     1.470     0.524     0.490  0.5129 -0.3462  0.7856
 
              Baa    -0.0239    -3.201    -1.142    -1.068  0.5845  0.6367  0.5030
    56 C(13)  Bbb    -0.0224    -3.004    -1.072    -1.002 -0.0874 -0.5669  0.8192
              Bcc     0.0462     6.205     2.214     2.070  0.8067 -0.5227 -0.2757
 
              Baa    -0.0127    -1.704    -0.608    -0.568  0.6548  0.4161 -0.6309
    57 C(13)  Bbb     0.0062     0.826     0.295     0.276  0.6998 -0.6491  0.2982
              Bcc     0.0065     0.878     0.313     0.293  0.2854  0.6368  0.7162
 
              Baa    -0.0060    -0.805    -0.287    -0.269  0.0218  0.4492  0.8932
    58 C(13)  Bbb    -0.0060    -0.800    -0.286    -0.267  0.8171 -0.5228  0.2430
              Bcc     0.0120     1.606     0.573     0.536  0.5761  0.7245 -0.3784
 
              Baa    -0.0017    -0.233    -0.083    -0.078  0.9368  0.3264 -0.1263
    59 C(13)  Bbb     0.0002     0.023     0.008     0.008 -0.3482  0.9057 -0.2420
              Bcc     0.0016     0.210     0.075     0.070  0.0354  0.2707  0.9620
 
              Baa    -0.0045    -0.604    -0.216    -0.202  0.5254 -0.1346  0.8401
    60 C(13)  Bbb    -0.0044    -0.588    -0.210    -0.196 -0.0346  0.9832  0.1792
              Bcc     0.0089     1.193     0.426     0.398  0.8501  0.1232 -0.5120
 
              Baa    -0.0271    -3.637    -1.298    -1.213  0.7510  0.2088  0.6265
    61 C(13)  Bbb     0.0126     1.685     0.601     0.562 -0.5825 -0.2375  0.7774
              Bcc     0.0145     1.952     0.696     0.651 -0.3111  0.9487  0.0568
 
              Baa    -0.0210    -2.814    -1.004    -0.939 -0.6494 -0.2674  0.7119
    62 C(13)  Bbb    -0.0193    -2.587    -0.923    -0.863 -0.1519  0.9629  0.2231
              Bcc     0.0402     5.401     1.927     1.802  0.7451 -0.0367  0.6659
 
              Baa    -0.0127    -1.698    -0.606    -0.566  0.3901  0.8711  0.2984
    63 C(13)  Bbb    -0.0122    -1.644    -0.587    -0.548 -0.3518 -0.1585  0.9226
              Bcc     0.0249     3.341     1.192     1.115  0.8509 -0.4649  0.2446
 
              Baa    -0.0171    -2.301    -0.821    -0.768  0.8735 -0.4785  0.0894
    64 C(13)  Bbb     0.0082     1.100     0.393     0.367  0.4858  0.8452 -0.2228
              Bcc     0.0089     1.201     0.429     0.401  0.0310  0.2380  0.9708
 
              Baa    -0.0021    -0.277    -0.099    -0.092  0.1115  0.1764  0.9780
    65 C(13)  Bbb    -0.0011    -0.147    -0.053    -0.049 -0.2403  0.9597 -0.1458
              Bcc     0.0032     0.424     0.151     0.141  0.9643  0.2187 -0.1494
 
              Baa    -0.0102    -1.367    -0.488    -0.456  0.9980  0.0181 -0.0607
    66 C(13)  Bbb     0.0050     0.665     0.237     0.222 -0.0367  0.9459 -0.3222
              Bcc     0.0052     0.702     0.251     0.234  0.0516  0.3238  0.9447
 
              Baa    -0.0166    -0.870    -0.310    -0.290  0.9299  0.0502 -0.3644
    67 Cl(35) Bbb    -0.0022    -0.114    -0.041    -0.038  0.2871  0.5202  0.8044
              Bcc     0.0188     0.984     0.351     0.328 -0.2299  0.8526 -0.4693
 
              Baa    -0.0748    -3.916    -1.397    -1.306  0.0651  0.1264  0.9898
    68 Cl(35) Bbb    -0.0662    -3.465    -1.236    -1.156 -0.0585  0.9907 -0.1227
              Bcc     0.1410     7.381     2.634     2.462  0.9962  0.0499 -0.0719
 
              Baa    -0.0590    -3.087    -1.101    -1.030  0.0776  0.7808 -0.6200
    69 Cl(35) Bbb    -0.0446    -2.334    -0.833    -0.779 -0.1065  0.6248  0.7735
              Bcc     0.1036     5.420     1.934     1.808  0.9913  0.0060  0.1317
 
              Baa    -0.0593    -3.106    -1.108    -1.036  0.5234  0.6755  0.5194
    70 Cl(35) Bbb     0.0237     1.239     0.442     0.413  0.8256 -0.5528 -0.1132
              Bcc     0.0357     1.867     0.666     0.623 -0.2106 -0.4881  0.8470
 
              Baa    -0.0075    -0.391    -0.139    -0.130  0.6941 -0.3539  0.6269
    71 Cl(35) Bbb     0.0029     0.154     0.055     0.051  0.4286  0.9028  0.0351
              Bcc     0.0045     0.236     0.084     0.079 -0.5784  0.2443  0.7783
 
              Baa    -0.0077    -0.401    -0.143    -0.134  0.8381  0.2022 -0.5067
    72 Cl(35) Bbb    -0.0041    -0.214    -0.076    -0.072  0.1580  0.7990  0.5802
              Bcc     0.0117     0.615     0.219     0.205  0.5222 -0.5664  0.6376
 
              Baa    -0.1688    -8.837    -3.153    -2.948  0.0718 -0.0246  0.9971
    73 Cl(35) Bbb    -0.1540    -8.059    -2.876    -2.688  0.9967  0.0409 -0.0708
              Bcc     0.3228    16.896     6.029     5.636 -0.0390  0.9989  0.0275
 

 ---------------------------------------------------------------------------------

 No NMR shielding tensors so no spin-rotation constants.
 Leave Link  601 at Fri Jul 15 07:04:55 2022, MaxMem=  1342177280 cpu:             119.9 elap:               2.8
 (Enter /home/mkliu/g16/l9999.exe)
 1\1\GINC-NODE04\FOpt\UB3LYP\6-311G(d,p)\C66Cl7(2)\MKLIU\15-Jul-2022\0\
 \#P opt b3lyp/6-311G(d, p) empiricaldispersion=GD3\\force\\0,2\C,-1.35
 16283912,1.8844850804,-3.9441465413\C,0.2068984749,2.2372737236,-4.000
 2655434\C,0.9580458473,0.8685635464,-4.280660643\C,-1.5032537873,0.346
 7388967,-4.2796479047\C,-0.1076112595,-0.1589229809,-4.128801374\C,-2.
 5004408606,-0.2465463876,-3.1664031932\C,-1.8698481537,1.9704868603,-2
 .5426120375\C,-2.5900865488,0.8646340542,-2.1718615667\C,-1.4129944326
 ,2.9148196741,-1.5741083416\C,0.7585276559,2.6448373198,-2.6555403647\
 C,0.0125688808,3.2549886476,-1.6298852026\C,1.9259810899,0.7134847453,
 -3.1180329185\C,1.8919342452,1.873420775,-2.3132432865\C,2.2688418439,
 -0.5106790773,-2.544711505\C,0.167482465,-1.3377993017,-3.5859267577\C
 ,1.5738913061,-1.7418899907,-3.1358374316\C,-2.0130245277,-1.488630563
 2,-2.4272674183\C,-0.8304245511,-2.0862525157,-2.8326452296\C,-2.51617
 83568,-1.7704149592,-1.0948786147\C,-3.0483969114,0.6623600458,-0.8407
 036828\C,-3.1153966415,-0.6890916263,-0.2966099863\C,-2.0429017325,2.8
 662631378,-0.3326884859\C,-2.9137633715,1.7668351157,0.016497839\C,-1.
 3854206354,3.2993914297,0.8878469068\C,0.6804415326,3.4837719766,-0.40
 64388424\C,-0.0308764635,3.5994888244,0.8481724754\C,2.4510535474,1.87
 72616587,-1.0043602999\C,1.9427800566,2.8498216937,-0.120002399\C,2.88
 10476527,-0.5543808286,-1.2673464377\C,3.035615462,0.6501016614,-0.493
 0003356\C,3.1306835456,-1.9146652443,-0.6066560879\C,1.2739847795,-2.7
 65012933,-2.0751763636\C,-0.1359465581,-3.0197357593,-2.0111539608\C,2
 .0331905093,-2.9068653605,-0.9571244729\C,-1.9448826028,-2.8599826277,
 -0.3900508528\C,-0.7255276301,-3.4756991172,-0.8438089318\C,-1.9321003
 577,-2.9276302113,1.0518897438\C,-3.1516188743,-0.8139187018,1.1068426
 449\C,-2.539804063,-1.9311628141,1.7904916299\C,-2.8772560431,1.603749
 5009,1.4445087948\C,-1.9249552888,2.5448960882,1.9954767537\C,-3.01270
 17417,0.3374056675,1.9802162487\C,-1.1061093607,2.152169862,3.05313858
 05\C,0.8338305116,3.1423595819,1.9171438986\C,2.0554427575,2.681086272
 7,1.3006516394\C,0.3082168167,2.4571732418,3.0115055906\C,3.2603832096
 ,0.5720411204,0.9141528485\C,2.7205185409,1.5648359814,1.7992261592\C,
 3.025750672,-1.8731187273,0.9068988167\C,3.1935132746,-0.7067577583,1.
 6080982598\C,1.4560706512,-3.4540269489,0.2363838344\C,0.0978051019,-3
 .781449134,0.2946216687\C,-0.6623221827,-3.4824195326,1.4850332561\C,2
 .0998695881,-2.8557591236,1.3824020551\C,-0.0313016351,-2.9662218768,2
 .6139916645\C,1.3869252905,-2.6577492224,2.5696749814\C,-1.928582842,-
 1.4539945529,3.0159194947\C,-2.2241439481,-0.0457678928,3.1350522917\C
 ,-1.2655683434,0.8344693473,3.6404797339\C,-0.6828249275,-1.9461800249
 ,3.4072521406\C,1.0250346097,1.3245958668,3.5697002032\C,2.220140457,0
 .9036385561,2.9932110608\C,2.5138915013,-0.5060964407,2.8688472327\C,1
 .6085446528,-1.4577866671,3.3368945736\C,0.0484280526,0.3340523583,3.9
 946164239\C,0.3342815444,-1.023467479,3.8813992032\Cl,-2.4085753946,2.
 9624481472,-4.9433899506\Cl,0.6261527305,3.5672636015,-5.1472431215\Cl
 ,1.8115278073,0.748634329,-5.8811498131\Cl,2.5466411736,-2.4962009598,
 -4.5021702957\Cl,-1.9855591094,-0.0029724006,-5.9890929852\Cl,-4.17983
 70618,-0.611739823,-3.8256554381\Cl,4.8153031541,-2.5222581002,-1.1276
 491604\\Version=ES64L-G16RevA.03\State=2-A\HF=-5736.9982791\S2=0.80246
 2\S2-1=0.\S2A=0.752418\RMSD=5.775e-09\RMSF=3.671e-05\Dipole=-0.3013008
 ,0.162908,2.1265554\Quadrupole=-3.3924665,6.1460069,-2.7535404,4.62362
 07,-1.4433691,1.2663508\PG=C01 [X(C66Cl7)]\\@


 "WHERE SHALL I START, PLEASE YOUR MAJESTY?" HE ASKED.
 "BEGIN AT THE BEGINNING," THE KING SAID GRAVELY,
 "AND GO ON TILL YOU COME TO THE END: THEN STOP." 

                                      -- LEWIS CARROLL
 Job cpu time:       4 days  9 hours 57 minutes  1.4 seconds.
 Elapsed time:       0 days  2 hours 12 minutes 39.0 seconds.
 File lengths (MBytes):  RWF=   2038 Int=      0 D2E=      0 Chk=    184 Scr=      1
 Normal termination of Gaussian 16 at Fri Jul 15 07:04:57 2022.
