 Entering Gaussian System, Link 0=g16
 Input=euvkbt3ignu2o_addon_7.gjf
 Output=euvkbt3ignu2o_addon_7.log
 Initial command:
 /home/mkliu/g16/l1.exe "/data/scratch/Gau-96448.inp" -scrdir="/data/scratch/"
 Entering Link 1 = /home/mkliu/g16/l1.exe PID=     96449.
  
 Copyright (c) 1988,1990,1992,1993,1995,1998,2003,2009,2016,
            Gaussian, Inc.  All Rights Reserved.
  
 This is part of the Gaussian(R) 16 program.  It is based on
 the Gaussian(R) 09 system (copyright 2009, Gaussian, Inc.),
 the Gaussian(R) 03 system (copyright 2003, Gaussian, Inc.),
 the Gaussian(R) 98 system (copyright 1998, Gaussian, Inc.),
 the Gaussian(R) 94 system (copyright 1995, Gaussian, Inc.),
 the Gaussian 92(TM) system (copyright 1992, Gaussian, Inc.),
 the Gaussian 90(TM) system (copyright 1990, Gaussian, Inc.),
 the Gaussian 88(TM) system (copyright 1988, Gaussian, Inc.),
 the Gaussian 86(TM) system (copyright 1986, Carnegie Mellon
 University), and the Gaussian 82(TM) system (copyright 1983,
 Carnegie Mellon University). Gaussian is a federally registered
 trademark of Gaussian, Inc.
  
 This software contains proprietary and confidential information,
 including trade secrets, belonging to Gaussian, Inc.
  
 This software is provided under written license and may be
 used, copied, transmitted, or stored only in accord with that
 written license.
  
 The following legend is applicable only to US Government
 contracts under FAR:
  
                    RESTRICTED RIGHTS LEGEND
  
 Use, reproduction and disclosure by the US Government is
 subject to restrictions as set forth in subparagraphs (a)
 and (c) of the Commercial Computer Software - Restricted
 Rights clause in FAR 52.227-19.
  
 Gaussian, Inc.
 340 Quinnipiac St., Bldg. 40, Wallingford CT 06492
  
  
 ---------------------------------------------------------------
 Warning -- This program may not be used in any manner that
 competes with the business of Gaussian, Inc. or will provide
 assistance to any competitor of Gaussian, Inc.  The licensee
 of this program is prohibited from giving any competitor of
 Gaussian, Inc. access to this program.  By using this program,
 the user acknowledges that Gaussian, Inc. is engaged in the
 business of creating and licensing software in the field of
 computational chemistry and represents and warrants to the
 licensee that it is not a competitor of Gaussian, Inc. and that
 it will not use this program in any manner prohibited above.
 ---------------------------------------------------------------
  

 Cite this work as:
 Gaussian 16, Revision A.03,
 M. J. Frisch, G. W. Trucks, H. B. Schlegel, G. E. Scuseria, 
 M. A. Robb, J. R. Cheeseman, G. Scalmani, V. Barone, 
 G. A. Petersson, H. Nakatsuji, X. Li, M. Caricato, A. V. Marenich, 
 J. Bloino, B. G. Janesko, R. Gomperts, B. Mennucci, H. P. Hratchian, 
 J. V. Ortiz, A. F. Izmaylov, J. L. Sonnenberg, D. Williams-Young, 
 F. Ding, F. Lipparini, F. Egidi, J. Goings, B. Peng, A. Petrone, 
 T. Henderson, D. Ranasinghe, V. G. Zakrzewski, J. Gao, N. Rega, 
 G. Zheng, W. Liang, M. Hada, M. Ehara, K. Toyota, R. Fukuda, 
 J. Hasegawa, M. Ishida, T. Nakajima, Y. Honda, O. Kitao, H. Nakai, 
 T. Vreven, K. Throssell, J. A. Montgomery, Jr., J. E. Peralta, 
 F. Ogliaro, M. J. Bearpark, J. J. Heyd, E. N. Brothers, K. N. Kudin, 
 V. N. Staroverov, T. A. Keith, R. Kobayashi, J. Normand, 
 K. Raghavachari, A. P. Rendell, J. C. Burant, S. S. Iyengar, 
 J. Tomasi, M. Cossi, J. M. Millam, M. Klene, C. Adamo, R. Cammi, 
 J. W. Ochterski, R. L. Martin, K. Morokuma, O. Farkas, 
 J. B. Foresman, and D. J. Fox, Gaussian, Inc., Wallingford CT, 2016.
 
 ******************************************
 Gaussian 16:  ES64L-G16RevA.03 25-Dec-2016
                16-Jul-2022 
 ******************************************
 %mem=10GB
 %chk=euvkbt3ignu2o_addon_7.chk
 %nprocshared=48
 Will use up to   48 processors via shared memory.
 -------------------------------------------------
 #P opt b3lyp/6-311G(d, p) empiricaldispersion=GD3
 -------------------------------------------------
 1/18=20,19=15,26=3,38=1/1,3;
 2/9=110,12=2,17=6,18=5,40=1/2;
 3/5=4,6=6,7=101,11=2,25=1,30=1,71=1,74=-5,124=31/1,2,3;
 4//1;
 5/5=2,38=5/2;
 6/7=2,8=2,9=2,10=2,28=1/1;
 7//1,2,3,16;
 1/18=20,19=15,26=3/3(2);
 2/9=110/2;
 99//99;
 2/9=110/2;
 3/5=4,6=6,7=101,11=2,25=1,30=1,71=1,74=-5,124=31/1,2,3;
 4/5=5,16=3,69=1/1;
 5/5=2,38=5/2;
 7//1,2,3,16;
 1/18=20,19=15,26=3/3(-5);
 2/9=110/2;
 6/7=2,8=2,9=2,10=2,19=2,28=1/1;
 99/9=1/99;
 Leave Link    1 at Sat Jul 16 11:51:31 2022, MaxMem=  1342177280 cpu:               2.2 elap:               0.1
 (Enter /home/mkliu/g16/l101.exe)
 -----
 force
 -----
 Symbolic Z-matrix:
 Charge =  0 Multiplicity = 2
 C                    -1.30483   1.87786  -3.89575 
 C                     0.20768   2.25611  -4.06951 
 C                     0.92981   0.88506  -4.22658 
 C                    -1.4835    0.36207  -4.22502 
 C                    -0.10989  -0.15642  -4.07072 
 C                    -2.43965  -0.23484  -3.13651 
 C                    -1.80359   1.95748  -2.50921 
 C                    -2.52549   0.8648   -2.13423 
 C                    -1.34591   2.87037  -1.53072 
 C                     0.87728   2.90026  -2.79599 
 C                     0.01359   3.25567  -1.61657 
 C                     1.8195    0.71032  -3.03648 
 C                     1.84194   1.85595  -2.28315 
 C                     2.20551  -0.51561  -2.49885 
 C                     0.19351  -1.33801  -3.54591 
 C                     1.57779  -1.74951  -3.10763 
 C                    -1.97972  -1.47445  -2.40932 
 C                    -0.81839  -2.08819  -2.80294 
 C                    -2.50539  -1.76879  -1.08781 
 C                    -3.0203    0.65106  -0.82274 
 C                    -3.08817  -0.69508  -0.30288 
 C                    -1.99751   2.80612  -0.30418 
 C                    -2.87173   1.73482   0.0351 
 C                    -1.37689   3.25462   0.89662 
 C                     0.66457   3.47853  -0.4089 
 C                    -0.03974   3.5662    0.84338 
 C                     2.41678   1.86832  -1.00302 
 C                     1.93819   2.85205  -0.11058 
 C                     2.85484  -0.57983  -1.25061 
 C                     2.98172   0.64794  -0.49405 
 C                     2.88466  -1.82251  -0.54855 
 C                     1.27675  -2.80493  -2.09596 
 C                    -0.12894  -3.04447  -2.01053 
 C                     2.01849  -2.92001  -0.95963 
 C                    -1.91244  -2.83487  -0.39733 
 C                    -0.71263  -3.47337  -0.83563 
 C                    -1.90836  -2.91628   1.0373 
 C                    -3.11954  -0.8197    1.09569 
 C                    -2.51009  -1.92624   1.76975 
 C                    -2.86078   1.58121   1.45191 
 C                    -1.92369   2.52061   2.0049 
 C                    -2.99262   0.31499   1.96946 
 C                    -1.10152   2.1297    3.04128 
 C                     0.82252   3.12746   1.90691 
 C                     2.03995   2.67154   1.28932 
 C                     0.30751   2.43722   2.98639 
 C                     3.21003   0.56294   0.89097 
 C                     2.70016   1.55804   1.79067 
 C                     2.98785  -1.86562   0.85665 
 C                     3.16495  -0.69118   1.57616 
 C                     1.45697  -3.50414   0.23824 
 C                     0.10212  -3.7927    0.29789 
 C                    -0.65926  -3.48485   1.47477 
 C                     2.09632  -2.89219   1.3638 
 C                    -0.0239   -2.96213   2.5865 
 C                     1.38357  -2.65453   2.52516 
 C                    -1.91025  -1.45541   2.99159 
 C                    -2.20812  -0.06226   3.11368 
 C                    -1.25497   0.8178    3.60803 
 C                    -0.66655  -1.93808   3.36143 
 C                     1.02126   1.31079   3.53995 
 C                     2.2148    0.90205   2.97235 
 C                     2.50781  -0.50363   2.84024 
 C                     1.60263  -1.44722   3.28289 
 C                     0.05283   0.32654   3.94987 
 C                     0.33966  -1.02384   3.82736 
 Cl                   -2.396     2.90858  -4.86591 
 Cl                    0.40915   3.24709  -5.52394 
 Cl                    1.84915   0.67597  -5.74291 
 Cl                    2.64605  -2.36576  -4.4321 
 Cl                   -2.01599   0.0955   -5.90275 
 Cl                   -4.08677  -0.56289  -3.81367 
 Cl                    1.82823   4.38894  -3.22369 
 
 ITRead=  0  0  0  0  0  0  0  0  0  0  0  0  0  0  0  0  0  0  0  0
 ITRead=  0  0  0  0  0  0  0  0  0  0  0  0  0  0  0  0  0  0  0  0
 ITRead=  0  0  0  0  0  0  0  0  0  0  0  0  0  0  0  0  0  0  0  0
 ITRead=  0  0  0  0  0  0  0  0  0  0  0  0  0
 MicOpt= -1 -1 -1 -1 -1 -1 -1 -1 -1 -1 -1 -1 -1 -1 -1 -1 -1 -1 -1 -1
 MicOpt= -1 -1 -1 -1 -1 -1 -1 -1 -1 -1 -1 -1 -1 -1 -1 -1 -1 -1 -1 -1
 MicOpt= -1 -1 -1 -1 -1 -1 -1 -1 -1 -1 -1 -1 -1 -1 -1 -1 -1 -1 -1 -1
 MicOpt= -1 -1 -1 -1 -1 -1 -1 -1 -1 -1 -1 -1 -1
 NAtoms=     73 NQM=       73 NQMF=       0 NMMI=      0 NMMIF=      0
                NMic=       0 NMicF=      0.
                    Isotopes and Nuclear Properties:
 (Nuclear quadrupole moments (NQMom) in fm**2, nuclear magnetic moments (NMagM)
  in nuclear magnetons)

  Atom         1           2           3           4           5           6           7           8           9          10
 IAtWgt=          12          12          12          12          12          12          12          12          12          12
 AtmWgt=  12.0000000  12.0000000  12.0000000  12.0000000  12.0000000  12.0000000  12.0000000  12.0000000  12.0000000  12.0000000
 NucSpn=           0           0           0           0           0           0           0           0           0           0
 AtZEff=  -0.0000000  -0.0000000  -0.0000000  -0.0000000  -0.0000000  -0.0000000  -0.0000000  -0.0000000  -0.0000000  -0.0000000
 NQMom=    0.0000000   0.0000000   0.0000000   0.0000000   0.0000000   0.0000000   0.0000000   0.0000000   0.0000000   0.0000000
 NMagM=    0.0000000   0.0000000   0.0000000   0.0000000   0.0000000   0.0000000   0.0000000   0.0000000   0.0000000   0.0000000
 AtZNuc=   6.0000000   6.0000000   6.0000000   6.0000000   6.0000000   6.0000000   6.0000000   6.0000000   6.0000000   6.0000000

  Atom        11          12          13          14          15          16          17          18          19          20
 IAtWgt=          12          12          12          12          12          12          12          12          12          12
 AtmWgt=  12.0000000  12.0000000  12.0000000  12.0000000  12.0000000  12.0000000  12.0000000  12.0000000  12.0000000  12.0000000
 NucSpn=           0           0           0           0           0           0           0           0           0           0
 AtZEff=  -0.0000000  -0.0000000  -0.0000000  -0.0000000  -0.0000000  -0.0000000  -0.0000000  -0.0000000  -0.0000000  -0.0000000
 NQMom=    0.0000000   0.0000000   0.0000000   0.0000000   0.0000000   0.0000000   0.0000000   0.0000000   0.0000000   0.0000000
 NMagM=    0.0000000   0.0000000   0.0000000   0.0000000   0.0000000   0.0000000   0.0000000   0.0000000   0.0000000   0.0000000
 AtZNuc=   6.0000000   6.0000000   6.0000000   6.0000000   6.0000000   6.0000000   6.0000000   6.0000000   6.0000000   6.0000000

  Atom        21          22          23          24          25          26          27          28          29          30
 IAtWgt=          12          12          12          12          12          12          12          12          12          12
 AtmWgt=  12.0000000  12.0000000  12.0000000  12.0000000  12.0000000  12.0000000  12.0000000  12.0000000  12.0000000  12.0000000
 NucSpn=           0           0           0           0           0           0           0           0           0           0
 AtZEff=  -0.0000000  -0.0000000  -0.0000000  -0.0000000  -0.0000000  -0.0000000  -0.0000000  -0.0000000  -0.0000000  -0.0000000
 NQMom=    0.0000000   0.0000000   0.0000000   0.0000000   0.0000000   0.0000000   0.0000000   0.0000000   0.0000000   0.0000000
 NMagM=    0.0000000   0.0000000   0.0000000   0.0000000   0.0000000   0.0000000   0.0000000   0.0000000   0.0000000   0.0000000
 AtZNuc=   6.0000000   6.0000000   6.0000000   6.0000000   6.0000000   6.0000000   6.0000000   6.0000000   6.0000000   6.0000000

  Atom        31          32          33          34          35          36          37          38          39          40
 IAtWgt=          12          12          12          12          12          12          12          12          12          12
 AtmWgt=  12.0000000  12.0000000  12.0000000  12.0000000  12.0000000  12.0000000  12.0000000  12.0000000  12.0000000  12.0000000
 NucSpn=           0           0           0           0           0           0           0           0           0           0
 AtZEff=  -0.0000000  -0.0000000  -0.0000000  -0.0000000  -0.0000000  -0.0000000  -0.0000000  -0.0000000  -0.0000000  -0.0000000
 NQMom=    0.0000000   0.0000000   0.0000000   0.0000000   0.0000000   0.0000000   0.0000000   0.0000000   0.0000000   0.0000000
 NMagM=    0.0000000   0.0000000   0.0000000   0.0000000   0.0000000   0.0000000   0.0000000   0.0000000   0.0000000   0.0000000
 AtZNuc=   6.0000000   6.0000000   6.0000000   6.0000000   6.0000000   6.0000000   6.0000000   6.0000000   6.0000000   6.0000000

  Atom        41          42          43          44          45          46          47          48          49          50
 IAtWgt=          12          12          12          12          12          12          12          12          12          12
 AtmWgt=  12.0000000  12.0000000  12.0000000  12.0000000  12.0000000  12.0000000  12.0000000  12.0000000  12.0000000  12.0000000
 NucSpn=           0           0           0           0           0           0           0           0           0           0
 AtZEff=  -0.0000000  -0.0000000  -0.0000000  -0.0000000  -0.0000000  -0.0000000  -0.0000000  -0.0000000  -0.0000000  -0.0000000
 NQMom=    0.0000000   0.0000000   0.0000000   0.0000000   0.0000000   0.0000000   0.0000000   0.0000000   0.0000000   0.0000000
 NMagM=    0.0000000   0.0000000   0.0000000   0.0000000   0.0000000   0.0000000   0.0000000   0.0000000   0.0000000   0.0000000
 AtZNuc=   6.0000000   6.0000000   6.0000000   6.0000000   6.0000000   6.0000000   6.0000000   6.0000000   6.0000000   6.0000000

  Atom        51          52          53          54          55          56          57          58          59          60
 IAtWgt=          12          12          12          12          12          12          12          12          12          12
 AtmWgt=  12.0000000  12.0000000  12.0000000  12.0000000  12.0000000  12.0000000  12.0000000  12.0000000  12.0000000  12.0000000
 NucSpn=           0           0           0           0           0           0           0           0           0           0
 AtZEff=  -0.0000000  -0.0000000  -0.0000000  -0.0000000  -0.0000000  -0.0000000  -0.0000000  -0.0000000  -0.0000000  -0.0000000
 NQMom=    0.0000000   0.0000000   0.0000000   0.0000000   0.0000000   0.0000000   0.0000000   0.0000000   0.0000000   0.0000000
 NMagM=    0.0000000   0.0000000   0.0000000   0.0000000   0.0000000   0.0000000   0.0000000   0.0000000   0.0000000   0.0000000
 AtZNuc=   6.0000000   6.0000000   6.0000000   6.0000000   6.0000000   6.0000000   6.0000000   6.0000000   6.0000000   6.0000000

  Atom        61          62          63          64          65          66          67          68          69          70
 IAtWgt=          12          12          12          12          12          12          35          35          35          35
 AtmWgt=  12.0000000  12.0000000  12.0000000  12.0000000  12.0000000  12.0000000  34.9688527  34.9688527  34.9688527  34.9688527
 NucSpn=           0           0           0           0           0           0           3           3           3           3
 AtZEff=  -0.0000000  -0.0000000  -0.0000000  -0.0000000  -0.0000000  -0.0000000  -0.0000000  -0.0000000  -0.0000000  -0.0000000
 NQMom=    0.0000000   0.0000000   0.0000000   0.0000000   0.0000000   0.0000000  -8.1650000  -8.1650000  -8.1650000  -8.1650000
 NMagM=    0.0000000   0.0000000   0.0000000   0.0000000   0.0000000   0.0000000   0.8218740   0.8218740   0.8218740   0.8218740
 AtZNuc=   6.0000000   6.0000000   6.0000000   6.0000000   6.0000000   6.0000000  17.0000000  17.0000000  17.0000000  17.0000000

  Atom        71          72          73
 IAtWgt=          35          35          35
 AtmWgt=  34.9688527  34.9688527  34.9688527
 NucSpn=           3           3           3
 AtZEff=  -0.0000000  -0.0000000  -0.0000000
 NQMom=   -8.1650000  -8.1650000  -8.1650000
 NMagM=    0.8218740   0.8218740   0.8218740
 AtZNuc=  17.0000000  17.0000000  17.0000000
 Leave Link  101 at Sat Jul 16 11:51:31 2022, MaxMem=  1342177280 cpu:              13.6 elap:               0.3
 (Enter /home/mkliu/g16/l103.exe)

 GradGradGradGradGradGradGradGradGradGradGradGradGradGradGradGradGradGrad
 Berny optimization.
 Initialization pass.
                           ----------------------------
                           !    Initial Parameters    !
                           ! (Angstroms and Degrees)  !
 --------------------------                            --------------------------
 ! Name  Definition              Value          Derivative Info.                !
 --------------------------------------------------------------------------------
 ! R1    R(1,2)                  1.5687         estimate D2E/DX2                !
 ! R2    R(1,4)                  1.5614         estimate D2E/DX2                !
 ! R3    R(1,7)                  1.4757         estimate D2E/DX2                !
 ! R4    R(1,67)                 1.7872         estimate D2E/DX2                !
 ! R5    R(2,3)                  1.5575         estimate D2E/DX2                !
 ! R6    R(2,10)                 1.5764         estimate D2E/DX2                !
 ! R7    R(2,68)                 1.7714         estimate D2E/DX2                !
 ! R8    R(3,5)                  1.4799         estimate D2E/DX2                !
 ! R9    R(3,12)                 1.4961         estimate D2E/DX2                !
 ! R10   R(3,69)                 1.7855         estimate D2E/DX2                !
 ! R11   R(4,5)                  1.4763         estimate D2E/DX2                !
 ! R12   R(4,6)                  1.567          estimate D2E/DX2                !
 ! R13   R(4,71)                 1.7803         estimate D2E/DX2                !
 ! R14   R(5,15)                 1.328          estimate D2E/DX2                !
 ! R15   R(6,8)                  1.4903         estimate D2E/DX2                !
 ! R16   R(6,17)                 1.509          estimate D2E/DX2                !
 ! R17   R(6,72)                 1.8108         estimate D2E/DX2                !
 ! R18   R(7,8)                  1.3622         estimate D2E/DX2                !
 ! R19   R(7,9)                  1.4143         estimate D2E/DX2                !
 ! R20   R(8,20)                 1.4179         estimate D2E/DX2                !
 ! R21   R(9,11)                 1.4156         estimate D2E/DX2                !
 ! R22   R(9,22)                 1.3904         estimate D2E/DX2                !
 ! R23   R(10,11)                1.5044         estimate D2E/DX2                !
 ! R24   R(10,13)                1.5113         estimate D2E/DX2                !
 ! R25   R(10,73)                1.8175         estimate D2E/DX2                !
 ! R26   R(11,25)                1.3899         estimate D2E/DX2                !
 ! R27   R(12,13)                1.3713         estimate D2E/DX2                !
 ! R28   R(12,14)                1.3932         estimate D2E/DX2                !
 ! R29   R(13,27)                1.4033         estimate D2E/DX2                !
 ! R30   R(14,16)                1.5123         estimate D2E/DX2                !
 ! R31   R(14,29)                1.4085         estimate D2E/DX2                !
 ! R32   R(15,16)                1.5092         estimate D2E/DX2                !
 ! R33   R(15,18)                1.4624         estimate D2E/DX2                !
 ! R34   R(16,32)                1.4927         estimate D2E/DX2                !
 ! R35   R(16,70)                1.8097         estimate D2E/DX2                !
 ! R36   R(17,18)                1.3712         estimate D2E/DX2                !
 ! R37   R(17,19)                1.4524         estimate D2E/DX2                !
 ! R38   R(18,33)                1.4205         estimate D2E/DX2                !
 ! R39   R(19,21)                1.4521         estimate D2E/DX2                !
 ! R40   R(19,35)                1.4017         estimate D2E/DX2                !
 ! R41   R(20,21)                1.4446         estimate D2E/DX2                !
 ! R42   R(20,23)                1.3901         estimate D2E/DX2                !
 ! R43   R(21,38)                1.4045         estimate D2E/DX2                !
 ! R44   R(22,23)                1.4237         estimate D2E/DX2                !
 ! R45   R(22,24)                1.4242         estimate D2E/DX2                !
 ! R46   R(23,40)                1.4252         estimate D2E/DX2                !
 ! R47   R(24,26)                1.374          estimate D2E/DX2                !
 ! R48   R(24,41)                1.4374         estimate D2E/DX2                !
 ! R49   R(25,26)                1.4394         estimate D2E/DX2                !
 ! R50   R(25,28)                1.4504         estimate D2E/DX2                !
 ! R51   R(26,44)                1.4377         estimate D2E/DX2                !
 ! R52   R(27,28)                1.4118         estimate D2E/DX2                !
 ! R53   R(27,30)                1.4379         estimate D2E/DX2                !
 ! R54   R(28,45)                1.4152         estimate D2E/DX2                !
 ! R55   R(29,30)                1.4477         estimate D2E/DX2                !
 ! R56   R(29,31)                1.4276         estimate D2E/DX2                !
 ! R57   R(30,47)                1.4063         estimate D2E/DX2                !
 ! R58   R(31,34)                1.4573         estimate D2E/DX2                !
 ! R59   R(31,49)                1.4096         estimate D2E/DX2                !
 ! R60   R(32,33)                1.4285         estimate D2E/DX2                !
 ! R61   R(32,34)                1.3619         estimate D2E/DX2                !
 ! R62   R(33,36)                1.3802         estimate D2E/DX2                !
 ! R63   R(34,51)                1.4462         estimate D2E/DX2                !
 ! R64   R(35,36)                1.4281         estimate D2E/DX2                !
 ! R65   R(35,37)                1.437          estimate D2E/DX2                !
 ! R66   R(36,52)                1.432          estimate D2E/DX2                !
 ! R67   R(37,39)                1.3707         estimate D2E/DX2                !
 ! R68   R(37,53)                1.4405         estimate D2E/DX2                !
 ! R69   R(38,39)                1.4319         estimate D2E/DX2                !
 ! R70   R(38,42)                1.4377         estimate D2E/DX2                !
 ! R71   R(39,57)                1.4403         estimate D2E/DX2                !
 ! R72   R(40,41)                1.4375         estimate D2E/DX2                !
 ! R73   R(40,42)                1.3743         estimate D2E/DX2                !
 ! R74   R(41,43)                1.3794         estimate D2E/DX2                !
 ! R75   R(42,58)                1.4377         estimate D2E/DX2                !
 ! R76   R(43,46)                1.4432         estimate D2E/DX2                !
 ! R77   R(43,59)                1.4373         estimate D2E/DX2                !
 ! R78   R(44,45)                1.4392         estimate D2E/DX2                !
 ! R79   R(44,46)                1.3809         estimate D2E/DX2                !
 ! R80   R(45,48)                1.3882         estimate D2E/DX2                !
 ! R81   R(46,61)                1.4439         estimate D2E/DX2                !
 ! R82   R(47,48)                1.4352         estimate D2E/DX2                !
 ! R83   R(47,50)                1.4298         estimate D2E/DX2                !
 ! R84   R(48,62)                1.4361         estimate D2E/DX2                !
 ! R85   R(49,50)                1.3887         estimate D2E/DX2                !
 ! R86   R(49,54)                1.4512         estimate D2E/DX2                !
 ! R87   R(50,63)                1.437          estimate D2E/DX2                !
 ! R88   R(51,52)                1.3865         estimate D2E/DX2                !
 ! R89   R(51,54)                1.4318         estimate D2E/DX2                !
 ! R90   R(52,53)                1.4351         estimate D2E/DX2                !
 ! R91   R(53,55)                1.3831         estimate D2E/DX2                !
 ! R92   R(54,56)                1.3832         estimate D2E/DX2                !
 ! R93   R(55,56)                1.442          estimate D2E/DX2                !
 ! R94   R(55,60)                1.436          estimate D2E/DX2                !
 ! R95   R(56,64)                1.4421         estimate D2E/DX2                !
 ! R96   R(57,58)                1.4299         estimate D2E/DX2                !
 ! R97   R(57,60)                1.3844         estimate D2E/DX2                !
 ! R98   R(58,59)                1.3883         estimate D2E/DX2                !
 ! R99   R(59,65)                1.4382         estimate D2E/DX2                !
 ! R100  R(60,66)                1.4371         estimate D2E/DX2                !
 ! R101  R(61,62)                1.3834         estimate D2E/DX2                !
 ! R102  R(61,65)                1.4404         estimate D2E/DX2                !
 ! R103  R(62,63)                1.442          estimate D2E/DX2                !
 ! R104  R(63,64)                1.3805         estimate D2E/DX2                !
 ! R105  R(64,66)                1.439          estimate D2E/DX2                !
 ! R106  R(65,66)                1.3859         estimate D2E/DX2                !
 ! A1    A(2,1,4)              108.7265         estimate D2E/DX2                !
 ! A2    A(2,1,7)              114.6417         estimate D2E/DX2                !
 ! A3    A(2,1,67)             112.9214         estimate D2E/DX2                !
 ! A4    A(4,1,7)              102.2305         estimate D2E/DX2                !
 ! A5    A(4,1,67)             112.0566         estimate D2E/DX2                !
 ! A6    A(7,1,67)             105.8169         estimate D2E/DX2                !
 ! A7    A(1,2,3)              104.2373         estimate D2E/DX2                !
 ! A8    A(1,2,10)             114.7446         estimate D2E/DX2                !
 ! A9    A(1,2,68)             109.6022         estimate D2E/DX2                !
 ! A10   A(3,2,10)             104.1359         estimate D2E/DX2                !
 ! A11   A(3,2,68)             110.9106         estimate D2E/DX2                !
 ! A12   A(10,2,68)            112.7296         estimate D2E/DX2                !
 ! A13   A(2,3,5)              106.4484         estimate D2E/DX2                !
 ! A14   A(2,3,12)             107.3557         estimate D2E/DX2                !
 ! A15   A(2,3,69)             115.3051         estimate D2E/DX2                !
 ! A16   A(5,3,12)             104.5846         estimate D2E/DX2                !
 ! A17   A(5,3,69)             111.6398         estimate D2E/DX2                !
 ! A18   A(12,3,69)            110.8339         estimate D2E/DX2                !
 ! A19   A(1,4,5)              102.2651         estimate D2E/DX2                !
 ! A20   A(1,4,6)              107.0462         estimate D2E/DX2                !
 ! A21   A(1,4,71)             112.23           estimate D2E/DX2                !
 ! A22   A(5,4,6)              111.1831         estimate D2E/DX2                !
 ! A23   A(5,4,71)             108.9179         estimate D2E/DX2                !
 ! A24   A(6,4,71)             114.5255         estimate D2E/DX2                !
 ! A25   A(3,5,4)              113.2984         estimate D2E/DX2                !
 ! A26   A(3,5,15)             120.4834         estimate D2E/DX2                !
 ! A27   A(4,5,15)             124.4972         estimate D2E/DX2                !
 ! A28   A(4,6,8)              102.7823         estimate D2E/DX2                !
 ! A29   A(4,6,17)             117.4981         estimate D2E/DX2                !
 ! A30   A(4,6,72)             111.3623         estimate D2E/DX2                !
 ! A31   A(8,6,17)             107.4333         estimate D2E/DX2                !
 ! A32   A(8,6,72)             109.4365         estimate D2E/DX2                !
 ! A33   A(17,6,72)            107.9763         estimate D2E/DX2                !
 ! A34   A(1,7,8)              113.2338         estimate D2E/DX2                !
 ! A35   A(1,7,9)              125.1352         estimate D2E/DX2                !
 ! A36   A(8,7,9)              119.9197         estimate D2E/DX2                !
 ! A37   A(6,8,7)              112.0976         estimate D2E/DX2                !
 ! A38   A(6,8,20)             122.0668         estimate D2E/DX2                !
 ! A39   A(7,8,20)             124.0871         estimate D2E/DX2                !
 ! A40   A(7,9,11)             116.3907         estimate D2E/DX2                !
 ! A41   A(7,9,22)             115.3938         estimate D2E/DX2                !
 ! A42   A(11,9,22)            121.0739         estimate D2E/DX2                !
 ! A43   A(2,10,11)            119.0782         estimate D2E/DX2                !
 ! A44   A(2,10,13)            105.2415         estimate D2E/DX2                !
 ! A45   A(2,10,73)            111.5195         estimate D2E/DX2                !
 ! A46   A(11,10,13)           105.2871         estimate D2E/DX2                !
 ! A47   A(11,10,73)           106.9394         estimate D2E/DX2                !
 ! A48   A(13,10,73)           108.1714         estimate D2E/DX2                !
 ! A49   A(9,11,10)            122.3151         estimate D2E/DX2                !
 ! A50   A(9,11,25)            116.1501         estimate D2E/DX2                !
 ! A51   A(10,11,25)           116.7541         estimate D2E/DX2                !
 ! A52   A(3,12,13)            110.4344         estimate D2E/DX2                !
 ! A53   A(3,12,14)            125.0649         estimate D2E/DX2                !
 ! A54   A(13,12,14)           121.2392         estimate D2E/DX2                !
 ! A55   A(10,13,12)           112.3597         estimate D2E/DX2                !
 ! A56   A(10,13,27)           124.395          estimate D2E/DX2                !
 ! A57   A(12,13,27)           121.0105         estimate D2E/DX2                !
 ! A58   A(12,14,16)           116.5896         estimate D2E/DX2                !
 ! A59   A(12,14,29)           120.6533         estimate D2E/DX2                !
 ! A60   A(16,14,29)           120.7237         estimate D2E/DX2                !
 ! A61   A(5,15,16)            124.5354         estimate D2E/DX2                !
 ! A62   A(5,15,18)            119.9396         estimate D2E/DX2                !
 ! A63   A(16,15,18)           110.3198         estimate D2E/DX2                !
 ! A64   A(14,16,15)           105.9712         estimate D2E/DX2                !
 ! A65   A(14,16,32)           112.8162         estimate D2E/DX2                !
 ! A66   A(14,16,70)           109.1125         estimate D2E/DX2                !
 ! A67   A(15,16,32)           101.8077         estimate D2E/DX2                !
 ! A68   A(15,16,70)           114.9444         estimate D2E/DX2                !
 ! A69   A(32,16,70)           111.9816         estimate D2E/DX2                !
 ! A70   A(6,17,18)            119.1757         estimate D2E/DX2                !
 ! A71   A(6,17,19)            119.6472         estimate D2E/DX2                !
 ! A72   A(18,17,19)           118.4911         estimate D2E/DX2                !
 ! A73   A(15,18,17)           120.1494         estimate D2E/DX2                !
 ! A74   A(15,18,33)           107.0318         estimate D2E/DX2                !
 ! A75   A(17,18,33)           123.5217         estimate D2E/DX2                !
 ! A76   A(17,19,21)           119.1603         estimate D2E/DX2                !
 ! A77   A(17,19,35)           116.6945         estimate D2E/DX2                !
 ! A78   A(21,19,35)           117.7658         estimate D2E/DX2                !
 ! A79   A(8,20,21)            119.3211         estimate D2E/DX2                !
 ! A80   A(8,20,23)            114.5791         estimate D2E/DX2                !
 ! A81   A(21,20,23)           120.6246         estimate D2E/DX2                !
 ! A82   A(19,21,20)           118.4006         estimate D2E/DX2                !
 ! A83   A(19,21,38)           118.7921         estimate D2E/DX2                !
 ! A84   A(20,21,38)           116.2366         estimate D2E/DX2                !
 ! A85   A(9,22,23)            122.1921         estimate D2E/DX2                !
 ! A86   A(9,22,24)            121.6699         estimate D2E/DX2                !
 ! A87   A(23,22,24)           107.6751         estimate D2E/DX2                !
 ! A88   A(20,23,22)           120.3438         estimate D2E/DX2                !
 ! A89   A(20,23,40)           122.0236         estimate D2E/DX2                !
 ! A90   A(22,23,40)           108.2575         estimate D2E/DX2                !
 ! A91   A(22,24,26)           117.5705         estimate D2E/DX2                !
 ! A92   A(22,24,41)           108.8758         estimate D2E/DX2                !
 ! A93   A(26,24,41)           121.057          estimate D2E/DX2                !
 ! A94   A(11,25,26)           122.4464         estimate D2E/DX2                !
 ! A95   A(11,25,28)           121.3815         estimate D2E/DX2                !
 ! A96   A(26,25,28)           106.0832         estimate D2E/DX2                !
 ! A97   A(24,26,25)           119.7403         estimate D2E/DX2                !
 ! A98   A(24,26,44)           119.0639         estimate D2E/DX2                !
 ! A99   A(25,26,44)           109.3609         estimate D2E/DX2                !
 ! A100  A(13,27,28)           116.3535         estimate D2E/DX2                !
 ! A101  A(13,27,30)           118.4469         estimate D2E/DX2                !
 ! A102  A(28,27,30)           120.0546         estimate D2E/DX2                !
 ! A103  A(25,28,27)           117.9458         estimate D2E/DX2                !
 ! A104  A(25,28,45)           108.7665         estimate D2E/DX2                !
 ! A105  A(27,28,45)           120.8004         estimate D2E/DX2                !
 ! A106  A(14,29,30)           117.7017         estimate D2E/DX2                !
 ! A107  A(14,29,31)           119.0213         estimate D2E/DX2                !
 ! A108  A(30,29,31)           118.6462         estimate D2E/DX2                !
 ! A109  A(27,30,29)           120.0247         estimate D2E/DX2                !
 ! A110  A(27,30,47)           117.6263         estimate D2E/DX2                !
 ! A111  A(29,30,47)           118.5319         estimate D2E/DX2                !
 ! A112  A(29,31,34)           120.2927         estimate D2E/DX2                !
 ! A113  A(29,31,49)           121.223          estimate D2E/DX2                !
 ! A114  A(34,31,49)           107.5579         estimate D2E/DX2                !
 ! A115  A(16,32,33)           110.9505         estimate D2E/DX2                !
 ! A116  A(16,32,34)           121.0258         estimate D2E/DX2                !
 ! A117  A(33,32,34)           118.1567         estimate D2E/DX2                !
 ! A118  A(18,33,32)           109.3516         estimate D2E/DX2                !
 ! A119  A(18,33,36)           118.6071         estimate D2E/DX2                !
 ! A120  A(32,33,36)           121.2753         estimate D2E/DX2                !
 ! A121  A(31,34,32)           119.6995         estimate D2E/DX2                !
 ! A122  A(31,34,51)           107.5369         estimate D2E/DX2                !
 ! A123  A(32,34,51)           120.9164         estimate D2E/DX2                !
 ! A124  A(19,35,36)           122.9742         estimate D2E/DX2                !
 ! A125  A(19,35,37)           122.4177         estimate D2E/DX2                !
 ! A126  A(36,35,37)           106.1829         estimate D2E/DX2                !
 ! A127  A(33,36,35)           118.5305         estimate D2E/DX2                !
 ! A128  A(33,36,52)           120.1649         estimate D2E/DX2                !
 ! A129  A(35,36,52)           109.559          estimate D2E/DX2                !
 ! A130  A(35,37,39)           119.4285         estimate D2E/DX2                !
 ! A131  A(35,37,53)           109.1501         estimate D2E/DX2                !
 ! A132  A(39,37,53)           120.2323         estimate D2E/DX2                !
 ! A133  A(21,38,39)           121.8601         estimate D2E/DX2                !
 ! A134  A(21,38,42)           122.2212         estimate D2E/DX2                !
 ! A135  A(39,38,42)           106.6329         estimate D2E/DX2                !
 ! A136  A(37,39,38)           119.5706         estimate D2E/DX2                !
 ! A137  A(37,39,57)           120.4386         estimate D2E/DX2                !
 ! A138  A(38,39,57)           108.9046         estimate D2E/DX2                !
 ! A139  A(23,40,41)           108.4821         estimate D2E/DX2                !
 ! A140  A(23,40,42)           118.2274         estimate D2E/DX2                !
 ! A141  A(41,40,42)           121.3182         estimate D2E/DX2                !
 ! A142  A(24,41,40)           106.5644         estimate D2E/DX2                !
 ! A143  A(24,41,43)           119.8196         estimate D2E/DX2                !
 ! A144  A(40,41,43)           119.496          estimate D2E/DX2                !
 ! A145  A(38,42,40)           120.4488         estimate D2E/DX2                !
 ! A146  A(38,42,58)           108.9509         estimate D2E/DX2                !
 ! A147  A(40,42,58)           119.2845         estimate D2E/DX2                !
 ! A148  A(41,43,46)           119.5327         estimate D2E/DX2                !
 ! A149  A(41,43,59)           119.4245         estimate D2E/DX2                !
 ! A150  A(46,43,59)           108.2836         estimate D2E/DX2                !
 ! A151  A(26,44,45)           106.6519         estimate D2E/DX2                !
 ! A152  A(26,44,46)           120.472          estimate D2E/DX2                !
 ! A153  A(45,44,46)           119.5097         estimate D2E/DX2                !
 ! A154  A(28,45,44)           108.8592         estimate D2E/DX2                !
 ! A155  A(28,45,48)           119.5885         estimate D2E/DX2                !
 ! A156  A(44,45,48)           120.0932         estimate D2E/DX2                !
 ! A157  A(43,46,44)           120.0228         estimate D2E/DX2                !
 ! A158  A(43,46,61)           107.5656         estimate D2E/DX2                !
 ! A159  A(44,46,61)           120.3508         estimate D2E/DX2                !
 ! A160  A(30,47,48)           121.1869         estimate D2E/DX2                !
 ! A161  A(30,47,50)           121.3239         estimate D2E/DX2                !
 ! A162  A(48,47,50)           107.2505         estimate D2E/DX2                !
 ! A163  A(45,48,47)           119.916          estimate D2E/DX2                !
 ! A164  A(45,48,62)           120.1882         estimate D2E/DX2                !
 ! A165  A(47,48,62)           108.6147         estimate D2E/DX2                !
 ! A166  A(31,49,50)           119.9983         estimate D2E/DX2                !
 ! A167  A(31,49,54)           108.9683         estimate D2E/DX2                !
 ! A168  A(50,49,54)           119.7062         estimate D2E/DX2                !
 ! A169  A(47,50,49)           119.8374         estimate D2E/DX2                !
 ! A170  A(47,50,63)           108.7538         estimate D2E/DX2                !
 ! A171  A(49,50,63)           120.5212         estimate D2E/DX2                !
 ! A172  A(34,51,52)           119.9411         estimate D2E/DX2                !
 ! A173  A(34,51,54)           107.7657         estimate D2E/DX2                !
 ! A174  A(52,51,54)           119.4358         estimate D2E/DX2                !
 ! A175  A(36,52,51)           118.3914         estimate D2E/DX2                !
 ! A176  A(36,52,53)           107.4243         estimate D2E/DX2                !
 ! A177  A(51,52,53)           120.6011         estimate D2E/DX2                !
 ! A178  A(37,53,52)           107.1981         estimate D2E/DX2                !
 ! A179  A(37,53,55)           119.5574         estimate D2E/DX2                !
 ! A180  A(52,53,55)           119.7714         estimate D2E/DX2                !
 ! A181  A(49,54,51)           107.5739         estimate D2E/DX2                !
 ! A182  A(49,54,56)           119.2393         estimate D2E/DX2                !
 ! A183  A(51,54,56)           120.223          estimate D2E/DX2                !
 ! A184  A(53,55,56)           119.6574         estimate D2E/DX2                !
 ! A185  A(53,55,60)           119.848          estimate D2E/DX2                !
 ! A186  A(56,55,60)           107.9173         estimate D2E/DX2                !
 ! A187  A(54,56,55)           120.1336         estimate D2E/DX2                !
 ! A188  A(54,56,64)           120.4458         estimate D2E/DX2                !
 ! A189  A(55,56,64)           107.7275         estimate D2E/DX2                !
 ! A190  A(39,57,58)           107.7094         estimate D2E/DX2                !
 ! A191  A(39,57,60)           119.131          estimate D2E/DX2                !
 ! A192  A(58,57,60)           120.2675         estimate D2E/DX2                !
 ! A193  A(42,58,57)           107.5403         estimate D2E/DX2                !
 ! A194  A(42,58,59)           119.4514         estimate D2E/DX2                !
 ! A195  A(57,58,59)           120.3325         estimate D2E/DX2                !
 ! A196  A(43,59,58)           120.7637         estimate D2E/DX2                !
 ! A197  A(43,59,65)           107.9634         estimate D2E/DX2                !
 ! A198  A(58,59,65)           119.4984         estimate D2E/DX2                !
 ! A199  A(55,60,57)           120.4312         estimate D2E/DX2                !
 ! A200  A(55,60,66)           108.3771         estimate D2E/DX2                !
 ! A201  A(57,60,66)           119.5913         estimate D2E/DX2                !
 ! A202  A(46,61,62)           119.9799         estimate D2E/DX2                !
 ! A203  A(46,61,65)           108.0503         estimate D2E/DX2                !
 ! A204  A(62,61,65)           119.6665         estimate D2E/DX2                !
 ! A205  A(48,62,61)           119.6203         estimate D2E/DX2                !
 ! A206  A(48,62,63)           107.5316         estimate D2E/DX2                !
 ! A207  A(61,62,63)           120.062          estimate D2E/DX2                !
 ! A208  A(50,63,62)           107.5031         estimate D2E/DX2                !
 ! A209  A(50,63,64)           119.5195         estimate D2E/DX2                !
 ! A210  A(62,63,64)           120.246          estimate D2E/DX2                !
 ! A211  A(56,64,63)           120.2225         estimate D2E/DX2                !
 ! A212  A(56,64,66)           108.1674         estimate D2E/DX2                !
 ! A213  A(63,64,66)           119.7162         estimate D2E/DX2                !
 ! A214  A(59,65,61)           108.0789         estimate D2E/DX2                !
 ! A215  A(59,65,66)           119.9993         estimate D2E/DX2                !
 ! A216  A(61,65,66)           120.0995         estimate D2E/DX2                !
 ! A217  A(60,66,64)           107.7372         estimate D2E/DX2                !
 ! A218  A(60,66,65)           120.2376         estimate D2E/DX2                !
 ! A219  A(64,66,65)           120.116          estimate D2E/DX2                !
 ! D1    D(4,1,2,3)            -10.7968         estimate D2E/DX2                !
 ! D2    D(4,1,2,10)          -124.0238         estimate D2E/DX2                !
 ! D3    D(4,1,2,68)           107.9693         estimate D2E/DX2                !
 ! D4    D(7,1,2,3)            102.8816         estimate D2E/DX2                !
 ! D5    D(7,1,2,10)           -10.3455         estimate D2E/DX2                !
 ! D6    D(7,1,2,68)          -138.3523         estimate D2E/DX2                !
 ! D7    D(67,1,2,3)          -135.8161         estimate D2E/DX2                !
 ! D8    D(67,1,2,10)          110.9568         estimate D2E/DX2                !
 ! D9    D(67,1,2,68)          -17.05           estimate D2E/DX2                !
 ! D10   D(2,1,4,5)             20.1087         estimate D2E/DX2                !
 ! D11   D(2,1,4,6)            137.0733         estimate D2E/DX2                !
 ! D12   D(2,1,4,71)           -96.4605         estimate D2E/DX2                !
 ! D13   D(7,1,4,5)           -101.4893         estimate D2E/DX2                !
 ! D14   D(7,1,4,6)             15.4753         estimate D2E/DX2                !
 ! D15   D(7,1,4,71)           141.9415         estimate D2E/DX2                !
 ! D16   D(67,1,4,5)           145.6342         estimate D2E/DX2                !
 ! D17   D(67,1,4,6)           -97.4012         estimate D2E/DX2                !
 ! D18   D(67,1,4,71)           29.065          estimate D2E/DX2                !
 ! D19   D(2,1,7,8)           -133.0693         estimate D2E/DX2                !
 ! D20   D(2,1,7,9)             31.9141         estimate D2E/DX2                !
 ! D21   D(4,1,7,8)            -15.627          estimate D2E/DX2                !
 ! D22   D(4,1,7,9)            149.3564         estimate D2E/DX2                !
 ! D23   D(67,1,7,8)           101.81           estimate D2E/DX2                !
 ! D24   D(67,1,7,9)           -93.2066         estimate D2E/DX2                !
 ! D25   D(1,2,3,5)             -2.9513         estimate D2E/DX2                !
 ! D26   D(1,2,3,12)          -114.5036         estimate D2E/DX2                !
 ! D27   D(1,2,3,69)           121.4446         estimate D2E/DX2                !
 ! D28   D(10,2,3,5)           117.6608         estimate D2E/DX2                !
 ! D29   D(10,2,3,12)            6.1086         estimate D2E/DX2                !
 ! D30   D(10,2,3,69)         -117.9433         estimate D2E/DX2                !
 ! D31   D(68,2,3,5)          -120.8213         estimate D2E/DX2                !
 ! D32   D(68,2,3,12)          127.6265         estimate D2E/DX2                !
 ! D33   D(68,2,3,69)            3.5746         estimate D2E/DX2                !
 ! D34   D(1,2,10,11)           -7.5557         estimate D2E/DX2                !
 ! D35   D(1,2,10,13)          110.1026         estimate D2E/DX2                !
 ! D36   D(1,2,10,73)         -132.8398         estimate D2E/DX2                !
 ! D37   D(3,2,10,11)         -120.8424         estimate D2E/DX2                !
 ! D38   D(3,2,10,13)           -3.1841         estimate D2E/DX2                !
 ! D39   D(3,2,10,73)          113.8735         estimate D2E/DX2                !
 ! D40   D(68,2,10,11)         118.8561         estimate D2E/DX2                !
 ! D41   D(68,2,10,13)        -123.4856         estimate D2E/DX2                !
 ! D42   D(68,2,10,73)          -6.428          estimate D2E/DX2                !
 ! D43   D(2,3,5,4)             17.0842         estimate D2E/DX2                !
 ! D44   D(2,3,5,15)          -148.6237         estimate D2E/DX2                !
 ! D45   D(12,3,5,4)           130.5503         estimate D2E/DX2                !
 ! D46   D(12,3,5,15)          -35.1575         estimate D2E/DX2                !
 ! D47   D(69,3,5,4)          -109.5425         estimate D2E/DX2                !
 ! D48   D(69,3,5,15)           84.7496         estimate D2E/DX2                !
 ! D49   D(2,3,12,13)           -7.1965         estimate D2E/DX2                !
 ! D50   D(2,3,12,14)          152.4677         estimate D2E/DX2                !
 ! D51   D(5,3,12,13)         -120.0176         estimate D2E/DX2                !
 ! D52   D(5,3,12,14)           39.6466         estimate D2E/DX2                !
 ! D53   D(69,3,12,13)         119.5367         estimate D2E/DX2                !
 ! D54   D(69,3,12,14)         -80.7992         estimate D2E/DX2                !
 ! D55   D(1,4,5,3)            -23.1171         estimate D2E/DX2                !
 ! D56   D(1,4,5,15)           141.9235         estimate D2E/DX2                !
 ! D57   D(6,4,5,3)           -137.0696         estimate D2E/DX2                !
 ! D58   D(6,4,5,15)            27.971          estimate D2E/DX2                !
 ! D59   D(71,4,5,3)            95.8154         estimate D2E/DX2                !
 ! D60   D(71,4,5,15)          -99.1441         estimate D2E/DX2                !
 ! D61   D(1,4,6,8)            -10.6301         estimate D2E/DX2                !
 ! D62   D(1,4,6,17)          -128.3033         estimate D2E/DX2                !
 ! D63   D(1,4,6,72)           106.4431         estimate D2E/DX2                !
 ! D64   D(5,4,6,8)            100.2935         estimate D2E/DX2                !
 ! D65   D(5,4,6,17)           -17.3798         estimate D2E/DX2                !
 ! D66   D(5,4,6,72)          -142.6333         estimate D2E/DX2                !
 ! D67   D(71,4,6,8)          -135.7192         estimate D2E/DX2                !
 ! D68   D(71,4,6,17)          106.6075         estimate D2E/DX2                !
 ! D69   D(71,4,6,72)          -18.646          estimate D2E/DX2                !
 ! D70   D(3,5,15,16)           -1.8708         estimate D2E/DX2                !
 ! D71   D(3,5,15,18)          150.114          estimate D2E/DX2                !
 ! D72   D(4,5,15,16)         -165.902          estimate D2E/DX2                !
 ! D73   D(4,5,15,18)          -13.9172         estimate D2E/DX2                !
 ! D74   D(4,6,8,7)              1.2469         estimate D2E/DX2                !
 ! D75   D(4,6,8,20)          -164.2532         estimate D2E/DX2                !
 ! D76   D(17,6,8,7)           125.8222         estimate D2E/DX2                !
 ! D77   D(17,6,8,20)          -39.6779         estimate D2E/DX2                !
 ! D78   D(72,6,8,7)          -117.1874         estimate D2E/DX2                !
 ! D79   D(72,6,8,20)           77.3126         estimate D2E/DX2                !
 ! D80   D(4,6,17,18)           -5.614          estimate D2E/DX2                !
 ! D81   D(4,6,17,19)          155.544          estimate D2E/DX2                !
 ! D82   D(8,6,17,18)         -120.7577         estimate D2E/DX2                !
 ! D83   D(8,6,17,19)           40.4003         estimate D2E/DX2                !
 ! D84   D(72,6,17,18)         121.3006         estimate D2E/DX2                !
 ! D85   D(72,6,17,19)         -77.5413         estimate D2E/DX2                !
 ! D86   D(1,7,8,6)              9.5632         estimate D2E/DX2                !
 ! D87   D(1,7,8,20)           174.7187         estimate D2E/DX2                !
 ! D88   D(9,7,8,6)           -156.2861         estimate D2E/DX2                !
 ! D89   D(9,7,8,20)             8.8694         estimate D2E/DX2                !
 ! D90   D(1,7,9,11)           -31.7873         estimate D2E/DX2                !
 ! D91   D(1,7,9,22)           177.3607         estimate D2E/DX2                !
 ! D92   D(8,7,9,11)           132.2688         estimate D2E/DX2                !
 ! D93   D(8,7,9,22)           -18.5833         estimate D2E/DX2                !
 ! D94   D(6,8,20,21)           17.9738         estimate D2E/DX2                !
 ! D95   D(6,8,20,23)          172.05           estimate D2E/DX2                !
 ! D96   D(7,8,20,21)         -145.7591         estimate D2E/DX2                !
 ! D97   D(7,8,20,23)            8.3171         estimate D2E/DX2                !
 ! D98   D(7,9,11,10)            9.484          estimate D2E/DX2                !
 ! D99   D(7,9,11,25)         -145.2002         estimate D2E/DX2                !
 ! D100  D(22,9,11,10)         158.5717         estimate D2E/DX2                !
 ! D101  D(22,9,11,25)           3.8874         estimate D2E/DX2                !
 ! D102  D(7,9,22,23)           11.9305         estimate D2E/DX2                !
 ! D103  D(7,9,22,24)          156.0171         estimate D2E/DX2                !
 ! D104  D(11,9,22,23)        -137.4453         estimate D2E/DX2                !
 ! D105  D(11,9,22,24)           6.6413         estimate D2E/DX2                !
 ! D106  D(2,10,11,9)            8.7855         estimate D2E/DX2                !
 ! D107  D(2,10,11,25)         163.327          estimate D2E/DX2                !
 ! D108  D(13,10,11,9)        -108.8492         estimate D2E/DX2                !
 ! D109  D(13,10,11,25)         45.6924         estimate D2E/DX2                !
 ! D110  D(73,10,11,9)         136.2398         estimate D2E/DX2                !
 ! D111  D(73,10,11,25)        -69.2186         estimate D2E/DX2                !
 ! D112  D(2,10,13,12)          -1.1084         estimate D2E/DX2                !
 ! D113  D(2,10,13,27)        -164.1894         estimate D2E/DX2                !
 ! D114  D(11,10,13,12)        125.5235         estimate D2E/DX2                !
 ! D115  D(11,10,13,27)        -37.5575         estimate D2E/DX2                !
 ! D116  D(73,10,13,12)       -120.4213         estimate D2E/DX2                !
 ! D117  D(73,10,13,27)         76.4976         estimate D2E/DX2                !
 ! D118  D(9,11,25,26)         -11.4173         estimate D2E/DX2                !
 ! D119  D(9,11,25,28)         129.1448         estimate D2E/DX2                !
 ! D120  D(10,11,25,26)       -167.5447         estimate D2E/DX2                !
 ! D121  D(10,11,25,28)        -26.9826         estimate D2E/DX2                !
 ! D122  D(3,12,13,10)           5.2411         estimate D2E/DX2                !
 ! D123  D(3,12,13,27)         168.9699         estimate D2E/DX2                !
 ! D124  D(14,12,13,10)       -155.3272         estimate D2E/DX2                !
 ! D125  D(14,12,13,27)          8.4016         estimate D2E/DX2                !
 ! D126  D(3,12,14,16)          -5.2363         estimate D2E/DX2                !
 ! D127  D(3,12,14,29)        -169.1343         estimate D2E/DX2                !
 ! D128  D(13,12,14,16)        152.3757         estimate D2E/DX2                !
 ! D129  D(13,12,14,29)        -11.5223         estimate D2E/DX2                !
 ! D130  D(10,13,27,28)          6.8603         estimate D2E/DX2                !
 ! D131  D(10,13,27,30)        161.555          estimate D2E/DX2                !
 ! D132  D(12,13,27,28)       -154.838          estimate D2E/DX2                !
 ! D133  D(12,13,27,30)         -0.1433         estimate D2E/DX2                !
 ! D134  D(12,14,16,15)        -31.9732         estimate D2E/DX2                !
 ! D135  D(12,14,16,32)       -142.5409         estimate D2E/DX2                !
 ! D136  D(12,14,16,70)         92.3207         estimate D2E/DX2                !
 ! D137  D(29,14,16,15)        131.9127         estimate D2E/DX2                !
 ! D138  D(29,14,16,32)         21.345          estimate D2E/DX2                !
 ! D139  D(29,14,16,70)       -103.7934         estimate D2E/DX2                !
 ! D140  D(12,14,29,30)          6.1212         estimate D2E/DX2                !
 ! D141  D(12,14,29,31)        161.6967         estimate D2E/DX2                !
 ! D142  D(16,14,29,30)       -157.11           estimate D2E/DX2                !
 ! D143  D(16,14,29,31)         -1.5345         estimate D2E/DX2                !
 ! D144  D(5,15,16,14)          37.536          estimate D2E/DX2                !
 ! D145  D(5,15,16,32)         155.6934         estimate D2E/DX2                !
 ! D146  D(5,15,16,70)         -83.043          estimate D2E/DX2                !
 ! D147  D(18,15,16,14)       -116.7401         estimate D2E/DX2                !
 ! D148  D(18,15,16,32)          1.4173         estimate D2E/DX2                !
 ! D149  D(18,15,16,70)        122.6809         estimate D2E/DX2                !
 ! D150  D(5,15,18,17)         -13.3913         estimate D2E/DX2                !
 ! D151  D(5,15,18,33)        -161.1572         estimate D2E/DX2                !
 ! D152  D(16,15,18,17)        142.2399         estimate D2E/DX2                !
 ! D153  D(16,15,18,33)         -5.5261         estimate D2E/DX2                !
 ! D154  D(14,16,32,33)        116.383          estimate D2E/DX2                !
 ! D155  D(14,16,32,34)        -28.6954         estimate D2E/DX2                !
 ! D156  D(15,16,32,33)          3.2473         estimate D2E/DX2                !
 ! D157  D(15,16,32,34)       -141.8311         estimate D2E/DX2                !
 ! D158  D(70,16,32,33)       -120.0522         estimate D2E/DX2                !
 ! D159  D(70,16,32,34)         94.8694         estimate D2E/DX2                !
 ! D160  D(6,17,18,15)          21.972          estimate D2E/DX2                !
 ! D161  D(6,17,18,33)         164.2572         estimate D2E/DX2                !
 ! D162  D(19,17,18,15)       -139.404          estimate D2E/DX2                !
 ! D163  D(19,17,18,33)          2.8812         estimate D2E/DX2                !
 ! D164  D(6,17,19,21)         -20.6267         estimate D2E/DX2                !
 ! D165  D(6,17,19,35)        -171.9905         estimate D2E/DX2                !
 ! D166  D(18,17,19,21)        140.6595         estimate D2E/DX2                !
 ! D167  D(18,17,19,35)        -10.7043         estimate D2E/DX2                !
 ! D168  D(15,18,33,32)          7.5353         estimate D2E/DX2                !
 ! D169  D(15,18,33,36)        152.4492         estimate D2E/DX2                !
 ! D170  D(17,18,33,32)       -138.8751         estimate D2E/DX2                !
 ! D171  D(17,18,33,36)          6.0387         estimate D2E/DX2                !
 ! D172  D(17,19,21,20)         -5.1649         estimate D2E/DX2                !
 ! D173  D(17,19,21,38)       -155.6961         estimate D2E/DX2                !
 ! D174  D(35,19,21,20)        145.896          estimate D2E/DX2                !
 ! D175  D(35,19,21,38)         -4.6352         estimate D2E/DX2                !
 ! D176  D(17,19,35,36)         10.3719         estimate D2E/DX2                !
 ! D177  D(17,19,35,37)        154.0355         estimate D2E/DX2                !
 ! D178  D(21,19,35,36)       -141.4012         estimate D2E/DX2                !
 ! D179  D(21,19,35,37)          2.2624         estimate D2E/DX2                !
 ! D180  D(8,20,21,19)           6.8489         estimate D2E/DX2                !
 ! D181  D(8,20,21,38)         158.1211         estimate D2E/DX2                !
 ! D182  D(23,20,21,19)       -145.6348         estimate D2E/DX2                !
 ! D183  D(23,20,21,38)          5.6374         estimate D2E/DX2                !
 ! D184  D(8,20,23,22)         -14.9503         estimate D2E/DX2                !
 ! D185  D(8,20,23,40)        -157.5392         estimate D2E/DX2                !
 ! D186  D(21,20,23,22)        138.7574         estimate D2E/DX2                !
 ! D187  D(21,20,23,40)         -3.8314         estimate D2E/DX2                !
 ! D188  D(19,21,38,39)          4.5336         estimate D2E/DX2                !
 ! D189  D(19,21,38,42)        146.7238         estimate D2E/DX2                !
 ! D190  D(20,21,38,39)       -146.6213         estimate D2E/DX2                !
 ! D191  D(20,21,38,42)         -4.4311         estimate D2E/DX2                !
 ! D192  D(9,22,23,20)           5.1341         estimate D2E/DX2                !
 ! D193  D(9,22,23,40)         152.2878         estimate D2E/DX2                !
 ! D194  D(24,22,23,20)       -143.2684         estimate D2E/DX2                !
 ! D195  D(24,22,23,40)          3.8853         estimate D2E/DX2                !
 ! D196  D(9,22,24,26)          -9.6569         estimate D2E/DX2                !
 ! D197  D(9,22,24,41)        -152.1777         estimate D2E/DX2                !
 ! D198  D(23,22,24,26)        138.945          estimate D2E/DX2                !
 ! D199  D(23,22,24,41)         -3.5759         estimate D2E/DX2                !
 ! D200  D(20,23,40,41)        143.7452         estimate D2E/DX2                !
 ! D201  D(20,23,40,42)          0.4755         estimate D2E/DX2                !
 ! D202  D(22,23,40,41)         -2.7437         estimate D2E/DX2                !
 ! D203  D(22,23,40,42)       -146.0134         estimate D2E/DX2                !
 ! D204  D(22,24,26,25)          2.2429         estimate D2E/DX2                !
 ! D205  D(22,24,26,44)       -136.7245         estimate D2E/DX2                !
 ! D206  D(41,24,26,25)        140.0142         estimate D2E/DX2                !
 ! D207  D(41,24,26,44)          1.0468         estimate D2E/DX2                !
 ! D208  D(22,24,41,40)          1.8792         estimate D2E/DX2                !
 ! D209  D(22,24,41,43)        141.5688         estimate D2E/DX2                !
 ! D210  D(26,24,41,40)       -139.098          estimate D2E/DX2                !
 ! D211  D(26,24,41,43)          0.5917         estimate D2E/DX2                !
 ! D212  D(11,25,26,24)          8.5313         estimate D2E/DX2                !
 ! D213  D(11,25,26,44)        151.0705         estimate D2E/DX2                !
 ! D214  D(28,25,26,24)       -137.1075         estimate D2E/DX2                !
 ! D215  D(28,25,26,44)          5.4318         estimate D2E/DX2                !
 ! D216  D(11,25,28,27)         -8.3277         estimate D2E/DX2                !
 ! D217  D(11,25,28,45)       -150.7413         estimate D2E/DX2                !
 ! D218  D(26,25,28,27)        137.7607         estimate D2E/DX2                !
 ! D219  D(26,25,28,45)         -4.6529         estimate D2E/DX2                !
 ! D220  D(24,26,44,45)        138.6648         estimate D2E/DX2                !
 ! D221  D(24,26,44,46)         -1.9151         estimate D2E/DX2                !
 ! D222  D(25,26,44,45)         -4.1649         estimate D2E/DX2                !
 ! D223  D(25,26,44,46)       -144.7449         estimate D2E/DX2                !
 ! D224  D(13,27,28,25)         18.2978         estimate D2E/DX2                !
 ! D225  D(13,27,28,45)        156.0481         estimate D2E/DX2                !
 ! D226  D(30,27,28,25)       -135.967          estimate D2E/DX2                !
 ! D227  D(30,27,28,45)          1.7833         estimate D2E/DX2                !
 ! D228  D(13,27,30,29)         -4.9447         estimate D2E/DX2                !
 ! D229  D(13,27,30,47)       -162.6339         estimate D2E/DX2                !
 ! D230  D(28,27,30,29)        148.7908         estimate D2E/DX2                !
 ! D231  D(28,27,30,47)         -8.8984         estimate D2E/DX2                !
 ! D232  D(25,28,45,44)          2.176          estimate D2E/DX2                !
 ! D233  D(25,28,45,48)        145.6191         estimate D2E/DX2                !
 ! D234  D(27,28,45,44)       -138.9721         estimate D2E/DX2                !
 ! D235  D(27,28,45,48)          4.4709         estimate D2E/DX2                !
 ! D236  D(14,29,30,27)          1.9659         estimate D2E/DX2                !
 ! D237  D(14,29,30,47)        159.4559         estimate D2E/DX2                !
 ! D238  D(31,29,30,27)       -153.7031         estimate D2E/DX2                !
 ! D239  D(31,29,30,47)          3.7869         estimate D2E/DX2                !
 ! D240  D(14,29,31,34)        -13.438          estimate D2E/DX2                !
 ! D241  D(14,29,31,49)       -153.1375         estimate D2E/DX2                !
 ! D242  D(30,29,31,34)        141.9065         estimate D2E/DX2                !
 ! D243  D(30,29,31,49)          2.207          estimate D2E/DX2                !
 ! D244  D(27,30,47,48)         10.061          estimate D2E/DX2                !
 ! D245  D(27,30,47,50)        150.7913         estimate D2E/DX2                !
 ! D246  D(29,30,47,48)       -147.9687         estimate D2E/DX2                !
 ! D247  D(29,30,47,50)         -7.2385         estimate D2E/DX2                !
 ! D248  D(29,31,34,32)          6.5204         estimate D2E/DX2                !
 ! D249  D(29,31,34,51)       -136.6631         estimate D2E/DX2                !
 ! D250  D(49,31,34,32)        151.0601         estimate D2E/DX2                !
 ! D251  D(49,31,34,51)          7.8766         estimate D2E/DX2                !
 ! D252  D(29,31,49,50)         -4.8976         estimate D2E/DX2                !
 ! D253  D(29,31,49,54)        138.5668         estimate D2E/DX2                !
 ! D254  D(34,31,49,50)       -149.0401         estimate D2E/DX2                !
 ! D255  D(34,31,49,54)         -5.5756         estimate D2E/DX2                !
 ! D256  D(16,32,33,18)         -6.9253         estimate D2E/DX2                !
 ! D257  D(16,32,33,36)       -150.7372         estimate D2E/DX2                !
 ! D258  D(34,32,33,18)        139.2674         estimate D2E/DX2                !
 ! D259  D(34,32,33,36)         -4.5445         estimate D2E/DX2                !
 ! D260  D(16,32,34,31)         15.7109         estimate D2E/DX2                !
 ! D261  D(16,32,34,51)        153.9492         estimate D2E/DX2                !
 ! D262  D(33,32,34,31)       -126.9618         estimate D2E/DX2                !
 ! D263  D(33,32,34,51)         11.2765         estimate D2E/DX2                !
 ! D264  D(18,33,36,35)         -6.5548         estimate D2E/DX2                !
 ! D265  D(18,33,36,52)       -145.7286         estimate D2E/DX2                !
 ! D266  D(32,33,36,35)        134.0591         estimate D2E/DX2                !
 ! D267  D(32,33,36,52)         -5.1147         estimate D2E/DX2                !
 ! D268  D(31,34,51,52)        134.0984         estimate D2E/DX2                !
 ! D269  D(31,34,51,54)         -7.17           estimate D2E/DX2                !
 ! D270  D(32,34,51,52)         -8.5474         estimate D2E/DX2                !
 ! D271  D(32,34,51,54)       -149.8159         estimate D2E/DX2                !
 ! D272  D(19,35,36,33)         -1.7204         estimate D2E/DX2                !
 ! D273  D(19,35,36,52)        141.4205         estimate D2E/DX2                !
 ! D274  D(37,35,36,33)       -150.333          estimate D2E/DX2                !
 ! D275  D(37,35,36,52)         -7.192          estimate D2E/DX2                !
 ! D276  D(19,35,37,39)          0.4215         estimate D2E/DX2                !
 ! D277  D(19,35,37,53)       -143.4661         estimate D2E/DX2                !
 ! D278  D(36,35,37,39)        149.251          estimate D2E/DX2                !
 ! D279  D(36,35,37,53)          5.3634         estimate D2E/DX2                !
 ! D280  D(33,36,52,51)          7.8535         estimate D2E/DX2                !
 ! D281  D(33,36,52,53)        148.7605         estimate D2E/DX2                !
 ! D282  D(35,36,52,51)       -134.5898         estimate D2E/DX2                !
 ! D283  D(35,36,52,53)          6.3173         estimate D2E/DX2                !
 ! D284  D(35,37,39,38)         -0.7055         estimate D2E/DX2                !
 ! D285  D(35,37,39,57)       -140.6544         estimate D2E/DX2                !
 ! D286  D(53,37,39,38)        139.1737         estimate D2E/DX2                !
 ! D287  D(53,37,39,57)         -0.7752         estimate D2E/DX2                !
 ! D288  D(35,37,53,52)         -1.5846         estimate D2E/DX2                !
 ! D289  D(35,37,53,55)        139.0455         estimate D2E/DX2                !
 ! D290  D(39,37,53,52)       -145.1339         estimate D2E/DX2                !
 ! D291  D(39,37,53,55)         -4.5037         estimate D2E/DX2                !
 ! D292  D(21,38,39,37)         -1.8339         estimate D2E/DX2                !
 ! D293  D(21,38,39,57)        142.2631         estimate D2E/DX2                !
 ! D294  D(42,38,39,37)       -149.0631         estimate D2E/DX2                !
 ! D295  D(42,38,39,57)         -4.9661         estimate D2E/DX2                !
 ! D296  D(21,38,42,40)          1.3057         estimate D2E/DX2                !
 ! D297  D(21,38,42,58)       -141.9934         estimate D2E/DX2                !
 ! D298  D(39,38,42,40)        148.389          estimate D2E/DX2                !
 ! D299  D(39,38,42,58)          5.09           estimate D2E/DX2                !
 ! D300  D(37,39,57,58)        146.7345         estimate D2E/DX2                !
 ! D301  D(37,39,57,60)          5.1349         estimate D2E/DX2                !
 ! D302  D(38,39,57,58)          3.0028         estimate D2E/DX2                !
 ! D303  D(38,39,57,60)       -138.5968         estimate D2E/DX2                !
 ! D304  D(23,40,41,24)          0.534          estimate D2E/DX2                !
 ! D305  D(23,40,41,43)       -139.3116         estimate D2E/DX2                !
 ! D306  D(42,40,41,24)        142.4512         estimate D2E/DX2                !
 ! D307  D(42,40,41,43)          2.6057         estimate D2E/DX2                !
 ! D308  D(23,40,42,38)          0.8196         estimate D2E/DX2                !
 ! D309  D(23,40,42,58)        140.4236         estimate D2E/DX2                !
 ! D310  D(41,40,42,38)       -137.579          estimate D2E/DX2                !
 ! D311  D(41,40,42,58)          2.025          estimate D2E/DX2                !
 ! D312  D(24,41,43,46)         -1.3741         estimate D2E/DX2                !
 ! D313  D(24,41,43,59)       -138.5554         estimate D2E/DX2                !
 ! D314  D(40,41,43,46)        133.1941         estimate D2E/DX2                !
 ! D315  D(40,41,43,59)         -3.9872         estimate D2E/DX2                !
 ! D316  D(38,42,58,57)         -3.2954         estimate D2E/DX2                !
 ! D317  D(38,42,58,59)        138.5845         estimate D2E/DX2                !
 ! D318  D(40,42,58,57)       -147.0883         estimate D2E/DX2                !
 ! D319  D(40,42,58,59)         -5.2085         estimate D2E/DX2                !
 ! D320  D(41,43,46,44)          0.5117         estimate D2E/DX2                !
 ! D321  D(41,43,46,61)       -142.1503         estimate D2E/DX2                !
 ! D322  D(59,43,46,44)        141.941          estimate D2E/DX2                !
 ! D323  D(59,43,46,61)         -0.721          estimate D2E/DX2                !
 ! D324  D(41,43,59,58)          0.782          estimate D2E/DX2                !
 ! D325  D(41,43,59,65)        143.474          estimate D2E/DX2                !
 ! D326  D(46,43,59,58)       -140.696          estimate D2E/DX2                !
 ! D327  D(46,43,59,65)          1.996          estimate D2E/DX2                !
 ! D328  D(26,44,45,28)          1.1978         estimate D2E/DX2                !
 ! D329  D(26,44,45,48)       -142.0296         estimate D2E/DX2                !
 ! D330  D(46,44,45,28)        142.2307         estimate D2E/DX2                !
 ! D331  D(46,44,45,48)         -0.9968         estimate D2E/DX2                !
 ! D332  D(26,44,46,43)          1.1415         estimate D2E/DX2                !
 ! D333  D(26,44,46,61)        139.069          estimate D2E/DX2                !
 ! D334  D(45,44,46,43)       -134.507          estimate D2E/DX2                !
 ! D335  D(45,44,46,61)          3.4205         estimate D2E/DX2                !
 ! D336  D(28,45,48,47)         -3.3867         estimate D2E/DX2                !
 ! D337  D(28,45,48,62)       -142.9203         estimate D2E/DX2                !
 ! D338  D(44,45,48,47)        135.9618         estimate D2E/DX2                !
 ! D339  D(44,45,48,62)         -3.5717         estimate D2E/DX2                !
 ! D340  D(43,46,61,62)        141.263          estimate D2E/DX2                !
 ! D341  D(43,46,61,65)         -0.8274         estimate D2E/DX2                !
 ! D342  D(44,46,61,62)         -1.2531         estimate D2E/DX2                !
 ! D343  D(44,46,61,65)       -143.3435         estimate D2E/DX2                !
 ! D344  D(30,47,48,45)         -4.0532         estimate D2E/DX2                !
 ! D345  D(30,47,48,62)        139.6512         estimate D2E/DX2                !
 ! D346  D(50,47,48,45)       -149.569          estimate D2E/DX2                !
 ! D347  D(50,47,48,62)         -5.8646         estimate D2E/DX2                !
 ! D348  D(30,47,50,49)          4.6726         estimate D2E/DX2                !
 ! D349  D(30,47,50,63)       -139.721          estimate D2E/DX2                !
 ! D350  D(48,47,50,49)        150.1312         estimate D2E/DX2                !
 ! D351  D(48,47,50,63)          5.7375         estimate D2E/DX2                !
 ! D352  D(45,48,62,61)          5.7338         estimate D2E/DX2                !
 ! D353  D(45,48,62,63)        147.3544         estimate D2E/DX2                !
 ! D354  D(47,48,62,61)       -137.8547         estimate D2E/DX2                !
 ! D355  D(47,48,62,63)          3.7659         estimate D2E/DX2                !
 ! D356  D(31,49,50,47)          1.4964         estimate D2E/DX2                !
 ! D357  D(31,49,50,63)        141.7064         estimate D2E/DX2                !
 ! D358  D(54,49,50,47)       -138.099          estimate D2E/DX2                !
 ! D359  D(54,49,50,63)          2.1109         estimate D2E/DX2                !
 ! D360  D(31,49,54,51)          1.1468         estimate D2E/DX2                !
 ! D361  D(31,49,54,56)       -140.334          estimate D2E/DX2                !
 ! D362  D(50,49,54,51)        144.7352         estimate D2E/DX2                !
 ! D363  D(50,49,54,56)          3.2543         estimate D2E/DX2                !
 ! D364  D(47,50,63,62)         -3.4419         estimate D2E/DX2                !
 ! D365  D(47,50,63,64)        138.327          estimate D2E/DX2                !
 ! D366  D(49,50,63,62)       -147.5493         estimate D2E/DX2                !
 ! D367  D(49,50,63,64)         -5.7804         estimate D2E/DX2                !
 ! D368  D(34,51,52,36)         -1.2402         estimate D2E/DX2                !
 ! D369  D(34,51,52,53)       -136.894          estimate D2E/DX2                !
 ! D370  D(54,51,52,36)        135.5906         estimate D2E/DX2                !
 ! D371  D(54,51,52,53)         -0.0632         estimate D2E/DX2                !
 ! D372  D(34,51,54,49)          3.7874         estimate D2E/DX2                !
 ! D373  D(34,51,54,56)        144.8174         estimate D2E/DX2                !
 ! D374  D(52,51,54,49)       -137.7112         estimate D2E/DX2                !
 ! D375  D(52,51,54,56)          3.3189         estimate D2E/DX2                !
 ! D376  D(36,52,53,37)         -2.8453         estimate D2E/DX2                !
 ! D377  D(36,52,53,55)       -143.3753         estimate D2E/DX2                !
 ! D378  D(51,52,53,37)        137.0271         estimate D2E/DX2                !
 ! D379  D(51,52,53,55)         -3.5029         estimate D2E/DX2                !
 ! D380  D(37,53,55,56)       -131.9376         estimate D2E/DX2                !
 ! D381  D(37,53,55,60)          5.3612         estimate D2E/DX2                !
 ! D382  D(52,53,55,56)          3.7876         estimate D2E/DX2                !
 ! D383  D(52,53,55,60)        141.0864         estimate D2E/DX2                !
 ! D384  D(49,54,56,55)        133.5754         estimate D2E/DX2                !
 ! D385  D(49,54,56,64)         -4.9771         estimate D2E/DX2                !
 ! D386  D(51,54,56,55)         -3.0231         estimate D2E/DX2                !
 ! D387  D(51,54,56,64)       -141.5757         estimate D2E/DX2                !
 ! D388  D(53,55,56,54)         -0.5595         estimate D2E/DX2                !
 ! D389  D(53,55,56,64)        142.6345         estimate D2E/DX2                !
 ! D390  D(60,55,56,54)       -142.375          estimate D2E/DX2                !
 ! D391  D(60,55,56,64)          0.8191         estimate D2E/DX2                !
 ! D392  D(53,55,60,57)         -0.9821         estimate D2E/DX2                !
 ! D393  D(53,55,60,66)       -143.9819         estimate D2E/DX2                !
 ! D394  D(56,55,60,57)        140.7476         estimate D2E/DX2                !
 ! D395  D(56,55,60,66)         -2.2522         estimate D2E/DX2                !
 ! D396  D(54,56,64,63)          1.3254         estimate D2E/DX2                !
 ! D397  D(54,56,64,66)        143.9752         estimate D2E/DX2                !
 ! D398  D(55,56,64,63)       -141.7319         estimate D2E/DX2                !
 ! D399  D(55,56,64,66)          0.9179         estimate D2E/DX2                !
 ! D400  D(39,57,58,42)          0.1855         estimate D2E/DX2                !
 ! D401  D(39,57,58,59)       -141.294          estimate D2E/DX2                !
 ! D402  D(60,57,58,42)        141.2665         estimate D2E/DX2                !
 ! D403  D(60,57,58,59)         -0.213          estimate D2E/DX2                !
 ! D404  D(39,57,60,55)         -4.2527         estimate D2E/DX2                !
 ! D405  D(39,57,60,66)        134.6916         estimate D2E/DX2                !
 ! D406  D(58,57,60,55)       -141.0085         estimate D2E/DX2                !
 ! D407  D(58,57,60,66)         -2.0641         estimate D2E/DX2                !
 ! D408  D(42,58,59,43)          3.8407         estimate D2E/DX2                !
 ! D409  D(42,58,59,65)       -134.6742         estimate D2E/DX2                !
 ! D410  D(57,58,59,43)        140.8432         estimate D2E/DX2                !
 ! D411  D(57,58,59,65)          2.3283         estimate D2E/DX2                !
 ! D412  D(43,59,65,61)         -2.506          estimate D2E/DX2                !
 ! D413  D(43,59,65,66)       -145.4096         estimate D2E/DX2                !
 ! D414  D(58,59,65,61)        140.7401         estimate D2E/DX2                !
 ! D415  D(58,59,65,66)         -2.1635         estimate D2E/DX2                !
 ! D416  D(55,60,66,64)          2.8155         estimate D2E/DX2                !
 ! D417  D(55,60,66,65)        145.5839         estimate D2E/DX2                !
 ! D418  D(57,60,66,64)       -140.5475         estimate D2E/DX2                !
 ! D419  D(57,60,66,65)          2.2209         estimate D2E/DX2                !
 ! D420  D(46,61,62,48)         -3.3088         estimate D2E/DX2                !
 ! D421  D(46,61,62,63)       -140.1485         estimate D2E/DX2                !
 ! D422  D(65,61,62,48)        134.4461         estimate D2E/DX2                !
 ! D423  D(65,61,62,63)         -2.3936         estimate D2E/DX2                !
 ! D424  D(46,61,65,59)          2.0621         estimate D2E/DX2                !
 ! D425  D(46,61,65,66)        144.9218         estimate D2E/DX2                !
 ! D426  D(62,61,65,59)       -140.1678         estimate D2E/DX2                !
 ! D427  D(62,61,65,66)          2.6919         estimate D2E/DX2                !
 ! D428  D(48,62,63,50)         -0.2082         estimate D2E/DX2                !
 ! D429  D(48,62,63,64)       -141.6462         estimate D2E/DX2                !
 ! D430  D(61,62,63,50)        141.211          estimate D2E/DX2                !
 ! D431  D(61,62,63,64)         -0.227          estimate D2E/DX2                !
 ! D432  D(50,63,64,56)          4.0601         estimate D2E/DX2                !
 ! D433  D(50,63,64,66)       -134.3551         estimate D2E/DX2                !
 ! D434  D(62,63,64,56)        140.967          estimate D2E/DX2                !
 ! D435  D(62,63,64,66)          2.5518         estimate D2E/DX2                !
 ! D436  D(56,64,66,60)         -2.3002         estimate D2E/DX2                !
 ! D437  D(56,64,66,65)       -145.1224         estimate D2E/DX2                !
[...]
 
              Baa    -0.0545    -7.319    -2.612    -2.441  0.6309  0.4942  0.5981
    11 C(13)  Bbb    -0.0471    -6.315    -2.253    -2.106 -0.4467 -0.3989  0.8008
              Bcc     0.1016    13.633     4.865     4.548 -0.6344  0.7724  0.0309
 
              Baa    -0.1058   -14.200    -5.067    -4.737 -0.4686 -0.0093  0.8833
    12 C(13)  Bbb     0.0422     5.664     2.021     1.889  0.8441  0.2902  0.4509
              Bcc     0.0636     8.537     3.046     2.848 -0.2606  0.9569 -0.1281
 
              Baa    -0.1206   -16.182    -5.774    -5.398  0.8148  0.4675  0.3428
    13 C(13)  Bbb    -0.1114   -14.951    -5.335    -4.987 -0.2353  0.8071 -0.5415
              Bcc     0.2320    31.133    11.109    10.385 -0.5298  0.3606  0.7677
 
              Baa    -0.1527   -20.488    -7.311    -6.834  0.8824  0.0570  0.4671
    14 C(13)  Bbb    -0.1456   -19.539    -6.972    -6.517 -0.2097  0.9363  0.2819
              Bcc     0.2983    40.027    14.283    13.352 -0.4212 -0.3466  0.8381
 
              Baa    -0.0119    -1.591    -0.568    -0.531  0.5860  0.7835 -0.2068
    15 C(13)  Bbb     0.0016     0.217     0.078     0.073  0.6661 -0.6111 -0.4277
              Bcc     0.0102     1.373     0.490     0.458  0.4614 -0.1128  0.8800
 
              Baa    -0.0066    -0.880    -0.314    -0.294 -0.1253 -0.5751  0.8085
    16 C(13)  Bbb     0.0026     0.352     0.126     0.118  0.9184 -0.3755 -0.1248
              Bcc     0.0039     0.528     0.188     0.176  0.3753  0.7268  0.5752
 
              Baa    -0.0271    -3.638    -1.298    -1.214  0.3306  0.7051  0.6273
    17 C(13)  Bbb     0.0116     1.550     0.553     0.517  0.7641 -0.5901  0.2606
              Bcc     0.0156     2.088     0.745     0.697 -0.5540 -0.3932  0.7338
 
              Baa    -0.0238    -3.197    -1.141    -1.066  0.6932 -0.6527  0.3057
    18 C(13)  Bbb    -0.0228    -3.058    -1.091    -1.020 -0.4281 -0.0316  0.9032
              Bcc     0.0466     6.255     2.232     2.087  0.5799  0.7569  0.3013
 
              Baa    -0.0319    -4.282    -1.528    -1.428  0.9825 -0.1546 -0.1038
    19 C(13)  Bbb    -0.0310    -4.156    -1.483    -1.386  0.0858  0.8707 -0.4843
              Bcc     0.0629     8.438     3.011     2.815  0.1653  0.4669  0.8687
 
              Baa    -0.0320    -4.295    -1.533    -1.433  0.7203  0.6582 -0.2192
    20 C(13)  Bbb    -0.0313    -4.203    -1.500    -1.402 -0.6112  0.7515  0.2484
              Bcc     0.0633     8.498     3.032     2.835  0.3282 -0.0449  0.9435
 
              Baa    -0.0212    -2.851    -1.017    -0.951  0.2457  0.2068  0.9470
    21 C(13)  Bbb     0.0100     1.345     0.480     0.449  0.9283  0.2313 -0.2913
              Bcc     0.0112     1.506     0.537     0.502 -0.2793  0.9507 -0.1351
 
              Baa    -0.0203    -2.721    -0.971    -0.908  0.4838  0.7164  0.5027
    22 C(13)  Bbb    -0.0198    -2.659    -0.949    -0.887  0.8086 -0.1461 -0.5700
              Bcc     0.0401     5.380     1.920     1.795 -0.3349  0.6823 -0.6499
 
              Baa    -0.0237    -3.181    -1.135    -1.061  0.3549 -0.3258  0.8763
    23 C(13)  Bbb     0.0110     1.472     0.525     0.491  0.8858 -0.1827 -0.4266
              Bcc     0.0127     1.709     0.610     0.570  0.2991  0.9276  0.2238
 
              Baa    -0.0174    -2.335    -0.833    -0.779 -0.2166  0.9112 -0.3504
    24 C(13)  Bbb     0.0083     1.119     0.399     0.373  0.8310 -0.0163 -0.5560
              Bcc     0.0091     1.216     0.434     0.406  0.5124  0.4116  0.7537
 
              Baa    -0.0535    -7.179    -2.562    -2.395 -0.3822  0.8431  0.3782
    25 C(13)  Bbb     0.0221     2.964     1.058     0.989  0.8001  0.5067 -0.3211
              Bcc     0.0314     4.215     1.504     1.406  0.4623 -0.1798  0.8683
 
              Baa    -0.0108    -1.454    -0.519    -0.485  0.7355 -0.0352 -0.6766
    26 C(13)  Bbb    -0.0105    -1.416    -0.505    -0.472  0.6709  0.1770  0.7201
              Bcc     0.0214     2.869     1.024     0.957 -0.0944  0.9836 -0.1538
 
              Baa    -0.0912   -12.243    -4.369    -4.084 -0.3009  0.3761  0.8764
    27 C(13)  Bbb     0.0407     5.456     1.947     1.820  0.6928 -0.5453  0.4719
              Bcc     0.0506     6.788     2.422     2.264  0.6554  0.7491 -0.0965
 
              Baa    -0.1294   -17.364    -6.196    -5.792  0.3176  0.7651 -0.5602
    28 C(13)  Bbb    -0.1251   -16.791    -5.992    -5.601  0.9013 -0.0600  0.4291
              Bcc     0.2545    34.155    12.187    11.393 -0.2947  0.6411  0.7086
 
              Baa    -0.0937   -12.568    -4.485    -4.192 -0.2497 -0.1937  0.9487
    29 C(13)  Bbb     0.0412     5.524     1.971     1.843  0.2691  0.9273  0.2602
              Bcc     0.0525     7.044     2.513     2.349  0.9302 -0.3203  0.1794
 
              Baa    -0.0236    -3.170    -1.131    -1.057  0.9484  0.2537  0.1901
    30 C(13)  Bbb    -0.0206    -2.760    -0.985    -0.921 -0.2269  0.9620 -0.1520
              Bcc     0.0442     5.930     2.116     1.978 -0.2214  0.1011  0.9699
 
              Baa    -0.1526   -20.471    -7.305    -6.828 -0.6199  0.7488  0.2345
    31 C(13)  Bbb    -0.1477   -19.819    -7.072    -6.611  0.7751  0.5379  0.3315
              Bcc     0.3002    40.290    14.376    13.439 -0.1221 -0.3872  0.9139
 
              Baa    -0.0609    -8.170    -2.915    -2.725  0.8140 -0.0604  0.5777
    32 C(13)  Bbb    -0.0549    -7.366    -2.628    -2.457 -0.4815  0.4862  0.7292
              Bcc     0.1158    15.537     5.544     5.183  0.3249  0.8718 -0.3667
 
              Baa    -0.0237    -3.174    -1.133    -1.059  0.3437  0.9379  0.0460
    33 C(13)  Bbb     0.0092     1.234     0.440     0.412  0.8839 -0.3397  0.3214
              Bcc     0.0145     1.940     0.692     0.647 -0.3171  0.0698  0.9458
 
              Baa    -0.0573    -7.695    -2.746    -2.567  0.0844  0.7211 -0.6877
    34 C(13)  Bbb     0.0239     3.213     1.147     1.072  0.9694 -0.2191 -0.1108
              Bcc     0.0334     4.482     1.599     1.495  0.2305  0.6573  0.7175
 
              Baa    -0.0233    -3.130    -1.117    -1.044  0.1230  0.7000  0.7035
    35 C(13)  Bbb     0.0107     1.435     0.512     0.479  0.7891  0.3609 -0.4970
              Bcc     0.0126     1.695     0.605     0.565 -0.6018  0.6163 -0.5080
 
              Baa    -0.0219    -2.932    -1.046    -0.978  0.9319 -0.1327  0.3375
    36 C(13)  Bbb    -0.0212    -2.851    -1.017    -0.951 -0.3626 -0.3477  0.8646
              Bcc     0.0431     5.784     2.064     1.929 -0.0026  0.9282  0.3722
 
              Baa    -0.0097    -1.308    -0.467    -0.436  0.3282  0.7405 -0.5865
    37 C(13)  Bbb    -0.0093    -1.250    -0.446    -0.417  0.8970 -0.0497  0.4392
              Bcc     0.0191     2.558     0.913     0.853 -0.2961  0.6702  0.6805
 
              Baa    -0.0100    -1.343    -0.479    -0.448  0.9857  0.1460  0.0846
    38 C(13)  Bbb    -0.0096    -1.291    -0.461    -0.431 -0.1299  0.9765 -0.1721
              Bcc     0.0196     2.634     0.940     0.879 -0.1077  0.1586  0.9815
 
              Baa    -0.0171    -2.294    -0.818    -0.765 -0.3770  0.3906  0.8398
    39 C(13)  Bbb     0.0084     1.123     0.401     0.375  0.9237  0.0921  0.3719
              Bcc     0.0087     1.171     0.418     0.391  0.0679  0.9159 -0.3955
 
              Baa    -0.0110    -1.471    -0.525    -0.491 -0.6125  0.7130  0.3415
    40 C(13)  Bbb    -0.0105    -1.403    -0.501    -0.468  0.7888  0.5232  0.3225
              Bcc     0.0214     2.874     1.025     0.959 -0.0513 -0.4669  0.8828
 
              Baa    -0.0127    -1.710    -0.610    -0.570  0.2061  0.7647 -0.6105
    41 C(13)  Bbb     0.0060     0.802     0.286     0.268  0.8493 -0.4497 -0.2766
              Bcc     0.0068     0.908     0.324     0.303  0.4861  0.4615  0.7421
 
              Baa    -0.0153    -2.056    -0.734    -0.686 -0.2416 -0.1950  0.9506
    42 C(13)  Bbb     0.0075     1.008     0.360     0.336  0.6668  0.6783  0.3086
              Bcc     0.0078     1.048     0.374     0.349 -0.7050  0.7084 -0.0339
 
              Baa    -0.0041    -0.548    -0.196    -0.183  0.6311  0.0832  0.7712
    43 C(13)  Bbb    -0.0036    -0.483    -0.172    -0.161  0.6397 -0.6181 -0.4568
              Bcc     0.0077     1.031     0.368     0.344  0.4387  0.7817 -0.4433
 
              Baa    -0.0119    -1.602    -0.572    -0.534 -0.2302 -0.1706  0.9581
    44 C(13)  Bbb    -0.0102    -1.366    -0.488    -0.456  0.9110 -0.3839  0.1506
              Bcc     0.0221     2.969     1.059     0.990  0.3421  0.9075  0.2438
 
              Baa    -0.0719    -9.648    -3.443    -3.218  0.0576  0.7354  0.6752
    45 C(13)  Bbb     0.0297     3.986     1.422     1.329 -0.1975 -0.6545  0.7298
              Bcc     0.0422     5.662     2.020     1.889  0.9786 -0.1754  0.1075
 
              Baa    -0.0189    -2.531    -0.903    -0.844  0.5657  0.8032  0.1868
    46 C(13)  Bbb     0.0088     1.186     0.423     0.396 -0.3803  0.0530  0.9234
              Bcc     0.0100     1.345     0.480     0.449  0.7317 -0.5934  0.3354
 
              Baa    -0.0965   -12.956    -4.623    -4.322  0.0396  0.1665  0.9852
    47 C(13)  Bbb     0.0460     6.178     2.204     2.061  0.9679  0.2384 -0.0792
              Bcc     0.0505     6.778     2.419     2.261 -0.2480  0.9568 -0.1517
 
              Baa    -0.0774   -10.391    -3.708    -3.466  0.1654  0.8314 -0.5304
    48 C(13)  Bbb    -0.0728    -9.763    -3.484    -3.256  0.9589 -0.2613 -0.1106
              Bcc     0.1502    20.154     7.191     6.723  0.2305  0.4903  0.8405
 
              Baa    -0.0839   -11.254    -4.016    -3.754  0.2449 -0.3789  0.8925
    49 C(13)  Bbb     0.0345     4.627     1.651     1.543 -0.4643  0.7622  0.4510
              Bcc     0.0494     6.627     2.365     2.210  0.8511  0.5248 -0.0108
 
              Baa    -0.0921   -12.353    -4.408    -4.120 -0.4379  0.8718  0.2196
    50 C(13)  Bbb    -0.0865   -11.602    -4.140    -3.870  0.8303  0.4858 -0.2731
              Bcc     0.1785    23.955     8.548     7.990  0.3448 -0.0628  0.9366
 
              Baa    -0.0111    -1.485    -0.530    -0.495 -0.6025 -0.0398  0.7971
    51 C(13)  Bbb    -0.0107    -1.435    -0.512    -0.479  0.7282  0.3814  0.5694
              Bcc     0.0218     2.920     1.042     0.974 -0.3267  0.9236 -0.2008
 
              Baa    -0.0157    -2.106    -0.751    -0.702 -0.1782  0.9838 -0.0199
    52 C(13)  Bbb     0.0076     1.018     0.363     0.340 -0.6614 -0.1048  0.7426
              Bcc     0.0081     1.087     0.388     0.363  0.7285  0.1455  0.6694
 
              Baa    -0.0124    -1.666    -0.594    -0.556 -0.5356  0.7780  0.3284
    53 C(13)  Bbb     0.0059     0.792     0.283     0.264 -0.4830 -0.6012  0.6366
              Bcc     0.0065     0.873     0.312     0.291  0.6927  0.1823  0.6978
 
              Baa    -0.0136    -1.829    -0.652    -0.610 -0.3248  0.4078  0.8533
    54 C(13)  Bbb    -0.0118    -1.584    -0.565    -0.529  0.6942  0.7156 -0.0777
              Bcc     0.0254     3.413     1.218     1.138  0.6423 -0.5671  0.5156
 
              Baa    -0.0049    -0.653    -0.233    -0.218  0.4892  0.3285  0.8080
    55 C(13)  Bbb    -0.0042    -0.567    -0.202    -0.189  0.4776  0.6742 -0.5633
              Bcc     0.0091     1.220     0.435     0.407  0.7298 -0.6615 -0.1729
 
              Baa    -0.0231    -3.098    -1.105    -1.033  0.8155 -0.4149  0.4036
    56 C(13)  Bbb     0.0109     1.457     0.520     0.486 -0.4165  0.0636  0.9069
              Bcc     0.0122     1.641     0.585     0.547  0.4020  0.9076  0.1209
 
              Baa    -0.0017    -0.230    -0.082    -0.077  0.7823  0.4492  0.4316
    57 C(13)  Bbb    -0.0010    -0.140    -0.050    -0.047 -0.3158  0.8832 -0.3467
              Bcc     0.0028     0.369     0.132     0.123 -0.5370  0.1349  0.8327
 
              Baa    -0.0046    -0.617    -0.220    -0.206  0.7990 -0.1644  0.5784
    58 C(13)  Bbb    -0.0044    -0.588    -0.210    -0.196  0.0399  0.9743  0.2218
              Bcc     0.0090     1.205     0.430     0.402 -0.6000 -0.1542  0.7850
 
              Baa    -0.0018    -0.248    -0.089    -0.083 -0.1823  0.8973 -0.4020
    59 C(13)  Bbb    -0.0003    -0.041    -0.015    -0.014 -0.0130  0.4066  0.9135
              Bcc     0.0022     0.290     0.103     0.097  0.9832  0.1718 -0.0625
 
              Baa    -0.0031    -0.418    -0.149    -0.139 -0.0384  0.9916 -0.1239
    60 C(13)  Bbb    -0.0021    -0.278    -0.099    -0.093  0.3167  0.1297  0.9396
              Bcc     0.0052     0.696     0.248     0.232  0.9478 -0.0031 -0.3190
 
              Baa    -0.0246    -3.301    -1.178    -1.101 -0.3711  0.7107 -0.5976
    61 C(13)  Bbb    -0.0222    -2.979    -1.063    -0.994 -0.5571  0.3445  0.7556
              Bcc     0.0468     6.281     2.241     2.095  0.7429  0.6133  0.2681
 
              Baa    -0.0114    -1.527    -0.545    -0.509  0.2700  0.5689  0.7768
    62 C(13)  Bbb     0.0013     0.175     0.062     0.058 -0.2284  0.8216 -0.5223
              Bcc     0.0101     1.353     0.483     0.451  0.9354  0.0363 -0.3518
 
              Baa    -0.0217    -2.907    -1.037    -0.970  0.5714 -0.0553  0.8188
    63 C(13)  Bbb     0.0069     0.921     0.329     0.307 -0.1434  0.9757  0.1660
              Bcc     0.0148     1.986     0.709     0.662  0.8081  0.2122 -0.5495
 
              Baa    -0.0314    -4.212    -1.503    -1.405 -0.0135  0.9382  0.3457
    64 C(13)  Bbb    -0.0288    -3.869    -1.381    -1.291 -0.4340 -0.3170  0.8433
              Bcc     0.0602     8.081     2.883     2.696  0.9008 -0.1386  0.4115
 
              Baa    -0.0076    -1.014    -0.362    -0.338  0.3219 -0.4201  0.8485
    65 C(13)  Bbb    -0.0066    -0.891    -0.318    -0.297 -0.1666  0.8571  0.4876
              Bcc     0.0142     1.905     0.680     0.636  0.9320  0.2983 -0.2059
 
              Baa    -0.0038    -0.507    -0.181    -0.169  0.3205  0.4461  0.8356
    66 C(13)  Bbb    -0.0024    -0.324    -0.116    -0.108 -0.2587  0.8898 -0.3759
              Bcc     0.0062     0.831     0.297     0.277  0.9112  0.0957 -0.4006
 
              Baa    -0.0144    -0.752    -0.268    -0.251  0.1294  0.9259  0.3548
    67 Cl(35) Bbb    -0.0137    -0.716    -0.255    -0.239 -0.0676 -0.3487  0.9348
              Bcc     0.0280     1.468     0.524     0.490  0.9893 -0.1450  0.0174
 
              Baa    -0.0029    -0.153    -0.055    -0.051 -0.2759  0.9421  0.1907
    68 Cl(35) Bbb    -0.0008    -0.043    -0.015    -0.014 -0.2152 -0.2539  0.9430
              Bcc     0.0038     0.197     0.070     0.066  0.9368  0.2191  0.2728
 
              Baa    -0.0554    -2.901    -1.035    -0.968  0.9449  0.3268 -0.0181
    69 Cl(35) Bbb     0.0209     1.096     0.391     0.366 -0.2714  0.8132  0.5148
              Bcc     0.0345     1.805     0.644     0.602  0.1830 -0.4815  0.8571
 
              Baa    -0.1749    -9.153    -3.266    -3.053  0.4914 -0.0186  0.8707
    70 Cl(35) Bbb    -0.1555    -8.137    -2.904    -2.714 -0.5919  0.7263  0.3496
              Bcc     0.3304    17.290     6.170     5.767  0.6389  0.6871 -0.3459
 
              Baa    -0.0054    -0.283    -0.101    -0.095  0.7104  0.1062 -0.6957
    71 Cl(35) Bbb    -0.0024    -0.126    -0.045    -0.042 -0.2728  0.9528 -0.1332
              Bcc     0.0078     0.410     0.146     0.137  0.6487  0.2844  0.7059
 
              Baa    -0.0197    -1.030    -0.367    -0.343  0.5799  0.2055  0.7883
    72 Cl(35) Bbb     0.0068     0.358     0.128     0.119 -0.1424  0.9783 -0.1503
              Bcc     0.0128     0.672     0.240     0.224  0.8021  0.0251 -0.5966
 
              Baa    -0.1390    -7.273    -2.595    -2.426  0.8584  0.3322  0.3909
    73 Cl(35) Bbb    -0.1264    -6.616    -2.361    -2.207 -0.1753 -0.5261  0.8321
              Bcc     0.2654    13.889     4.956     4.633 -0.4821  0.7829  0.3934
 

 ---------------------------------------------------------------------------------

 No NMR shielding tensors so no spin-rotation constants.
 Leave Link  601 at Sat Jul 16 14:12:33 2022, MaxMem=  1342177280 cpu:             105.9 elap:               2.5
 (Enter /home/mkliu/g16/l9999.exe)
 1\1\GINC-NODE04\FOpt\UB3LYP\6-311G(d,p)\C66Cl7(2)\MKLIU\16-Jul-2022\0\
 \#P opt b3lyp/6-311G(d, p) empiricaldispersion=GD3\\force\\0,2\C,-1.32
 46504216,1.8822681701,-3.9177414318\C,0.2211162237,2.2765248116,-4.103
 7396815\C,0.9537944083,0.8693304564,-4.2538141438\C,-1.4987805747,0.35
 26709206,-4.2826455622\C,-0.1123550066,-0.1649884531,-4.1376067767\C,-
 2.4925760124,-0.2537556431,-3.1669132791\C,-1.7885352407,1.9219151143,
 -2.508064497\C,-2.5443283776,0.8387227221,-2.1552323444\C,-1.343484804
 9,2.8681268197,-1.5429774748\C,0.9191404494,2.9343220372,-2.7901923799
 \C,0.022160033,3.2820571733,-1.6054862205\C,1.8499846386,0.7292288897,
 -3.0512541492\C,1.8944701622,1.8829345207,-2.3057151001\C,2.2373585446
 ,-0.5139890231,-2.5260963268\C,0.1577180777,-1.3498105994,-3.599795488
 4\C,1.5557049516,-1.740114033,-3.1240013599\C,-2.016612508,-1.50827279
 65,-2.4355443415\C,-0.8386135156,-2.1085661942,-2.8479374632\C,-2.5136
 366305,-1.7912893505,-1.0992926468\C,-3.0277356628,0.6409492368,-0.831
 7025506\C,-3.1088123873,-0.7094066282,-0.2936118155\C,-2.0218856334,2.
 8400894345,-0.3129943659\C,-2.904043324,1.7456634485,0.0252077792\C,-1
 .3962204614,3.2893867845,0.8946539064\C,0.6734727741,3.5069003084,-0.3
 972142486\C,-0.0367171877,3.588666646,0.8493957354\C,2.4553248766,1.89
 34415586,-1.0018477017\C,1.9754023534,2.8840303364,-0.1070889206\C,2.8
 758854922,-0.5682603505,-1.2539658588\C,3.0331613421,0.6678433546,-0.4
 849489704\C,2.9119660949,-1.8160341705,-0.549874151\C,1.2583117082,-2.
 7798531674,-2.0831262228\C,-0.1439229933,-3.044632783,-2.0237011355\C,
 2.0222069444,-2.9041916583,-0.9556992799\C,-1.9405872904,-2.8809931047
 ,-0.3934984339\C,-0.7266100098,-3.5026771182,-0.8497628951\C,-1.926353
 5696,-2.9478535948,1.049351781\C,-3.1486980295,-0.8347198312,1.1076547
 6\C,-2.5296300462,-1.9524552419,1.7890273143\C,-2.886856488,1.58679024
 73,1.4507544466\C,-1.9353234426,2.5319132265,2.0038528133\C,-3.0123366
 463,0.3167758617,1.9825117531\C,-1.1126878959,2.139210011,3.0522448785
 \C,0.8281973567,3.138274379,1.9182849336\C,2.067055851,2.6931143028,1.
 2992992523\C,0.3069760762,2.4506077493,3.0057634506\C,3.2457910739,0.5
 758327994,0.9129341729\C,2.7260538927,1.5764537126,1.8095804298\C,3.00
 82787071,-1.86081565,0.8697133863\C,3.1934470421,-0.6895661879,1.59691
 45417\C,1.4642064456,-3.4991335577,0.2383040556\C,0.1024123971,-3.8128
 700151,0.2907265713\C,-0.6535468368,-3.5053474058,1.4804073382\C,2.107
 7495468,-2.8918256204,1.3776867096\C,-0.0188904123,-2.982542844,2.6044
 415603\C,1.3986860621,-2.670624607,2.5514412273\C,-1.9177384206,-1.471
 8598186,3.0121690354\C,-2.2189912758,-0.0639451896,3.1325520322\C,-1.2
 625608184,0.8208830688,3.6370179101\C,-0.6674968933,-1.9564177003,3.39
 56473467\C,1.0274622139,1.3208073295,3.570590055\C,2.2284673346,0.9100
 93582,2.9980910267\C,2.525662543,-0.5009627636,2.8682164033\C,1.619244
 3237,-1.4560981447,3.3214843081\C,0.05546885,0.3274240794,3.9883869503
 \C,0.346633776,-1.0313755585,3.8684661264\Cl,-2.4933505644,2.971800861
 ,-4.7905508627\Cl,0.4172375201,3.2903673277,-5.5557972145\Cl,1.9488429
 261,0.6607419099,-5.7705563067\Cl,2.5712532578,-2.517361819,-4.4712678
 207\Cl,-1.9933631434,0.0506801515,-5.9955964849\Cl,-4.1803642596,-0.58
 60511028,-3.8146774632\Cl,1.8749789071,4.4748216317,-3.1775389187\\Ver
 sion=ES64L-G16RevA.03\State=2-A\HF=-5736.9844524\S2=0.805255\S2-1=0.\S
 2A=0.752655\RMSD=5.026e-09\RMSF=2.402e-05\Dipole=0.0557432,-0.505579,2
 .327812\Quadrupole=1.1061288,2.4057274,-3.5118562,-0.4529396,0.2311422
 ,1.5958961\PG=C01 [X(C66Cl7)]\\@


 OPTIMIST - A PESSIMIST WHO LACKS EXPERIENCE
 Job cpu time:       4 days 16 hours 15 minutes 35.2 seconds.
 Elapsed time:       0 days  2 hours 20 minutes 33.6 seconds.
 File lengths (MBytes):  RWF=   2038 Int=      0 D2E=      0 Chk=    184 Scr=      1
 Normal termination of Gaussian 16 at Sat Jul 16 14:12:36 2022.
