 Entering Gaussian System, Link 0=g16
 Input=elklgqu0p6vwg_addon_7.gjf
 Output=elklgqu0p6vwg_addon_7.log
 Initial command:
 /home/mkliu/g16/l1.exe "/data/scratch/Gau-188435.inp" -scrdir="/data/scratch/"
 Entering Link 1 = /home/mkliu/g16/l1.exe PID=    188436.
  
 Copyright (c) 1988,1990,1992,1993,1995,1998,2003,2009,2016,
            Gaussian, Inc.  All Rights Reserved.
  
 This is part of the Gaussian(R) 16 program.  It is based on
 the Gaussian(R) 09 system (copyright 2009, Gaussian, Inc.),
 the Gaussian(R) 03 system (copyright 2003, Gaussian, Inc.),
 the Gaussian(R) 98 system (copyright 1998, Gaussian, Inc.),
 the Gaussian(R) 94 system (copyright 1995, Gaussian, Inc.),
 the Gaussian 92(TM) system (copyright 1992, Gaussian, Inc.),
 the Gaussian 90(TM) system (copyright 1990, Gaussian, Inc.),
 the Gaussian 88(TM) system (copyright 1988, Gaussian, Inc.),
 the Gaussian 86(TM) system (copyright 1986, Carnegie Mellon
 University), and the Gaussian 82(TM) system (copyright 1983,
 Carnegie Mellon University). Gaussian is a federally registered
 trademark of Gaussian, Inc.
  
 This software contains proprietary and confidential information,
 including trade secrets, belonging to Gaussian, Inc.
  
 This software is provided under written license and may be
 used, copied, transmitted, or stored only in accord with that
 written license.
  
 The following legend is applicable only to US Government
 contracts under FAR:
  
                    RESTRICTED RIGHTS LEGEND
  
 Use, reproduction and disclosure by the US Government is
 subject to restrictions as set forth in subparagraphs (a)
 and (c) of the Commercial Computer Software - Restricted
 Rights clause in FAR 52.227-19.
  
 Gaussian, Inc.
 340 Quinnipiac St., Bldg. 40, Wallingford CT 06492
  
  
 ---------------------------------------------------------------
 Warning -- This program may not be used in any manner that
 competes with the business of Gaussian, Inc. or will provide
 assistance to any competitor of Gaussian, Inc.  The licensee
 of this program is prohibited from giving any competitor of
 Gaussian, Inc. access to this program.  By using this program,
 the user acknowledges that Gaussian, Inc. is engaged in the
 business of creating and licensing software in the field of
 computational chemistry and represents and warrants to the
 licensee that it is not a competitor of Gaussian, Inc. and that
 it will not use this program in any manner prohibited above.
 ---------------------------------------------------------------
  

 Cite this work as:
 Gaussian 16, Revision A.03,
 M. J. Frisch, G. W. Trucks, H. B. Schlegel, G. E. Scuseria, 
 M. A. Robb, J. R. Cheeseman, G. Scalmani, V. Barone, 
 G. A. Petersson, H. Nakatsuji, X. Li, M. Caricato, A. V. Marenich, 
 J. Bloino, B. G. Janesko, R. Gomperts, B. Mennucci, H. P. Hratchian, 
 J. V. Ortiz, A. F. Izmaylov, J. L. Sonnenberg, D. Williams-Young, 
 F. Ding, F. Lipparini, F. Egidi, J. Goings, B. Peng, A. Petrone, 
 T. Henderson, D. Ranasinghe, V. G. Zakrzewski, J. Gao, N. Rega, 
 G. Zheng, W. Liang, M. Hada, M. Ehara, K. Toyota, R. Fukuda, 
 J. Hasegawa, M. Ishida, T. Nakajima, Y. Honda, O. Kitao, H. Nakai, 
 T. Vreven, K. Throssell, J. A. Montgomery, Jr., J. E. Peralta, 
 F. Ogliaro, M. J. Bearpark, J. J. Heyd, E. N. Brothers, K. N. Kudin, 
 V. N. Staroverov, T. A. Keith, R. Kobayashi, J. Normand, 
 K. Raghavachari, A. P. Rendell, J. C. Burant, S. S. Iyengar, 
 J. Tomasi, M. Cossi, J. M. Millam, M. Klene, C. Adamo, R. Cammi, 
 J. W. Ochterski, R. L. Martin, K. Morokuma, O. Farkas, 
 J. B. Foresman, and D. J. Fox, Gaussian, Inc., Wallingford CT, 2016.
 
 ******************************************
 Gaussian 16:  ES64L-G16RevA.03 25-Dec-2016
                15-Jul-2022 
 ******************************************
 %mem=10GB
 %chk=elklgqu0p6vwg_addon_7.chk
 %nprocshared=48
 Will use up to   48 processors via shared memory.
 -------------------------------------------------
 #P opt b3lyp/6-311G(d, p) empiricaldispersion=GD3
 -------------------------------------------------
 1/18=20,19=15,26=3,38=1/1,3;
 2/9=110,12=2,17=6,18=5,40=1/2;
 3/5=4,6=6,7=101,11=2,25=1,30=1,71=1,74=-5,124=31/1,2,3;
 4//1;
 5/5=2,38=5/2;
 6/7=2,8=2,9=2,10=2,28=1/1;
 7//1,2,3,16;
 1/18=20,19=15,26=3/3(2);
 2/9=110/2;
 99//99;
 2/9=110/2;
 3/5=4,6=6,7=101,11=2,25=1,30=1,71=1,74=-5,124=31/1,2,3;
 4/5=5,16=3,69=1/1;
 5/5=2,38=5/2;
 7//1,2,3,16;
 1/18=20,19=15,26=3/3(-5);
 2/9=110/2;
 6/7=2,8=2,9=2,10=2,19=2,28=1/1;
 99/9=1/99;
 Leave Link    1 at Fri Jul 15 07:13:37 2022, MaxMem=  1342177280 cpu:               2.1 elap:               0.1
 (Enter /home/mkliu/g16/l101.exe)
 -----
 force
 -----
 Symbolic Z-matrix:
 Charge =  0 Multiplicity = 2
 C                    -1.33441   1.88068  -3.91975 
 C                     0.19421   2.21664  -3.96861 
 C                     0.94685   0.88588  -4.23341 
 C                    -1.47107   0.35128  -4.15684 
 C                    -0.08153  -0.17508  -4.07499 
 C                    -2.19041  -0.18701  -2.94977 
 C                    -1.92371   2.06272  -2.55449 
 C                    -2.58687   0.90443  -2.12773 
 C                    -1.43932   2.94268  -1.58336 
 C                     0.72314   2.64606  -2.63719 
 C                    -0.01517   3.24684  -1.63159 
 C                     1.88016   0.70452  -3.0729 
 C                     1.82972   1.84509  -2.25921 
 C                     2.22219  -0.522    -2.53467 
 C                     0.196    -1.38234  -3.60755 
 C                     1.58367  -1.75415  -3.14174 
 C                    -1.96274  -1.41582  -2.40895 
 C                    -0.88634  -2.27262  -3.04602 
 C                    -2.48101  -1.71895  -1.08142 
 C                    -3.0469    0.69022  -0.82048 
 C                    -3.06149  -0.65596  -0.30111 
 C                    -2.0503    2.86808  -0.31897 
 C                    -2.91324   1.7917    0.03471 
 C                    -1.38444   3.2819    0.88284 
 C                     0.65965   3.44028  -0.39772 
 C                    -0.03838   3.56948   0.84079 
 C                     2.39828   1.82413  -0.98401 
 C                     1.89806   2.80176  -0.11485 
 C                     2.87627  -0.56316  -1.26853 
 C                     3.01005   0.61762  -0.49115 
 C                     3.15147  -1.90286  -0.61308 
 C                     1.27118  -2.74336  -2.07467 
 C                    -0.11236  -3.03114  -2.03308 
 C                     2.0353   -2.86549  -0.95437 
 C                    -1.95104  -2.81968  -0.40458 
 C                    -0.70725  -3.42509  -0.87068 
 C                    -1.93753  -2.8971    1.01689 
 C                    -3.1273   -0.79383   1.10137 
 C                    -2.53969  -1.9062    1.76954 
 C                    -2.87106   1.61678   1.45488 
 C                    -1.92509   2.54678   2.00116 
 C                    -3.00396   0.34661   1.97716 
 C                    -1.10798   2.14279   3.03956 
 C                     0.82374   3.12325   1.91587 
 C                     2.02663   2.65051   1.30081 
 C                     0.30146   2.43897   2.99406 
 C                     3.24419   0.55551   0.92349 
 C                     2.70633   1.54265   1.79166 
 C                     3.03972  -1.87063   0.88793 
 C                     3.19935  -0.71452   1.60451 
 C                     1.46539  -3.41926   0.22002 
 C                     0.10964  -3.71651   0.25845 
 C                    -0.6607   -3.43546   1.43116 
 C                     2.10725  -2.83484   1.3605 
 C                    -0.03805  -2.92301   2.55338 
 C                     1.36578  -2.62391   2.52003 
 C                    -1.93359  -1.43992   2.99142 
 C                    -2.22585  -0.0387    3.12045 
 C                    -1.2676    0.83386   3.61676 
 C                    -0.6957   -1.9211    3.36024 
 C                     1.01276   1.30951   3.53826 
 C                     2.20676   0.88748   2.97666 
 C                     2.49853  -0.51067   2.846 
 C                     1.57712  -1.44004   3.28923 
 C                     0.03758   0.33551   3.96181 
 C                     0.31431  -1.01643   3.83234 
 Cl                   -2.28254   2.87074  -5.05903 
 Cl                    0.57322   3.50215  -5.14651 
 Cl                    1.76453   0.74951  -5.80803 
 Cl                    2.65083  -2.4373   -4.4165 
 Cl                   -2.22939  -0.12594  -5.69756 
 Cl                   -1.64714  -3.34339  -4.30119 
 Cl                    4.77726  -2.4771   -1.19386 
 
 ITRead=  0  0  0  0  0  0  0  0  0  0  0  0  0  0  0  0  0  0  0  0
 ITRead=  0  0  0  0  0  0  0  0  0  0  0  0  0  0  0  0  0  0  0  0
 ITRead=  0  0  0  0  0  0  0  0  0  0  0  0  0  0  0  0  0  0  0  0
 ITRead=  0  0  0  0  0  0  0  0  0  0  0  0  0
 MicOpt= -1 -1 -1 -1 -1 -1 -1 -1 -1 -1 -1 -1 -1 -1 -1 -1 -1 -1 -1 -1
 MicOpt= -1 -1 -1 -1 -1 -1 -1 -1 -1 -1 -1 -1 -1 -1 -1 -1 -1 -1 -1 -1
 MicOpt= -1 -1 -1 -1 -1 -1 -1 -1 -1 -1 -1 -1 -1 -1 -1 -1 -1 -1 -1 -1
 MicOpt= -1 -1 -1 -1 -1 -1 -1 -1 -1 -1 -1 -1 -1
 NAtoms=     73 NQM=       73 NQMF=       0 NMMI=      0 NMMIF=      0
                NMic=       0 NMicF=      0.
                    Isotopes and Nuclear Properties:
 (Nuclear quadrupole moments (NQMom) in fm**2, nuclear magnetic moments (NMagM)
  in nuclear magnetons)

  Atom         1           2           3           4           5           6           7           8           9          10
 IAtWgt=          12          12          12          12          12          12          12          12          12          12
 AtmWgt=  12.0000000  12.0000000  12.0000000  12.0000000  12.0000000  12.0000000  12.0000000  12.0000000  12.0000000  12.0000000
 NucSpn=           0           0           0           0           0           0           0           0           0           0
 AtZEff=  -0.0000000  -0.0000000  -0.0000000  -0.0000000  -0.0000000  -0.0000000  -0.0000000  -0.0000000  -0.0000000  -0.0000000
 NQMom=    0.0000000   0.0000000   0.0000000   0.0000000   0.0000000   0.0000000   0.0000000   0.0000000   0.0000000   0.0000000
 NMagM=    0.0000000   0.0000000   0.0000000   0.0000000   0.0000000   0.0000000   0.0000000   0.0000000   0.0000000   0.0000000
 AtZNuc=   6.0000000   6.0000000   6.0000000   6.0000000   6.0000000   6.0000000   6.0000000   6.0000000   6.0000000   6.0000000

  Atom        11          12          13          14          15          16          17          18          19          20
 IAtWgt=          12          12          12          12          12          12          12          12          12          12
 AtmWgt=  12.0000000  12.0000000  12.0000000  12.0000000  12.0000000  12.0000000  12.0000000  12.0000000  12.0000000  12.0000000
 NucSpn=           0           0           0           0           0           0           0           0           0           0
 AtZEff=  -0.0000000  -0.0000000  -0.0000000  -0.0000000  -0.0000000  -0.0000000  -0.0000000  -0.0000000  -0.0000000  -0.0000000
 NQMom=    0.0000000   0.0000000   0.0000000   0.0000000   0.0000000   0.0000000   0.0000000   0.0000000   0.0000000   0.0000000
 NMagM=    0.0000000   0.0000000   0.0000000   0.0000000   0.0000000   0.0000000   0.0000000   0.0000000   0.0000000   0.0000000
 AtZNuc=   6.0000000   6.0000000   6.0000000   6.0000000   6.0000000   6.0000000   6.0000000   6.0000000   6.0000000   6.0000000

  Atom        21          22          23          24          25          26          27          28          29          30
 IAtWgt=          12          12          12          12          12          12          12          12          12          12
 AtmWgt=  12.0000000  12.0000000  12.0000000  12.0000000  12.0000000  12.0000000  12.0000000  12.0000000  12.0000000  12.0000000
 NucSpn=           0           0           0           0           0           0           0           0           0           0
 AtZEff=  -0.0000000  -0.0000000  -0.0000000  -0.0000000  -0.0000000  -0.0000000  -0.0000000  -0.0000000  -0.0000000  -0.0000000
 NQMom=    0.0000000   0.0000000   0.0000000   0.0000000   0.0000000   0.0000000   0.0000000   0.0000000   0.0000000   0.0000000
 NMagM=    0.0000000   0.0000000   0.0000000   0.0000000   0.0000000   0.0000000   0.0000000   0.0000000   0.0000000   0.0000000
 AtZNuc=   6.0000000   6.0000000   6.0000000   6.0000000   6.0000000   6.0000000   6.0000000   6.0000000   6.0000000   6.0000000

  Atom        31          32          33          34          35          36          37          38          39          40
 IAtWgt=          12          12          12          12          12          12          12          12          12          12
 AtmWgt=  12.0000000  12.0000000  12.0000000  12.0000000  12.0000000  12.0000000  12.0000000  12.0000000  12.0000000  12.0000000
 NucSpn=           0           0           0           0           0           0           0           0           0           0
 AtZEff=  -0.0000000  -0.0000000  -0.0000000  -0.0000000  -0.0000000  -0.0000000  -0.0000000  -0.0000000  -0.0000000  -0.0000000
 NQMom=    0.0000000   0.0000000   0.0000000   0.0000000   0.0000000   0.0000000   0.0000000   0.0000000   0.0000000   0.0000000
 NMagM=    0.0000000   0.0000000   0.0000000   0.0000000   0.0000000   0.0000000   0.0000000   0.0000000   0.0000000   0.0000000
 AtZNuc=   6.0000000   6.0000000   6.0000000   6.0000000   6.0000000   6.0000000   6.0000000   6.0000000   6.0000000   6.0000000

  Atom        41          42          43          44          45          46          47          48          49          50
 IAtWgt=          12          12          12          12          12          12          12          12          12          12
 AtmWgt=  12.0000000  12.0000000  12.0000000  12.0000000  12.0000000  12.0000000  12.0000000  12.0000000  12.0000000  12.0000000
 NucSpn=           0           0           0           0           0           0           0           0           0           0
 AtZEff=  -0.0000000  -0.0000000  -0.0000000  -0.0000000  -0.0000000  -0.0000000  -0.0000000  -0.0000000  -0.0000000  -0.0000000
 NQMom=    0.0000000   0.0000000   0.0000000   0.0000000   0.0000000   0.0000000   0.0000000   0.0000000   0.0000000   0.0000000
 NMagM=    0.0000000   0.0000000   0.0000000   0.0000000   0.0000000   0.0000000   0.0000000   0.0000000   0.0000000   0.0000000
 AtZNuc=   6.0000000   6.0000000   6.0000000   6.0000000   6.0000000   6.0000000   6.0000000   6.0000000   6.0000000   6.0000000

  Atom        51          52          53          54          55          56          57          58          59          60
 IAtWgt=          12          12          12          12          12          12          12          12          12          12
 AtmWgt=  12.0000000  12.0000000  12.0000000  12.0000000  12.0000000  12.0000000  12.0000000  12.0000000  12.0000000  12.0000000
 NucSpn=           0           0           0           0           0           0           0           0           0           0
 AtZEff=  -0.0000000  -0.0000000  -0.0000000  -0.0000000  -0.0000000  -0.0000000  -0.0000000  -0.0000000  -0.0000000  -0.0000000
 NQMom=    0.0000000   0.0000000   0.0000000   0.0000000   0.0000000   0.0000000   0.0000000   0.0000000   0.0000000   0.0000000
 NMagM=    0.0000000   0.0000000   0.0000000   0.0000000   0.0000000   0.0000000   0.0000000   0.0000000   0.0000000   0.0000000
 AtZNuc=   6.0000000   6.0000000   6.0000000   6.0000000   6.0000000   6.0000000   6.0000000   6.0000000   6.0000000   6.0000000

  Atom        61          62          63          64          65          66          67          68          69          70
 IAtWgt=          12          12          12          12          12          12          35          35          35          35
 AtmWgt=  12.0000000  12.0000000  12.0000000  12.0000000  12.0000000  12.0000000  34.9688527  34.9688527  34.9688527  34.9688527
 NucSpn=           0           0           0           0           0           0           3           3           3           3
 AtZEff=  -0.0000000  -0.0000000  -0.0000000  -0.0000000  -0.0000000  -0.0000000  -0.0000000  -0.0000000  -0.0000000  -0.0000000
 NQMom=    0.0000000   0.0000000   0.0000000   0.0000000   0.0000000   0.0000000  -8.1650000  -8.1650000  -8.1650000  -8.1650000
 NMagM=    0.0000000   0.0000000   0.0000000   0.0000000   0.0000000   0.0000000   0.8218740   0.8218740   0.8218740   0.8218740
 AtZNuc=   6.0000000   6.0000000   6.0000000   6.0000000   6.0000000   6.0000000  17.0000000  17.0000000  17.0000000  17.0000000

  Atom        71          72          73
 IAtWgt=          35          35          35
 AtmWgt=  34.9688527  34.9688527  34.9688527
 NucSpn=           3           3           3
 AtZEff=  -0.0000000  -0.0000000  -0.0000000
 NQMom=   -8.1650000  -8.1650000  -8.1650000
 NMagM=    0.8218740   0.8218740   0.8218740
 AtZNuc=  17.0000000  17.0000000  17.0000000
 Leave Link  101 at Fri Jul 15 07:13:37 2022, MaxMem=  1342177280 cpu:              13.8 elap:               0.3
 (Enter /home/mkliu/g16/l103.exe)

 GradGradGradGradGradGradGradGradGradGradGradGradGradGradGradGradGradGrad
 Berny optimization.
 Initialization pass.
                           ----------------------------
                           !    Initial Parameters    !
                           ! (Angstroms and Degrees)  !
 --------------------------                            --------------------------
 ! Name  Definition              Value          Derivative Info.                !
 --------------------------------------------------------------------------------
 ! R1    R(1,2)                  1.5659         estimate D2E/DX2                !
 ! R2    R(1,4)                  1.5537         estimate D2E/DX2                !
 ! R3    R(1,7)                  1.4981         estimate D2E/DX2                !
 ! R4    R(1,67)                 1.7825         estimate D2E/DX2                !
 ! R5    R(2,3)                  1.5516         estimate D2E/DX2                !
 ! R6    R(2,10)                 1.4956         estimate D2E/DX2                !
 ! R7    R(2,68)                 1.7843         estimate D2E/DX2                !
 ! R8    R(3,5)                  1.486          estimate D2E/DX2                !
 ! R9    R(3,12)                 1.5002         estimate D2E/DX2                !
 ! R10   R(3,69)                 1.7795         estimate D2E/DX2                !
 ! R11   R(4,5)                  1.4881         estimate D2E/DX2                !
 ! R12   R(4,6)                  1.5047         estimate D2E/DX2                !
 ! R13   R(4,71)                 1.7823         estimate D2E/DX2                !
 ! R14   R(5,15)                 1.324          estimate D2E/DX2                !
 ! R15   R(6,8)                  1.4227         estimate D2E/DX2                !
 ! R16   R(6,17)                 1.3617         estimate D2E/DX2                !
 ! R17   R(7,8)                  1.4013         estimate D2E/DX2                !
 ! R18   R(7,9)                  1.3972         estimate D2E/DX2                !
 ! R19   R(8,20)                 1.4023         estimate D2E/DX2                !
 ! R20   R(9,11)                 1.4571         estimate D2E/DX2                !
 ! R21   R(9,22)                 1.4063         estimate D2E/DX2                !
 ! R22   R(10,11)                1.3847         estimate D2E/DX2                !
 ! R23   R(10,13)                1.4174         estimate D2E/DX2                !
 ! R24   R(11,25)                1.4196         estimate D2E/DX2                !
 ! R25   R(12,13)                1.402          estimate D2E/DX2                !
 ! R26   R(12,14)                1.3824         estimate D2E/DX2                !
 ! R27   R(13,27)                1.3964         estimate D2E/DX2                !
 ! R28   R(14,16)                1.5147         estimate D2E/DX2                !
 ! R29   R(14,29)                1.4257         estimate D2E/DX2                !
 ! R30   R(15,16)                1.5103         estimate D2E/DX2                !
 ! R31   R(15,18)                1.5098         estimate D2E/DX2                !
 ! R32   R(16,32)                1.4882         estimate D2E/DX2                !
 ! R33   R(16,70)                1.7974         estimate D2E/DX2                !
 ! R34   R(17,18)                1.5161         estimate D2E/DX2                !
 ! R35   R(17,19)                1.457          estimate D2E/DX2                !
 ! R36   R(18,33)                1.4834         estimate D2E/DX2                !
 ! R37   R(18,72)                1.8168         estimate D2E/DX2                !
 ! R38   R(19,21)                1.4408         estimate D2E/DX2                !
 ! R39   R(19,35)                1.3966         estimate D2E/DX2                !
 ! R40   R(20,21)                1.443          estimate D2E/DX2                !
 ! R41   R(20,23)                1.4009         estimate D2E/DX2                !
 ! R42   R(21,38)                1.4108         estimate D2E/DX2                !
 ! R43   R(22,23)                1.4242         estimate D2E/DX2                !
 ! R44   R(22,24)                1.4349         estimate D2E/DX2                !
 ! R45   R(23,40)                1.4315         estimate D2E/DX2                !
 ! R46   R(24,26)                1.3771         estimate D2E/DX2                !
 ! R47   R(24,41)                1.4434         estimate D2E/DX2                !
 ! R48   R(25,26)                1.4275         estimate D2E/DX2                !
 ! R49   R(25,28)                1.4218         estimate D2E/DX2                !
 ! R50   R(26,44)                1.4485         estimate D2E/DX2                !
 ! R51   R(27,28)                1.4005         estimate D2E/DX2                !
 ! R52   R(27,30)                1.4397         estimate D2E/DX2                !
 ! R53   R(28,45)                1.4295         estimate D2E/DX2                !
 ! R54   R(29,30)                1.42           estimate D2E/DX2                !
 ! R55   R(29,31)                1.5166         estimate D2E/DX2                !
 ! R56   R(30,47)                1.4352         estimate D2E/DX2                !
 ! R57   R(31,34)                1.5129         estimate D2E/DX2                !
 ! R58   R(31,49)                1.5055         estimate D2E/DX2                !
 ! R59   R(31,73)                1.8194         estimate D2E/DX2                !
 ! R60   R(32,33)                1.4138         estimate D2E/DX2                !
 ! R61   R(32,34)                1.3616         estimate D2E/DX2                !
 ! R62   R(33,36)                1.3639         estimate D2E/DX2                !
 ! R63   R(34,51)                1.418          estimate D2E/DX2                !
 ! R64   R(35,36)                1.4597         estimate D2E/DX2                !
 ! R65   R(35,37)                1.4236         estimate D2E/DX2                !
 ! R66   R(36,52)                1.4238         estimate D2E/DX2                !
 ! R67   R(37,39)                1.3824         estimate D2E/DX2                !
 ! R68   R(37,53)                1.4463         estimate D2E/DX2                !
 ! R69   R(38,39)                1.4245         estimate D2E/DX2                !
 ! R70   R(38,42)                1.4432         estimate D2E/DX2                !
 ! R71   R(39,57)                1.4414         estimate D2E/DX2                !
 ! R72   R(40,41)                1.4346         estimate D2E/DX2                !
 ! R73   R(40,42)                1.3798         estimate D2E/DX2                !
 ! R74   R(41,43)                1.3817         estimate D2E/DX2                !
 ! R75   R(42,58)                1.4356         estimate D2E/DX2                !
 ! R76   R(43,46)                1.4409         estimate D2E/DX2                !
 ! R77   R(43,59)                1.4394         estimate D2E/DX2                !
 ! R78   R(44,45)                1.4313         estimate D2E/DX2                !
 ! R79   R(44,46)                1.3797         estimate D2E/DX2                !
 ! R80   R(45,48)                1.3893         estimate D2E/DX2                !
 ! R81   R(46,61)                1.4415         estimate D2E/DX2                !
 ! R82   R(47,48)                1.4204         estimate D2E/DX2                !
 ! R83   R(47,50)                1.4418         estimate D2E/DX2                !
 ! R84   R(48,62)                1.4433         estimate D2E/DX2                !
 ! R85   R(49,50)                1.3695         estimate D2E/DX2                !
 ! R86   R(49,54)                1.4221         estimate D2E/DX2                !
 ! R87   R(50,63)                1.4401         estimate D2E/DX2                !
 ! R88   R(51,52)                1.3885         estimate D2E/DX2                !
 ! R89   R(51,54)                1.4333         estimate D2E/DX2                !
 ! R90   R(52,53)                1.431          estimate D2E/DX2                !
 ! R91   R(53,55)                1.3819         estimate D2E/DX2                !
 ! R92   R(54,56)                1.3924         estimate D2E/DX2                !
 ! R93   R(55,56)                1.4357         estimate D2E/DX2                !
 ! R94   R(55,60)                1.4448         estimate D2E/DX2                !
 ! R95   R(56,64)                1.4275         estimate D2E/DX2                !
 ! R96   R(57,58)                1.4372         estimate D2E/DX2                !
 ! R97   R(57,60)                1.3784         estimate D2E/DX2                !
 ! R98   R(58,59)                1.3878         estimate D2E/DX2                !
 ! R99   R(59,65)                1.4391         estimate D2E/DX2                !
 ! R100  R(60,66)                1.4358         estimate D2E/DX2                !
 ! R101  R(61,62)                1.3853         estimate D2E/DX2                !
 ! R102  R(61,65)                1.4419         estimate D2E/DX2                !
 ! R103  R(62,63)                1.4342         estimate D2E/DX2                !
 ! R104  R(63,64)                1.3817         estimate D2E/DX2                !
 ! R105  R(64,66)                1.4384         estimate D2E/DX2                !
 ! R106  R(65,66)                1.386          estimate D2E/DX2                !
 ! A1    A(2,1,4)              106.9962         estimate D2E/DX2                !
 ! A2    A(2,1,7)              112.7291         estimate D2E/DX2                !
 ! A3    A(2,1,67)             112.343          estimate D2E/DX2                !
 ! A4    A(4,1,7)              102.9488         estimate D2E/DX2                !
 ! A5    A(4,1,67)             113.7308         estimate D2E/DX2                !
 ! A6    A(7,1,67)             107.8032         estimate D2E/DX2                !
 ! A7    A(1,2,3)              107.1482         estimate D2E/DX2                !
 ! A8    A(1,2,10)             112.2758         estimate D2E/DX2                !
 ! A9    A(1,2,68)             112.4915         estimate D2E/DX2                !
 ! A10   A(3,2,10)             103.0983         estimate D2E/DX2                !
 ! A11   A(3,2,68)             113.7168         estimate D2E/DX2                !
 ! A12   A(10,2,68)            107.8005         estimate D2E/DX2                !
 ! A13   A(2,3,5)              104.9781         estimate D2E/DX2                !
 ! A14   A(2,3,12)             105.8684         estimate D2E/DX2                !
 ! A15   A(2,3,69)             116.0798         estimate D2E/DX2                !
 ! A16   A(5,3,12)             105.1734         estimate D2E/DX2                !
 ! A17   A(5,3,69)             110.9534         estimate D2E/DX2                !
 ! A18   A(12,3,69)            112.9154         estimate D2E/DX2                !
 ! A19   A(1,4,5)              104.9306         estimate D2E/DX2                !
 ! A20   A(1,4,6)              105.77           estimate D2E/DX2                !
 ! A21   A(1,4,71)             115.6525         estimate D2E/DX2                !
 ! A22   A(5,4,6)              106.0047         estimate D2E/DX2                !
 ! A23   A(5,4,71)             110.4947         estimate D2E/DX2                !
 ! A24   A(6,4,71)             113.2204         estimate D2E/DX2                !
 ! A25   A(3,5,4)              112.8166         estimate D2E/DX2                !
 ! A26   A(3,5,15)             122.9274         estimate D2E/DX2                !
 ! A27   A(4,5,15)             122.5245         estimate D2E/DX2                !
 ! A28   A(4,6,8)              108.8003         estimate D2E/DX2                !
 ! A29   A(4,6,17)             124.1585         estimate D2E/DX2                !
 ! A30   A(8,6,17)             120.6228         estimate D2E/DX2                !
 ! A31   A(1,7,8)              111.3007         estimate D2E/DX2                !
 ! A32   A(1,7,9)              125.0005         estimate D2E/DX2                !
 ! A33   A(8,7,9)              118.2297         estimate D2E/DX2                !
 ! A34   A(6,8,7)              109.0432         estimate D2E/DX2                !
 ! A35   A(6,8,20)             120.8542         estimate D2E/DX2                !
 ! A36   A(7,8,20)             124.4326         estimate D2E/DX2                !
 ! A37   A(7,9,11)             116.573          estimate D2E/DX2                !
 ! A38   A(7,9,22)             116.1622         estimate D2E/DX2                !
 ! A39   A(11,9,22)            117.7419         estimate D2E/DX2                !
 ! A40   A(2,10,11)            125.6279         estimate D2E/DX2                !
 ! A41   A(2,10,13)            110.5641         estimate D2E/DX2                !
 ! A42   A(11,10,13)           117.8926         estimate D2E/DX2                !
 ! A43   A(9,11,10)            117.0409         estimate D2E/DX2                !
 ! A44   A(9,11,25)            117.6654         estimate D2E/DX2                !
 ! A45   A(10,11,25)           115.9051         estimate D2E/DX2                !
 ! A46   A(3,12,13)            109.1616         estimate D2E/DX2                !
 ! A47   A(3,12,14)            124.2182         estimate D2E/DX2                !
 ! A48   A(13,12,14)           120.3143         estimate D2E/DX2                !
 ! A49   A(10,13,12)           109.4543         estimate D2E/DX2                !
 ! A50   A(10,13,27)           124.7434         estimate D2E/DX2                !
 ! A51   A(12,13,27)           120.2102         estimate D2E/DX2                !
 ! A52   A(12,14,16)           117.4766         estimate D2E/DX2                !
 ! A53   A(12,14,29)           119.0052         estimate D2E/DX2                !
 ! A54   A(16,14,29)           121.7241         estimate D2E/DX2                !
 ! A55   A(5,15,16)            121.7335         estimate D2E/DX2                !
 ! A56   A(5,15,18)            121.2469         estimate D2E/DX2                !
 ! A57   A(16,15,18)           113.5043         estimate D2E/DX2                !
 ! A58   A(14,16,15)           108.1003         estimate D2E/DX2                !
 ! A59   A(14,16,32)           109.989          estimate D2E/DX2                !
 ! A60   A(14,16,70)           110.0682         estimate D2E/DX2                !
 ! A61   A(15,16,32)           101.061          estimate D2E/DX2                !
 ! A62   A(15,16,70)           114.8574         estimate D2E/DX2                !
 ! A63   A(32,16,70)           112.3683         estimate D2E/DX2                !
 ! A64   A(6,17,18)            117.5024         estimate D2E/DX2                !
 ! A65   A(6,17,19)            119.3496         estimate D2E/DX2                !
 ! A66   A(18,17,19)           121.1871         estimate D2E/DX2                !
 ! A67   A(15,18,17)           109.3911         estimate D2E/DX2                !
 ! A68   A(15,18,33)           100.4547         estimate D2E/DX2                !
 ! A69   A(15,18,72)           113.003          estimate D2E/DX2                !
 ! A70   A(17,18,33)           111.8685         estimate D2E/DX2                !
 ! A71   A(17,18,72)           109.0303         estimate D2E/DX2                !
 ! A72   A(33,18,72)           112.8851         estimate D2E/DX2                !
 ! A73   A(17,19,21)           118.9008         estimate D2E/DX2                !
 ! A74   A(17,19,35)           118.07           estimate D2E/DX2                !
 ! A75   A(21,19,35)           118.1574         estimate D2E/DX2                !
 ! A76   A(8,20,21)            118.7746         estimate D2E/DX2                !
 ! A77   A(8,20,23)            114.6885         estimate D2E/DX2                !
 ! A78   A(21,20,23)           120.9823         estimate D2E/DX2                !
 ! A79   A(19,21,20)           119.2944         estimate D2E/DX2                !
 ! A80   A(19,21,38)           119.0197         estimate D2E/DX2                !
 ! A81   A(20,21,38)           116.7084         estimate D2E/DX2                !
 ! A82   A(9,22,23)            121.7777         estimate D2E/DX2                !
 ! A83   A(9,22,24)            122.4219         estimate D2E/DX2                !
 ! A84   A(23,22,24)           106.9261         estimate D2E/DX2                !
 ! A85   A(20,23,22)           120.0302         estimate D2E/DX2                !
 ! A86   A(20,23,40)           120.8211         estimate D2E/DX2                !
 ! A87   A(22,23,40)           108.7152         estimate D2E/DX2                !
 ! A88   A(22,24,26)           119.2252         estimate D2E/DX2                !
 ! A89   A(22,24,41)           109.1615         estimate D2E/DX2                !
 ! A90   A(26,24,41)           119.7455         estimate D2E/DX2                !
 ! A91   A(11,25,26)           122.2743         estimate D2E/DX2                !
 ! A92   A(11,25,28)           121.7221         estimate D2E/DX2                !
 ! A93   A(26,25,28)           107.0943         estimate D2E/DX2                !
 ! A94   A(24,26,25)           119.0486         estimate D2E/DX2                !
 ! A95   A(24,26,44)           119.6554         estimate D2E/DX2                !
 ! A96   A(25,26,44)           108.9665         estimate D2E/DX2                !
 ! A97   A(13,27,28)           114.2584         estimate D2E/DX2                !
 ! A98   A(13,27,30)           119.8816         estimate D2E/DX2                !
 ! A99   A(28,27,30)           121.6204         estimate D2E/DX2                !
 ! A100  A(25,28,27)           120.0752         estimate D2E/DX2                !
 ! A101  A(25,28,45)           108.838          estimate D2E/DX2                !
 ! A102  A(27,28,45)           120.5717         estimate D2E/DX2                !
 ! A103  A(14,29,30)           120.3572         estimate D2E/DX2                !
 ! A104  A(14,29,31)           119.5088         estimate D2E/DX2                !
 ! A105  A(30,29,31)           118.7398         estimate D2E/DX2                !
 ! A106  A(27,30,29)           117.9946         estimate D2E/DX2                !
 ! A107  A(27,30,47)           116.2955         estimate D2E/DX2                !
 ! A108  A(29,30,47)           121.2634         estimate D2E/DX2                !
 ! A109  A(29,31,34)           109.3102         estimate D2E/DX2                !
 ! A110  A(29,31,49)           113.4851         estimate D2E/DX2                !
 ! A111  A(29,31,73)           107.6369         estimate D2E/DX2                !
 ! A112  A(34,31,49)           100.5895         estimate D2E/DX2                !
 ! A113  A(34,31,73)           112.7315         estimate D2E/DX2                !
 ! A114  A(49,31,73)           113.0381         estimate D2E/DX2                !
 ! A115  A(16,32,33)           111.2157         estimate D2E/DX2                !
 ! A116  A(16,32,34)           122.1227         estimate D2E/DX2                !
 ! A117  A(33,32,34)           120.4475         estimate D2E/DX2                !
 ! A118  A(18,33,32)           112.7329         estimate D2E/DX2                !
 ! A119  A(18,33,36)           120.1381         estimate D2E/DX2                !
 ! A120  A(32,33,36)           120.7106         estimate D2E/DX2                !
 ! A121  A(31,34,32)           122.8589         estimate D2E/DX2                !
 ! A122  A(31,34,51)           110.9876         estimate D2E/DX2                !
 ! A123  A(32,34,51)           119.4014         estimate D2E/DX2                !
 ! A124  A(19,35,36)           119.6998         estimate D2E/DX2                !
 ! A125  A(19,35,37)           122.0287         estimate D2E/DX2                !
 ! A126  A(36,35,37)           106.7488         estimate D2E/DX2                !
 ! A127  A(33,36,35)           121.5996         estimate D2E/DX2                !
 ! A128  A(33,36,52)           118.9959         estimate D2E/DX2                !
 ! A129  A(35,36,52)           108.6955         estimate D2E/DX2                !
 ! A130  A(35,37,39)           120.0343         estimate D2E/DX2                !
 ! A131  A(35,37,53)           108.3384         estimate D2E/DX2                !
 ! A132  A(39,37,53)           119.6981         estimate D2E/DX2                !
 ! A133  A(21,38,39)           121.5589         estimate D2E/DX2                !
 ! A134  A(21,38,42)           121.4711         estimate D2E/DX2                !
 ! A135  A(39,38,42)           107.2883         estimate D2E/DX2                !
 ! A136  A(37,39,38)           118.9507         estimate D2E/DX2                !
 ! A137  A(37,39,57)           120.6798         estimate D2E/DX2                !
 ! A138  A(38,39,57)           108.5696         estimate D2E/DX2                !
 ! A139  A(23,40,41)           108.5409         estimate D2E/DX2                !
 ! A140  A(23,40,42)           119.0242         estimate D2E/DX2                !
 ! A141  A(41,40,42)           121.073          estimate D2E/DX2                !
 ! A142  A(24,41,40)           106.3861         estimate D2E/DX2                !
 ! A143  A(24,41,43)           120.6424         estimate D2E/DX2                !
 ! A144  A(40,41,43)           119.1153         estimate D2E/DX2                !
 ! A145  A(38,42,40)           120.3954         estimate D2E/DX2                !
 ! A146  A(38,42,58)           108.512          estimate D2E/DX2                !
 ! A147  A(40,42,58)           119.7562         estimate D2E/DX2                !
 ! A148  A(41,43,46)           119.6443         estimate D2E/DX2                !
 ! A149  A(41,43,59)           120.1096         estimate D2E/DX2                !
 ! A150  A(46,43,59)           107.9412         estimate D2E/DX2                !
 ! A151  A(26,44,45)           106.4395         estimate D2E/DX2                !
 ! A152  A(26,44,46)           120.4969         estimate D2E/DX2                !
 ! A153  A(45,44,46)           119.3497         estimate D2E/DX2                !
 ! A154  A(28,45,44)           108.3619         estimate D2E/DX2                !
 ! A155  A(28,45,48)           118.5705         estimate D2E/DX2                !
 ! A156  A(44,45,48)           121.5128         estimate D2E/DX2                !
 ! A157  A(43,46,44)           119.7952         estimate D2E/DX2                !
 ! A158  A(43,46,61)           108.041          estimate D2E/DX2                !
 ! A159  A(44,46,61)           119.7919         estimate D2E/DX2                !
 ! A160  A(30,47,48)           120.7042         estimate D2E/DX2                !
 ! A161  A(30,47,50)           119.9081         estimate D2E/DX2                !
 ! A162  A(48,47,50)           108.1626         estimate D2E/DX2                !
 ! A163  A(45,48,47)           121.5671         estimate D2E/DX2                !
 ! A164  A(45,48,62)           118.8626         estimate D2E/DX2                !
 ! A165  A(47,48,62)           108.5076         estimate D2E/DX2                !
 ! A166  A(31,49,50)           122.079          estimate D2E/DX2                !
 ! A167  A(31,49,54)           111.4353         estimate D2E/DX2                !
 ! A168  A(50,49,54)           118.3537         estimate D2E/DX2                !
 ! A169  A(47,50,49)           120.0061         estimate D2E/DX2                !
 ! A170  A(47,50,63)           107.3154         estimate D2E/DX2                !
 ! A171  A(49,50,63)           120.9194         estimate D2E/DX2                !
 ! A172  A(34,51,52)           119.932          estimate D2E/DX2                !
 ! A173  A(34,51,54)           108.6506         estimate D2E/DX2                !
 ! A174  A(52,51,54)           120.1688         estimate D2E/DX2                !
 ! A175  A(36,52,51)           119.6337         estimate D2E/DX2                !
 ! A176  A(36,52,53)           107.509          estimate D2E/DX2                !
 ! A177  A(51,52,53)           120.4164         estimate D2E/DX2                !
 ! A178  A(37,53,52)           108.2776         estimate D2E/DX2                !
 ! A179  A(37,53,55)           119.4951         estimate D2E/DX2                !
 ! A180  A(52,53,55)           119.722          estimate D2E/DX2                !
 ! A181  A(49,54,51)           107.7991         estimate D2E/DX2                !
 ! A182  A(49,54,56)           121.5446         estimate D2E/DX2                !
 ! A183  A(51,54,56)           119.0737         estimate D2E/DX2                !
 ! A184  A(53,55,56)           119.9306         estimate D2E/DX2                !
 ! A185  A(53,55,60)           120.3705         estimate D2E/DX2                !
 ! A186  A(56,55,60)           108.2754         estimate D2E/DX2                !
 ! A187  A(54,56,55)           120.5617         estimate D2E/DX2                !
 ! A188  A(54,56,64)           119.7031         estimate D2E/DX2                !
 ! A189  A(55,56,64)           107.7584         estimate D2E/DX2                !
 ! A190  A(39,57,58)           107.8176         estimate D2E/DX2                !
 ! A191  A(39,57,60)           119.4401         estimate D2E/DX2                !
 ! A192  A(58,57,60)           119.9314         estimate D2E/DX2                !
 ! A193  A(42,58,57)           107.4815         estimate D2E/DX2                !
 ! A194  A(42,58,59)           119.3608         estimate D2E/DX2                !
 ! A195  A(57,58,59)           120.3119         estimate D2E/DX2                !
 ! A196  A(43,59,58)           120.3251         estimate D2E/DX2                !
 ! A197  A(43,59,65)           108.0883         estimate D2E/DX2                !
 ! A198  A(58,59,65)           119.6213         estimate D2E/DX2                !
 ! A199  A(55,60,57)           120.0961         estimate D2E/DX2                !
 ! A200  A(55,60,66)           107.4804         estimate D2E/DX2                !
 ! A201  A(57,60,66)           119.9858         estimate D2E/DX2                !
 ! A202  A(46,61,62)           120.7283         estimate D2E/DX2                !
 ! A203  A(46,61,65)           107.8457         estimate D2E/DX2                !
 ! A204  A(62,61,65)           119.7495         estimate D2E/DX2                !
 ! A205  A(48,62,61)           119.5304         estimate D2E/DX2                !
 ! A206  A(48,62,63)           107.2962         estimate D2E/DX2                !
 ! A207  A(61,62,63)           120.6135         estimate D2E/DX2                !
 ! A208  A(50,63,62)           108.3922         estimate D2E/DX2                !
 ! A209  A(50,63,64)           120.3867         estimate D2E/DX2                !
 ! A210  A(62,63,64)           119.3939         estimate D2E/DX2                !
 ! A211  A(56,64,63)           118.9262         estimate D2E/DX2                !
 ! A212  A(56,64,66)           108.524          estimate D2E/DX2                !
 ! A213  A(63,64,66)           120.5617         estimate D2E/DX2                !
 ! A214  A(59,65,61)           108.0013         estimate D2E/DX2                !
 ! A215  A(59,65,66)           119.7667         estimate D2E/DX2                !
 ! A216  A(61,65,66)           119.7632         estimate D2E/DX2                !
 ! A217  A(60,66,64)           107.9304         estimate D2E/DX2                !
 ! A218  A(60,66,65)           120.3221         estimate D2E/DX2                !
 ! A219  A(64,66,65)           119.8546         estimate D2E/DX2                !
 ! D1    D(4,1,2,3)             -0.0081         estimate D2E/DX2                !
 ! D2    D(4,1,2,10)          -112.5086         estimate D2E/DX2                !
 ! D3    D(4,1,2,68)           125.6776         estimate D2E/DX2                !
 ! D4    D(7,1,2,3)            112.4547         estimate D2E/DX2                !
 ! D5    D(7,1,2,10)            -0.0457         estimate D2E/DX2                !
 ! D6    D(7,1,2,68)          -121.8596         estimate D2E/DX2                !
 ! D7    D(67,1,2,3)          -125.5012         estimate D2E/DX2                !
 ! D8    D(67,1,2,10)          121.9984         estimate D2E/DX2                !
 ! D9    D(67,1,2,68)            0.1845         estimate D2E/DX2                !
 ! D10   D(2,1,4,5)             10.2695         estimate D2E/DX2                !
 ! D11   D(2,1,4,6)            122.097          estimate D2E/DX2                !
 ! D12   D(2,1,4,71)          -111.7382         estimate D2E/DX2                !
 ! D13   D(7,1,4,5)           -108.7326         estimate D2E/DX2                !
 ! D14   D(7,1,4,6)              3.095          estimate D2E/DX2                !
 ! D15   D(7,1,4,71)           129.2597         estimate D2E/DX2                !
 ! D16   D(67,1,4,5)           134.922          estimate D2E/DX2                !
 ! D17   D(67,1,4,6)          -113.2505         estimate D2E/DX2                !
 ! D18   D(67,1,4,71)           12.9143         estimate D2E/DX2                !
 ! D19   D(2,1,7,8)           -126.2806         estimate D2E/DX2                !
 ! D20   D(2,1,7,9)             26.9455         estimate D2E/DX2                !
 ! D21   D(4,1,7,8)            -11.3509         estimate D2E/DX2                !
 ! D22   D(4,1,7,9)            141.8753         estimate D2E/DX2                !
 ! D23   D(67,1,7,8)           109.1496         estimate D2E/DX2                !
 ! D24   D(67,1,7,9)           -97.6243         estimate D2E/DX2                !
 ! D25   D(1,2,3,5)            -10.2735         estimate D2E/DX2                !
 ! D26   D(1,2,3,12)          -121.2344         estimate D2E/DX2                !
 ! D27   D(1,2,3,69)           112.6214         estimate D2E/DX2                !
 ! D28   D(10,2,3,5)           108.3527         estimate D2E/DX2                !
 ! D29   D(10,2,3,12)           -2.6083         estimate D2E/DX2                !
 ! D30   D(10,2,3,69)         -128.7525         estimate D2E/DX2                !
 ! D31   D(68,2,3,5)          -135.2213         estimate D2E/DX2                !
 ! D32   D(68,2,3,12)          113.8177         estimate D2E/DX2                !
 ! D33   D(68,2,3,69)          -12.3265         estimate D2E/DX2                !
 ! D34   D(1,2,10,11)          -26.8765         estimate D2E/DX2                !
 ! D35   D(1,2,10,13)          125.2013         estimate D2E/DX2                !
 ! D36   D(3,2,10,11)         -141.8657         estimate D2E/DX2                !
 ! D37   D(3,2,10,13)           10.2121         estimate D2E/DX2                !
 ! D38   D(68,2,10,11)          97.575          estimate D2E/DX2                !
 ! D39   D(68,2,10,13)        -110.3472         estimate D2E/DX2                !
 ! D40   D(2,3,5,4)             17.9432         estimate D2E/DX2                !
 ! D41   D(2,3,5,15)          -147.3841         estimate D2E/DX2                !
 ! D42   D(12,3,5,4)           129.4015         estimate D2E/DX2                !
 ! D43   D(12,3,5,15)          -35.9258         estimate D2E/DX2                !
 ! D44   D(69,3,5,4)          -108.1966         estimate D2E/DX2                !
 ! D45   D(69,3,5,15)           86.476          estimate D2E/DX2                !
 ! D46   D(2,3,12,13)           -5.773          estimate D2E/DX2                !
 ! D47   D(2,3,12,14)          146.1746         estimate D2E/DX2                !
 ! D48   D(5,3,12,13)         -116.5961         estimate D2E/DX2                !
 ! D49   D(5,3,12,14)           35.3515         estimate D2E/DX2                !
 ! D50   D(69,3,12,13)         122.2783         estimate D2E/DX2                !
 ! D51   D(69,3,12,14)         -85.7741         estimate D2E/DX2                !
 ! D52   D(1,4,5,3)            -17.9447         estimate D2E/DX2                !
 ! D53   D(1,4,5,15)           147.4503         estimate D2E/DX2                !
 ! D54   D(6,4,5,3)           -129.6047         estimate D2E/DX2                !
 ! D55   D(6,4,5,15)            35.7902         estimate D2E/DX2                !
 ! D56   D(71,4,5,3)           107.3641         estimate D2E/DX2                !
 ! D57   D(71,4,5,15)          -87.241          estimate D2E/DX2                !
 ! D58   D(1,4,6,8)              5.7732         estimate D2E/DX2                !
 ! D59   D(1,4,6,17)          -146.0227         estimate D2E/DX2                !
 ! D60   D(5,4,6,8)            116.8443         estimate D2E/DX2                !
 ! D61   D(5,4,6,17)           -34.9516         estimate D2E/DX2                !
 ! D62   D(71,4,6,8)          -121.8636         estimate D2E/DX2                !
 ! D63   D(71,4,6,17)           86.3405         estimate D2E/DX2                !
 ! D64   D(3,5,15,16)            2.6378         estimate D2E/DX2                !
 ! D65   D(3,5,15,18)          160.1114         estimate D2E/DX2                !
 ! D66   D(4,5,15,16)         -161.2866         estimate D2E/DX2                !
 ! D67   D(4,5,15,18)           -3.813          estimate D2E/DX2                !
 ! D68   D(4,6,8,7)            -13.1431         estimate D2E/DX2                !
 ! D69   D(4,6,8,20)          -167.6971         estimate D2E/DX2                !
 ! D70   D(17,6,8,7)           139.8266         estimate D2E/DX2                !
 ! D71   D(17,6,8,20)          -14.7274         estimate D2E/DX2                !
 ! D72   D(4,6,17,18)            1.8407         estimate D2E/DX2                !
 ! D73   D(4,6,17,19)          166.1067         estimate D2E/DX2                !
 ! D74   D(8,6,17,18)         -146.8334         estimate D2E/DX2                !
 ! D75   D(8,6,17,19)           17.4325         estimate D2E/DX2                !
 ! D76   D(1,7,8,6)             15.6846         estimate D2E/DX2                !
 ! D77   D(1,7,8,20)           169.12           estimate D2E/DX2                !
 ! D78   D(9,7,8,6)           -139.5556         estimate D2E/DX2                !
 ! D79   D(9,7,8,20)            13.8798         estimate D2E/DX2                !
 ! D80   D(1,7,9,11)           -28.1667         estimate D2E/DX2                !
 ! D81   D(1,7,9,22)          -173.8144         estimate D2E/DX2                !
 ! D82   D(8,7,9,11)           123.3856         estimate D2E/DX2                !
 ! D83   D(8,7,9,22)           -22.2621         estimate D2E/DX2                !
 ! D84   D(6,8,20,21)            2.457          estimate D2E/DX2                !
 ! D85   D(6,8,20,23)          156.4625         estimate D2E/DX2                !
 ! D86   D(7,8,20,21)         -148.0431         estimate D2E/DX2                !
 ! D87   D(7,8,20,23)            5.9624         estimate D2E/DX2                !
 ! D88   D(7,9,11,10)            0.4517         estimate D2E/DX2                !
 ! D89   D(7,9,11,25)         -144.7739         estimate D2E/DX2                !
 ! D90   D(22,9,11,10)         145.5447         estimate D2E/DX2                !
 ! D91   D(22,9,11,25)           0.3191         estimate D2E/DX2                !
 ! D92   D(7,9,22,23)           12.2399         estimate D2E/DX2                !
 ! D93   D(7,9,22,24)          155.2925         estimate D2E/DX2                !
 ! D94   D(11,9,22,23)        -132.9948         estimate D2E/DX2                !
 ! D95   D(11,9,22,24)          10.0578         estimate D2E/DX2                !
 ! D96   D(2,10,11,9)           27.704          estimate D2E/DX2                !
 ! D97   D(2,10,11,25)         173.5397         estimate D2E/DX2                !
 ! D98   D(13,10,11,9)        -122.5561         estimate D2E/DX2                !
 ! D99   D(13,10,11,25)         23.2797         estimate D2E/DX2                !
 ! D100  D(2,10,13,12)         -14.5481         estimate D2E/DX2                !
 ! D101  D(2,10,13,27)        -167.9798         estimate D2E/DX2                !
 ! D102  D(11,10,13,12)        139.9431         estimate D2E/DX2                !
 ! D103  D(11,10,13,27)        -13.4886         estimate D2E/DX2                !
 ! D104  D(9,11,25,26)         -10.7577         estimate D2E/DX2                !
 ! D105  D(9,11,25,28)         132.2868         estimate D2E/DX2                !
 ! D106  D(10,11,25,26)       -156.3733         estimate D2E/DX2                !
 ! D107  D(10,11,25,28)        -13.3288         estimate D2E/DX2                !
 ! D108  D(3,12,13,10)          12.484          estimate D2E/DX2                !
 ! D109  D(3,12,13,27)         167.3154         estimate D2E/DX2                !
 ! D110  D(14,12,13,10)       -140.7423         estimate D2E/DX2                !
 ! D111  D(14,12,13,27)         14.0891         estimate D2E/DX2                !
 ! D112  D(3,12,14,16)          -1.4771         estimate D2E/DX2                !
 ! D113  D(3,12,14,29)        -166.4962         estimate D2E/DX2                !
 ! D114  D(13,12,14,16)        147.5533         estimate D2E/DX2                !
 ! D115  D(13,12,14,29)        -17.4659         estimate D2E/DX2                !
 ! D116  D(10,13,27,28)         -7.9392         estimate D2E/DX2                !
 ! D117  D(10,13,27,30)        149.3077         estimate D2E/DX2                !
 ! D118  D(12,13,27,28)       -158.7294         estimate D2E/DX2                !
 ! D119  D(12,13,27,30)         -1.4826         estimate D2E/DX2                !
 ! D120  D(12,14,16,15)        -32.7568         estimate D2E/DX2                !
 ! D121  D(12,14,16,32)       -142.2487         estimate D2E/DX2                !
 ! D122  D(12,14,16,70)         93.4173         estimate D2E/DX2                !
 ! D123  D(29,14,16,15)        131.8296         estimate D2E/DX2                !
 ! D124  D(29,14,16,32)         22.3376         estimate D2E/DX2                !
 ! D125  D(29,14,16,70)       -101.9964         estimate D2E/DX2                !
 ! D126  D(12,14,29,30)          8.5022         estimate D2E/DX2                !
 ! D127  D(12,14,29,31)        174.8587         estimate D2E/DX2                !
 ! D128  D(16,14,29,30)       -155.8561         estimate D2E/DX2                !
 ! D129  D(16,14,29,31)         10.5005         estimate D2E/DX2                !
 ! D130  D(5,15,16,14)          33.3527         estimate D2E/DX2                !
 ! D131  D(5,15,16,32)         148.8418         estimate D2E/DX2                !
 ! D132  D(5,15,16,70)         -89.9655         estimate D2E/DX2                !
 ! D133  D(18,15,16,14)       -125.7208         estimate D2E/DX2                !
 ! D134  D(18,15,16,32)        -10.2317         estimate D2E/DX2                !
 ! D135  D(18,15,16,70)        110.961          estimate D2E/DX2                !
 ! D136  D(5,15,18,17)         -31.4471         estimate D2E/DX2                !
 ! D137  D(5,15,18,33)        -149.2539         estimate D2E/DX2                !
 ! D138  D(5,15,18,72)          90.219          estimate D2E/DX2                !
 ! D139  D(16,15,18,17)        127.7401         estimate D2E/DX2                !
 ! D140  D(16,15,18,33)          9.9333         estimate D2E/DX2                !
 ! D141  D(16,15,18,72)       -110.5938         estimate D2E/DX2                !
 ! D142  D(14,16,32,33)        120.3465         estimate D2E/DX2                !
 ! D143  D(14,16,32,34)        -31.9762         estimate D2E/DX2                !
 ! D144  D(15,16,32,33)          6.2696         estimate D2E/DX2                !
 ! D145  D(15,16,32,34)       -146.0531         estimate D2E/DX2                !
 ! D146  D(70,16,32,33)       -116.6605         estimate D2E/DX2                !
 ! D147  D(70,16,32,34)         91.0168         estimate D2E/DX2                !
 ! D148  D(6,17,18,15)          31.5104         estimate D2E/DX2                !
 ! D149  D(6,17,18,33)         141.9096         estimate D2E/DX2                !
 ! D150  D(6,17,18,72)         -92.5202         estimate D2E/DX2                !
 ! D151  D(19,17,18,15)       -132.4503         estimate D2E/DX2                !
 ! D152  D(19,17,18,33)        -22.0511         estimate D2E/DX2                !
 ! D153  D(19,17,18,72)        103.5191         estimate D2E/DX2                !
 ! D154  D(6,17,19,21)          -8.3895         estimate D2E/DX2                !
 ! D155  D(6,17,19,35)        -163.2501         estimate D2E/DX2                !
 ! D156  D(18,17,19,21)        155.2809         estimate D2E/DX2                !
 ! D157  D(18,17,19,35)          0.4203         estimate D2E/DX2                !
 ! D158  D(15,18,33,32)         -5.6071         estimate D2E/DX2                !
 ! D159  D(15,18,33,36)        146.4629         estimate D2E/DX2                !
 ! D160  D(17,18,33,32)       -121.5744         estimate D2E/DX2                !
 ! D161  D(17,18,33,36)         30.4956         estimate D2E/DX2                !
 ! D162  D(72,18,33,32)        115.0045         estimate D2E/DX2                !
 ! D163  D(72,18,33,36)        -92.9255         estimate D2E/DX2                !
 ! D164  D(17,19,21,20)         -3.4579         estimate D2E/DX2                !
 ! D165  D(17,19,21,38)       -157.6937         estimate D2E/DX2                !
 ! D166  D(35,19,21,20)        151.3808         estimate D2E/DX2                !
 ! D167  D(35,19,21,38)         -2.855          estimate D2E/DX2                !
 ! D168  D(17,19,35,36)         14.8435         estimate D2E/DX2                !
 ! D169  D(17,19,35,37)        153.2728         estimate D2E/DX2                !
 ! D170  D(21,19,35,36)       -140.2059         estimate D2E/DX2                !
 ! D171  D(21,19,35,37)         -1.7766         estimate D2E/DX2                !
 ! D172  D(8,20,21,19)           6.246          estimate D2E/DX2                !
 ! D173  D(8,20,21,38)         161.064          estimate D2E/DX2                !
 ! D174  D(23,20,21,19)       -146.0766         estimate D2E/DX2                !
 ! D175  D(23,20,21,38)          8.7414         estimate D2E/DX2                !
 ! D176  D(8,20,23,22)         -16.3632         estimate D2E/DX2                !
 ! D177  D(8,20,23,40)        -157.2991         estimate D2E/DX2                !
 ! D178  D(21,20,23,22)        137.0152         estimate D2E/DX2                !
 ! D179  D(21,20,23,40)         -3.9207         estimate D2E/DX2                !
 ! D180  D(19,21,38,39)          5.0781         estimate D2E/DX2                !
 ! D181  D(19,21,38,42)        146.7873         estimate D2E/DX2                !
 ! D182  D(20,21,38,39)       -149.8118         estimate D2E/DX2                !
 ! D183  D(20,21,38,42)         -8.1026         estimate D2E/DX2                !
 ! D184  D(9,22,23,20)           7.7387         estimate D2E/DX2                !
 ! D185  D(9,22,23,40)         152.8907         estimate D2E/DX2                !
 ! D186  D(24,22,23,20)       -140.2314         estimate D2E/DX2                !
 ! D187  D(24,22,23,40)          4.9206         estimate D2E/DX2                !
 ! D188  D(9,22,24,26)         -10.2189         estimate D2E/DX2                !
 ! D189  D(9,22,24,41)        -152.9936         estimate D2E/DX2                !
 ! D190  D(23,22,24,26)        137.4972         estimate D2E/DX2                !
 ! D191  D(23,22,24,41)         -5.2775         estimate D2E/DX2                !
 ! D192  D(20,23,40,41)        142.063          estimate D2E/DX2                !
 ! D193  D(20,23,40,42)         -1.9028         estimate D2E/DX2                !
 ! D194  D(22,23,40,41)         -2.7636         estimate D2E/DX2                !
 ! D195  D(22,23,40,42)       -146.7294         estimate D2E/DX2                !
 ! D196  D(22,24,26,25)         -0.3534         estimate D2E/DX2                !
 ! D197  D(22,24,26,44)       -138.4312         estimate D2E/DX2                !
 ! D198  D(41,24,26,25)        138.4873         estimate D2E/DX2                !
 ! D199  D(41,24,26,44)          0.4095         estimate D2E/DX2                !
 ! D200  D(22,24,41,40)          3.5871         estimate D2E/DX2                !
 ! D201  D(22,24,41,43)        143.3765         estimate D2E/DX2                !
 ! D202  D(26,24,41,40)       -138.9632         estimate D2E/DX2                !
 ! D203  D(26,24,41,43)          0.8262         estimate D2E/DX2                !
 ! D204  D(11,25,26,24)         10.8832         estimate D2E/DX2                !
 ! D205  D(11,25,26,44)        153.0083         estimate D2E/DX2                !
 ! D206  D(28,25,26,24)       -136.7717         estimate D2E/DX2                !
 ! D207  D(28,25,26,44)          5.3534         estimate D2E/DX2                !
 ! D208  D(11,25,28,27)         -8.3737         estimate D2E/DX2                !
 ! D209  D(11,25,28,45)       -153.3167         estimate D2E/DX2                !
 ! D210  D(26,25,28,27)        139.4988         estimate D2E/DX2                !
 ! D211  D(26,25,28,45)         -5.4441         estimate D2E/DX2                !
 ! D212  D(24,26,44,45)        138.6395         estimate D2E/DX2                !
 ! D213  D(24,26,44,46)         -1.4336         estimate D2E/DX2                !
 ! D214  D(25,26,44,45)         -3.2189         estimate D2E/DX2                !
 ! D215  D(25,26,44,46)       -143.292          estimate D2E/DX2                !
 ! D216  D(13,27,28,25)         18.3147         estimate D2E/DX2                !
 ! D217  D(13,27,28,45)        159.1618         estimate D2E/DX2                !
 ! D218  D(30,27,28,25)       -138.4936         estimate D2E/DX2                !
 ! D219  D(30,27,28,45)          2.3535         estimate D2E/DX2                !
 ! D220  D(13,27,30,29)         -7.1336         estimate D2E/DX2                !
 ! D221  D(13,27,30,47)       -163.8063         estimate D2E/DX2                !
 ! D222  D(28,27,30,29)        148.4047         estimate D2E/DX2                !
 ! D223  D(28,27,30,47)         -8.2681         estimate D2E/DX2                !
 ! D224  D(25,28,45,44)          3.501          estimate D2E/DX2                !
 ! D225  D(25,28,45,48)        147.3859         estimate D2E/DX2                !
 ! D226  D(27,28,45,44)       -141.2375         estimate D2E/DX2                !
 ! D227  D(27,28,45,48)          2.6475         estimate D2E/DX2                !
 ! D228  D(14,29,30,27)          3.6583         estimate D2E/DX2                !
 ! D229  D(14,29,30,47)        159.1192         estimate D2E/DX2                !
 ! D230  D(31,29,30,27)       -162.8018         estimate D2E/DX2                !
 ! D231  D(31,29,30,47)         -7.3409         estimate D2E/DX2                !
 ! D232  D(14,29,31,34)        -33.698          estimate D2E/DX2                !
 ! D233  D(14,29,31,49)       -145.0786         estimate D2E/DX2                !
 ! D234  D(14,29,31,73)         89.0566         estimate D2E/DX2                !
 ! D235  D(30,29,31,34)        132.8792         estimate D2E/DX2                !
 ! D236  D(30,29,31,49)         21.4986         estimate D2E/DX2                !
 ! D237  D(30,29,31,73)       -104.3661         estimate D2E/DX2                !
 ! D238  D(27,30,47,48)          9.4999         estimate D2E/DX2                !
 ! D239  D(27,30,47,50)        148.9489         estimate D2E/DX2                !
 ! D240  D(29,30,47,48)       -146.3552         estimate D2E/DX2                !
 ! D241  D(29,30,47,50)         -6.9061         estimate D2E/DX2                !
 ! D242  D(29,31,34,32)         25.4062         estimate D2E/DX2                !
 ! D243  D(29,31,34,51)       -125.4896         estimate D2E/DX2                !
 ! D244  D(49,31,34,32)        145.082          estimate D2E/DX2                !
 ! D245  D(49,31,34,51)         -5.8139         estimate D2E/DX2                !
 ! D246  D(73,31,34,32)        -94.2557         estimate D2E/DX2                !
 ! D247  D(73,31,34,51)        114.8484         estimate D2E/DX2                !
 ! D248  D(29,31,49,50)        -23.9779         estimate D2E/DX2                !
 ! D249  D(29,31,49,54)        124.0409         estimate D2E/DX2                !
 ! D250  D(34,31,49,50)       -140.5951         estimate D2E/DX2                !
 ! D251  D(34,31,49,54)          7.4237         estimate D2E/DX2                !
 ! D252  D(73,31,49,50)         98.9618         estimate D2E/DX2                !
 ! D253  D(73,31,49,54)       -113.0194         estimate D2E/DX2                !
 ! D254  D(16,32,33,18)         -0.4393         estimate D2E/DX2                !
 ! D255  D(16,32,33,36)       -152.3304         estimate D2E/DX2                !
 ! D256  D(34,32,33,18)        152.4113         estimate D2E/DX2                !
 ! D257  D(34,32,33,36)          0.5203         estimate D2E/DX2                !
 ! D258  D(16,32,34,31)          7.9442         estimate D2E/DX2                !
 ! D259  D(16,32,34,51)        156.5268         estimate D2E/DX2                !
 ! D260  D(33,32,34,31)       -141.9049         estimate D2E/DX2                !
 ! D261  D(33,32,34,51)          6.6777         estimate D2E/DX2                !
 ! D262  D(18,33,36,35)        -17.7057         estimate D2E/DX2                !
 ! D263  D(18,33,36,52)       -158.1693         estimate D2E/DX2                !
 ! D264  D(32,33,36,35)        132.1305         estimate D2E/DX2                !
 ! D265  D(32,33,36,52)         -8.3332         estimate D2E/DX2                !
 ! D266  D(31,34,51,52)        146.1035         estimate D2E/DX2                !
 ! D267  D(31,34,51,54)          2.3606         estimate D2E/DX2                !
 ! D268  D(32,34,51,52)         -5.9282         estimate D2E/DX2                !
 ! D269  D(32,34,51,54)       -149.671          estimate D2E/DX2                !
 ! D270  D(19,35,36,33)         -6.7148         estimate D2E/DX2                !
 ! D271  D(19,35,36,52)        137.2849         estimate D2E/DX2                !
 ! D272  D(37,35,36,33)       -150.7377         estimate D2E/DX2                !
 ! D273  D(37,35,36,52)         -6.7381         estimate D2E/DX2                !
 ! D274  D(19,35,37,39)          4.3654         estimate D2E/DX2                !
 ! D275  D(19,35,37,53)       -138.2449         estimate D2E/DX2                !
 ! D276  D(36,35,37,39)        147.3585         estimate D2E/DX2                !
 ! D277  D(36,35,37,53)          4.7483         estimate D2E/DX2                !
 ! D278  D(33,36,52,51)          8.9546         estimate D2E/DX2                !
 ! D279  D(33,36,52,53)        151.1606         estimate D2E/DX2                !
 ! D280  D(35,36,52,51)       -136.1287         estimate D2E/DX2                !
 ! D281  D(35,36,52,53)          6.0773         estimate D2E/DX2                !
 ! D282  D(35,37,39,38)         -2.1421         estimate D2E/DX2                !
 ! D283  D(35,37,39,57)       -140.8503         estimate D2E/DX2                !
 ! D284  D(53,37,39,38)        136.2864         estimate D2E/DX2                !
 ! D285  D(53,37,39,57)         -2.4218         estimate D2E/DX2                !
 ! D286  D(35,37,53,52)         -1.1022         estimate D2E/DX2                !
 ! D287  D(35,37,53,55)        140.7769         estimate D2E/DX2                !
 ! D288  D(39,37,53,52)       -143.8596         estimate D2E/DX2                !
 ! D289  D(39,37,53,55)         -1.9804         estimate D2E/DX2                !
 ! D290  D(21,38,39,37)         -2.5533         estimate D2E/DX2                !
 ! D291  D(21,38,39,57)        140.6699         estimate D2E/DX2                !
 ! D292  D(42,38,39,37)       -148.9451         estimate D2E/DX2                !
 ! D293  D(42,38,39,57)         -5.7219         estimate D2E/DX2                !
 ! D294  D(21,38,42,40)          2.6239         estimate D2E/DX2                !
 ! D295  D(21,38,42,58)       -140.8128         estimate D2E/DX2                !
 ! D296  D(39,38,42,40)        149.0515         estimate D2E/DX2                !
 ! D297  D(39,38,42,58)          5.6147         estimate D2E/DX2                !
 ! D298  D(37,39,57,58)        146.1764         estimate D2E/DX2                !
 ! D299  D(37,39,57,60)          4.621          estimate D2E/DX2                !
 ! D300  D(38,39,57,58)          3.704          estimate D2E/DX2                !
 ! D301  D(38,39,57,60)       -137.8514         estimate D2E/DX2                !
 ! D302  D(23,40,41,24)         -0.5104         estimate D2E/DX2                !
 ! D303  D(23,40,41,43)       -141.032          estimate D2E/DX2                !
 ! D304  D(42,40,41,24)        142.5792         estimate D2E/DX2                !
 ! D305  D(42,40,41,43)          2.0575         estimate D2E/DX2                !
 ! D306  D(23,40,42,38)          2.5713         estimate D2E/DX2                !
 ! D307  D(23,40,42,58)        141.9783         estimate D2E/DX2                !
 ! D308  D(41,40,42,38)       -136.7986         estimate D2E/DX2                !
 ! D309  D(41,40,42,58)          2.6084         estimate D2E/DX2                !
 ! D310  D(24,41,43,46)         -1.0522         estimate D2E/DX2                !
 ! D311  D(24,41,43,59)       -138.7615         estimate D2E/DX2                !
 ! D312  D(40,41,43,46)        133.7976         estimate D2E/DX2                !
 ! D313  D(40,41,43,59)         -3.9117         estimate D2E/DX2                !
 ! D314  D(38,42,58,57)         -3.3419         estimate D2E/DX2                !
 ! D315  D(38,42,58,59)        138.3151         estimate D2E/DX2                !
 ! D316  D(40,42,58,57)       -147.0518         estimate D2E/DX2                !
 ! D317  D(40,42,58,59)         -5.3948         estimate D2E/DX2                !
 ! D318  D(41,43,46,44)          0.0286         estimate D2E/DX2                !
 ! D319  D(41,43,46,61)       -142.0299         estimate D2E/DX2                !
 ! D320  D(59,43,46,44)        142.3052         estimate D2E/DX2                !
 ! D321  D(59,43,46,61)          0.2467         estimate D2E/DX2                !
 ! D322  D(41,43,59,58)          1.1118         estimate D2E/DX2                !
 ! D323  D(41,43,59,65)        143.6199         estimate D2E/DX2                !
 ! D324  D(46,43,59,58)       -140.9573         estimate D2E/DX2                !
 ! D325  D(46,43,59,65)          1.5508         estimate D2E/DX2                !
 ! D326  D(26,44,45,28)         -0.1646         estimate D2E/DX2                !
 ! D327  D(26,44,45,48)       -142.7786         estimate D2E/DX2                !
 ! D328  D(46,44,45,28)        140.4558         estimate D2E/DX2                !
 ! D329  D(46,44,45,48)         -2.1582         estimate D2E/DX2                !
 ! D330  D(26,44,46,43)          1.2085         estimate D2E/DX2                !
 ! D331  D(26,44,46,61)        138.8583         estimate D2E/DX2                !
 ! D332  D(45,44,46,43)       -133.8633         estimate D2E/DX2                !
 ! D333  D(45,44,46,61)          3.7865         estimate D2E/DX2                !
 ! D334  D(28,45,48,47)         -1.3444         estimate D2E/DX2                !
 ! D335  D(28,45,48,62)       -141.1672         estimate D2E/DX2                !
 ! D336  D(44,45,48,47)        137.6473         estimate D2E/DX2                !
 ! D337  D(44,45,48,62)         -2.1756         estimate D2E/DX2                !
 ! D338  D(43,46,61,62)        140.977          estimate D2E/DX2                !
 ! D339  D(43,46,61,65)         -1.944          estimate D2E/DX2                !
 ! D340  D(44,46,61,62)         -1.083          estimate D2E/DX2                !
 ! D341  D(44,46,61,65)       -144.0041         estimate D2E/DX2                !
 ! D342  D(30,47,48,45)         -4.9591         estimate D2E/DX2                !
 ! D343  D(30,47,48,62)        138.4692         estimate D2E/DX2                !
 ! D344  D(50,47,48,45)       -148.5821         estimate D2E/DX2                !
 ! D345  D(50,47,48,62)         -5.1538         estimate D2E/DX2                !
 ! D346  D(30,47,50,49)          5.197          estimate D2E/DX2                !
 ! D347  D(30,47,50,63)       -138.0827         estimate D2E/DX2                !
 ! D348  D(48,47,50,49)        149.1607         estimate D2E/DX2                !
 ! D349  D(48,47,50,63)          5.881          estimate D2E/DX2                !
 ! D350  D(45,48,62,61)          4.8567         estimate D2E/DX2                !
 ! D351  D(45,48,62,63)        146.9852         estimate D2E/DX2                !
 ! D352  D(47,48,62,61)       -139.716          estimate D2E/DX2                !
 ! D353  D(47,48,62,63)          2.4124         estimate D2E/DX2                !
 ! D354  D(31,49,50,47)         11.1214         estimate D2E/DX2                !
 ! D355  D(31,49,50,63)        149.4109         estimate D2E/DX2                !
 ! D356  D(54,49,50,47)       -134.808          estimate D2E/DX2                !
 ! D357  D(54,49,50,63)          3.4814         estimate D2E/DX2                !
 ! D358  D(31,49,54,51)         -6.5193         estimate D2E/DX2                !
 ! D359  D(31,49,54,56)       -149.2631         estimate D2E/DX2                !
 ! D360  D(50,49,54,51)        142.8201         estimate D2E/DX2                !
 ! D361  D(50,49,54,56)          0.0764         estimate D2E/DX2                !
 ! D362  D(47,50,63,62)         -4.388          estimate D2E/DX2                !
 ! D363  D(47,50,63,64)        138.227          estimate D2E/DX2                !
 ! D364  D(49,50,63,62)       -147.264          estimate D2E/DX2                !
 ! D365  D(49,50,63,64)         -4.6491         estimate D2E/DX2                !
 ! D366  D(34,51,52,36)         -1.8712         estimate D2E/DX2                !
 ! D367  D(34,51,52,53)       -139.2066         estimate D2E/DX2                !
 ! D368  D(54,51,52,36)        137.7269         estimate D2E/DX2                !
 ! D369  D(54,51,52,53)          0.3915         estimate D2E/DX2                !
 ! D370  D(34,51,54,49)          2.5074         estimate D2E/DX2                !
 ! D371  D(34,51,54,56)        146.3286         estimate D2E/DX2                !
 ! D372  D(52,51,54,49)       -141.1348         estimate D2E/DX2                !
 ! D373  D(52,51,54,56)          2.6864         estimate D2E/DX2                !
 ! D374  D(36,52,53,37)         -3.1064         estimate D2E/DX2                !
 ! D375  D(36,52,53,55)       -144.8842         estimate D2E/DX2                !
 ! D376  D(51,52,53,37)        138.7466         estimate D2E/DX2                !
 ! D377  D(51,52,53,55)         -3.0312         estimate D2E/DX2                !
 ! D378  D(37,53,55,56)       -134.998          estimate D2E/DX2                !
 ! D379  D(37,53,55,60)          4.1833         estimate D2E/DX2                !
 ! D380  D(52,53,55,56)          2.5497         estimate D2E/DX2                !
 ! D381  D(52,53,55,60)        141.7309         estimate D2E/DX2                !
 ! D382  D(49,54,56,55)        135.5716         estimate D2E/DX2                !
 ! D383  D(49,54,56,64)         -2.5572         estimate D2E/DX2                !
 ! D384  D(51,54,56,55)         -3.1663         estimate D2E/DX2                !
 ! D385  D(51,54,56,64)       -141.2951         estimate D2E/DX2                !
 ! D386  D(53,55,56,54)          0.556          estimate D2E/DX2                !
 ! D387  D(53,55,56,64)        143.0559         estimate D2E/DX2                !
 ! D388  D(60,55,56,54)       -143.0079         estimate D2E/DX2                !
 ! D389  D(60,55,56,64)         -0.508          estimate D2E/DX2                !
 ! D390  D(53,55,60,57)         -1.9875         estimate D2E/DX2                !
 ! D391  D(53,55,60,66)       -144.0012         estimate D2E/DX2                !
 ! D392  D(56,55,60,57)        141.3871         estimate D2E/DX2                !
 ! D393  D(56,55,60,66)         -0.6266         estimate D2E/DX2                !
 ! D394  D(54,56,64,63)          1.4073         estimate D2E/DX2                !
 ! D395  D(54,56,64,66)        144.3324         estimate D2E/DX2                !
 ! D396  D(55,56,64,63)       -141.4723         estimate D2E/DX2                !
 ! D397  D(55,56,64,66)          1.4527         estimate D2E/DX2                !
 ! D398  D(39,57,58,42)         -0.1928         estimate D2E/DX2                !
 ! D399  D(39,57,58,59)       -141.4148         estimate D2E/DX2                !
 ! D400  D(60,57,58,42)        141.1394         estimate D2E/DX2                !
 ! D401  D(60,57,58,59)         -0.0827         estimate D2E/DX2                !
 ! D402  D(39,57,60,55)         -2.4028         estimate D2E/DX2                !
 ! D403  D(39,57,60,66)        134.9276         estimate D2E/DX2                !
 ! D404  D(58,57,60,55)       -139.3214         estimate D2E/DX2                !
 ! D405  D(58,57,60,66)         -1.9911         estimate D2E/DX2                !
 ! D406  D(42,58,59,43)          3.5541         estimate D2E/DX2                !
 ! D407  D(42,58,59,65)       -134.7214         estimate D2E/DX2                !
 ! D408  D(57,58,59,43)        140.2855         estimate D2E/DX2                !
 ! D409  D(57,58,59,65)          2.01           estimate D2E/DX2                !
 ! D410  D(43,59,65,61)         -2.7553         estimate D2E/DX2                !
 ! D411  D(43,59,65,66)       -144.6756         estimate D2E/DX2                !
 ! D412  D(58,59,65,61)        140.0624         estimate D2E/DX2                !
 ! D413  D(58,59,65,66)         -1.8579         estimate D2E/DX2                !
 ! D414  D(55,60,66,64)          1.5134         estimate D2E/DX2                !
 ! D415  D(55,60,66,65)        144.2046         estimate D2E/DX2                !
 ! D416  D(57,60,66,64)       -140.55           estimate D2E/DX2                !
 ! D417  D(57,60,66,65)          2.1412         estimate D2E/DX2                !
 ! D418  D(46,61,62,48)         -3.2792         estimate D2E/DX2                !
 ! D419  D(46,61,62,63)       -140.3528         estimate D2E/DX2                !
 ! D420  D(65,61,62,48)        135.3426         estimate D2E/DX2                !
 ! D421  D(65,61,62,63)         -1.731          estimate D2E/DX2                !
 ! D422  D(46,61,65,59)          2.9014         estimate D2E/DX2                !
 ! D423  D(46,61,65,66)        144.8233         estimate D2E/DX2                !
 ! D424  D(62,61,65,59)       -140.4476         estimate D2E/DX2                !
 ! D425  D(62,61,65,66)          1.4743         estimate D2E/DX2                !
 ! D426  D(48,62,63,50)          1.2617         estimate D2E/DX2                !
 ! D427  D(48,62,63,64)       -141.7858         estimate D2E/DX2                !
 ! D428  D(61,62,63,50)        142.8981         estimate D2E/DX2                !
 ! D429  D(61,62,63,64)         -0.1495         estimate D2E/DX2                !
 ! D430  D(50,63,64,56)          2.0869         estimate D2E/DX2                !
 ! D431  D(50,63,64,66)       -136.3193         estimate D2E/DX2                !
 ! D432  D(62,63,64,56)        140.689          estimate D2E/DX2                !
 ! D433  D(62,63,64,66)          2.2828         estimate D2E/DX2                !
 ! D434  D(56,64,66,60)         -1.8479         estimate D2E/DX2                !
 ! D435  D(56,64,66,65)       -144.7448         estimate D2E/DX2                !
 ! D436  D(63,64,66,60)        140.3617         estimate D2E/DX2                !
 ! D437  D(63,64,66,65)         -2.5351         estimate D2E/DX2                !
[...]
    11 C(13)  Bbb     0.0370     4.970     1.773     1.658  0.3196 -0.4589  0.8290
              Bcc     0.0455     6.106     2.179     2.037  0.8201  0.5722  0.0006
 
              Baa    -0.1564   -20.985    -7.488    -7.000 -0.0222  0.8688  0.4946
    12 C(13)  Bbb    -0.1508   -20.235    -7.220    -6.750  0.8831 -0.2149  0.4170
              Bcc     0.3072    41.220    14.708    13.749 -0.4686 -0.4460  0.7625
 
              Baa    -0.0855   -11.476    -4.095    -3.828 -0.4878 -0.0110  0.8729
    13 C(13)  Bbb     0.0386     5.184     1.850     1.729  0.8695 -0.0951  0.4847
              Bcc     0.0469     6.292     2.245     2.099  0.0777  0.9954  0.0560
 
              Baa    -0.1184   -15.883    -5.667    -5.298 -0.4387 -0.6344  0.6365
    14 C(13)  Bbb     0.0509     6.836     2.439     2.280  0.2952  0.5672  0.7688
              Bcc     0.0674     9.047     3.228     3.018  0.8488 -0.5251  0.0616
 
              Baa    -0.0087    -1.164    -0.415    -0.388 -0.3175  0.8042 -0.5024
    15 C(13)  Bbb    -0.0049    -0.661    -0.236    -0.221 -0.5537  0.2729  0.7868
              Bcc     0.0136     1.825     0.651     0.609  0.7698  0.5280  0.3586
 
              Baa    -0.0019    -0.251    -0.090    -0.084 -0.1109 -0.5397  0.8345
    16 C(13)  Bbb    -0.0007    -0.090    -0.032    -0.030  0.9309 -0.3504 -0.1029
              Bcc     0.0025     0.341     0.122     0.114  0.3480  0.7654  0.5413
 
              Baa    -0.0052    -0.703    -0.251    -0.235  0.7851 -0.5113 -0.3496
    17 C(13)  Bbb    -0.0047    -0.628    -0.224    -0.209  0.4363  0.8571 -0.2738
              Bcc     0.0099     1.331     0.475     0.444  0.4396  0.0624  0.8960
 
              Baa    -0.0010    -0.136    -0.049    -0.045  0.3470  0.9137 -0.2114
    18 C(13)  Bbb    -0.0005    -0.063    -0.022    -0.021  0.9074 -0.3841 -0.1708
              Bcc     0.0015     0.199     0.071     0.066  0.2373  0.1326  0.9624
 
              Baa    -0.0110    -1.472    -0.525    -0.491  0.3125 -0.0672  0.9475
    19 C(13)  Bbb     0.0052     0.693     0.247     0.231  0.8900  0.3694 -0.2673
              Bcc     0.0058     0.779     0.278     0.260 -0.3321  0.9268  0.1752
 
              Baa    -0.0142    -1.907    -0.681    -0.636  0.2742 -0.5644  0.7786
    20 C(13)  Bbb     0.0067     0.904     0.322     0.301  0.9608  0.1267 -0.2465
              Bcc     0.0075     1.004     0.358     0.335  0.0405  0.8157  0.5770
 
              Baa    -0.0140    -1.884    -0.672    -0.628  0.9606  0.1512 -0.2333
    21 C(13)  Bbb    -0.0135    -1.813    -0.647    -0.605 -0.0724  0.9463  0.3150
              Bcc     0.0275     3.697     1.319     1.233  0.2684 -0.2857  0.9200
 
              Baa    -0.0264    -3.539    -1.263    -1.180 -0.2207  0.9698 -0.1039
    22 C(13)  Bbb     0.0126     1.691     0.603     0.564  0.9670  0.2037 -0.1527
              Bcc     0.0138     1.848     0.659     0.616  0.1269  0.1342  0.9828
 
              Baa    -0.0124    -1.659    -0.592    -0.553  0.4267  0.6303  0.6486
    23 C(13)  Bbb    -0.0123    -1.648    -0.588    -0.550  0.8670 -0.0808 -0.4918
              Bcc     0.0246     3.307     1.180     1.103 -0.2576  0.7722 -0.5809
 
              Baa    -0.0303    -4.067    -1.451    -1.356  0.6768 -0.0996  0.7294
    24 C(13)  Bbb    -0.0267    -3.581    -1.278    -1.194  0.7343  0.1608 -0.6595
              Bcc     0.0570     7.647     2.729     2.551 -0.0515  0.9820  0.1820
 
              Baa    -0.0979   -13.140    -4.689    -4.383  0.5093 -0.5468  0.6645
    25 C(13)  Bbb    -0.0925   -12.410    -4.428    -4.139  0.7918  0.6001 -0.1131
              Bcc     0.1904    25.549     9.117     8.522 -0.3370  0.5838  0.7387
 
              Baa    -0.0204    -2.740    -0.978    -0.914 -0.1847  0.7314  0.6565
    26 C(13)  Bbb     0.0047     0.636     0.227     0.212  0.7039 -0.3677  0.6077
              Bcc     0.0157     2.103     0.751     0.702  0.6858  0.5743 -0.4469
 
              Baa    -0.0247    -3.314    -1.183    -1.105  0.3132  0.9279  0.2021
    27 C(13)  Bbb    -0.0217    -2.915    -1.040    -0.972  0.9231 -0.3474  0.1648
              Bcc     0.0464     6.229     2.222     2.078 -0.2231 -0.1350  0.9654
 
              Baa    -0.0907   -12.168    -4.342    -4.059 -0.2208  0.2438  0.9444
    28 C(13)  Bbb     0.0423     5.683     2.028     1.896  0.6499  0.7587 -0.0439
              Bcc     0.0483     6.485     2.314     2.163  0.7272 -0.6041  0.3260
 
              Baa    -0.1525   -20.467    -7.303    -6.827  0.6356  0.4659  0.6156
    29 C(13)  Bbb    -0.1445   -19.391    -6.919    -6.468  0.7178 -0.6501 -0.2492
              Bcc     0.2970    39.857    14.222    13.295 -0.2841 -0.6003  0.7476
 
              Baa    -0.1030   -13.818    -4.931    -4.609 -0.1898 -0.4400  0.8777
    30 C(13)  Bbb     0.0455     6.111     2.181     2.038 -0.4662  0.8271  0.3139
              Bcc     0.0574     7.707     2.750     2.571  0.8641  0.3496  0.3622
 
              Baa    -0.0074    -0.995    -0.355    -0.332  0.1581 -0.5222  0.8380
    31 C(13)  Bbb     0.0030     0.407     0.145     0.136  0.9779  0.2001 -0.0599
              Bcc     0.0044     0.589     0.210     0.196 -0.1364  0.8290  0.5423
 
              Baa    -0.0025    -0.334    -0.119    -0.111  0.7426 -0.0863 -0.6641
    32 C(13)  Bbb    -0.0009    -0.120    -0.043    -0.040 -0.4073  0.7289 -0.5502
              Bcc     0.0034     0.454     0.162     0.151  0.5316  0.6791  0.5062
 
              Baa    -0.0009    -0.125    -0.045    -0.042 -0.3091  0.9482  0.0739
    33 C(13)  Bbb     0.0001     0.015     0.005     0.005  0.6939  0.2779 -0.6643
              Bcc     0.0008     0.110     0.039     0.037  0.6504  0.1540  0.7438
 
              Baa    -0.0076    -1.014    -0.362    -0.338 -0.5386  0.6507 -0.5352
    34 C(13)  Bbb    -0.0045    -0.602    -0.215    -0.201  0.8039  0.2067 -0.5577
              Bcc     0.0120     1.616     0.577     0.539  0.2523  0.7307  0.6344
 
              Baa    -0.0132    -1.769    -0.631    -0.590  0.9803 -0.0889 -0.1761
    35 C(13)  Bbb    -0.0129    -1.734    -0.619    -0.578  0.0596  0.9844 -0.1655
              Bcc     0.0261     3.502     1.250     1.168  0.1881  0.1518  0.9704
 
              Baa    -0.0012    -0.167    -0.060    -0.056  0.9604 -0.2787  0.0026
    36 C(13)  Bbb     0.0000     0.003     0.001     0.001  0.2381  0.8156 -0.5273
              Bcc     0.0012     0.164     0.059     0.055  0.1448  0.5071  0.8497
 
              Baa    -0.0136    -1.827    -0.652    -0.609 -0.1967  0.2980  0.9341
    37 C(13)  Bbb     0.0064     0.860     0.307     0.287  0.9045  0.4229  0.0556
              Bcc     0.0072     0.967     0.345     0.323 -0.3785  0.8558 -0.3527
 
              Baa    -0.0166    -2.227    -0.795    -0.743 -0.0079 -0.3835  0.9235
    38 C(13)  Bbb     0.0079     1.063     0.379     0.355  0.0584  0.9218  0.3833
              Bcc     0.0087     1.164     0.415     0.388  0.9983 -0.0570 -0.0151
 
              Baa    -0.0081    -1.089    -0.389    -0.363  0.9137 -0.2492  0.3212
    39 C(13)  Bbb    -0.0079    -1.065    -0.380    -0.355  0.1972  0.9626  0.1857
              Bcc     0.0161     2.154     0.769     0.718 -0.3554 -0.1063  0.9286
 
              Baa    -0.0030    -0.398    -0.142    -0.133 -0.3755  0.6781 -0.6318
    40 C(13)  Bbb     0.0010     0.136     0.048     0.045  0.7306 -0.2028 -0.6520
              Bcc     0.0020     0.263     0.094     0.088  0.5703  0.7064  0.4193
 
              Baa    -0.0130    -1.747    -0.623    -0.583  0.4145  0.0256  0.9097
    41 C(13)  Bbb    -0.0118    -1.588    -0.567    -0.530  0.8277 -0.4261 -0.3652
              Bcc     0.0248     3.335     1.190     1.112  0.3783  0.9043 -0.1978
 
              Baa    -0.0056    -0.758    -0.270    -0.253  0.3814  0.6439  0.6633
    42 C(13)  Bbb    -0.0051    -0.687    -0.245    -0.229  0.8488 -0.5281  0.0246
              Bcc     0.0108     1.445     0.515     0.482 -0.3661 -0.5536  0.7480
 
              Baa    -0.0064    -0.858    -0.306    -0.286 -0.3514  0.5355  0.7679
    43 C(13)  Bbb    -0.0045    -0.604    -0.216    -0.201  0.7182 -0.3720  0.5881
              Bcc     0.0109     1.462     0.522     0.488  0.6006  0.7582 -0.2539
 
              Baa    -0.0167    -2.236    -0.798    -0.746  0.2426  0.3414  0.9081
    44 C(13)  Bbb     0.0035     0.469     0.167     0.156  0.8218 -0.5697 -0.0053
              Bcc     0.0132     1.767     0.631     0.589  0.5155  0.7476 -0.4187
 
              Baa    -0.0828   -11.111    -3.965    -3.706  0.9606 -0.2542 -0.1127
    45 C(13)  Bbb    -0.0776   -10.419    -3.718    -3.476  0.2180  0.9401 -0.2622
              Bcc     0.1604    21.531     7.683     7.182  0.1726  0.2273  0.9584
 
              Baa    -0.0330    -4.429    -1.580    -1.477  0.7412 -0.6395 -0.2041
    46 C(13)  Bbb    -0.0302    -4.052    -1.446    -1.351 -0.1993 -0.5000  0.8428
              Bcc     0.0632     8.480     3.026     2.829  0.6410  0.5840  0.4980
 
              Baa    -0.1661   -22.290    -7.954    -7.435  0.9964 -0.0441 -0.0725
    47 C(13)  Bbb    -0.1609   -21.585    -7.702    -7.200  0.0671  0.9321  0.3558
              Bcc     0.3270    43.875    15.656    14.635  0.0518 -0.3594  0.9317
 
              Baa    -0.0806   -10.816    -3.859    -3.608  0.2949 -0.0977  0.9505
    48 C(13)  Bbb     0.0327     4.392     1.567     1.465  0.9227 -0.2293 -0.3098
              Bcc     0.0479     6.424     2.292     2.143  0.2483  0.9684  0.0225
 
              Baa    -0.0643    -8.624    -3.077    -2.877  0.5339  0.5494  0.6427
    49 C(13)  Bbb    -0.0585    -7.850    -2.801    -2.618  0.8045 -0.0960 -0.5862
              Bcc     0.1228    16.473     5.878     5.495 -0.2603  0.8300 -0.4932
 
              Baa    -0.0554    -7.430    -2.651    -2.478  0.2823 -0.5369  0.7950
    50 C(13)  Bbb     0.0216     2.905     1.037     0.969  0.8405  0.5379  0.0647
              Bcc     0.0337     4.525     1.615     1.509 -0.4624  0.6500  0.6031
 
              Baa    -0.0169    -2.274    -0.811    -0.759  0.9448  0.1059  0.3101
    51 C(13)  Bbb    -0.0146    -1.955    -0.698    -0.652 -0.2815 -0.2218  0.9336
              Bcc     0.0315     4.229     1.509     1.411 -0.1676  0.9693  0.1798
 
              Baa    -0.0080    -1.073    -0.383    -0.358 -0.2026  0.7754  0.5980
    52 C(13)  Bbb     0.0022     0.300     0.107     0.100  0.9186 -0.0611  0.3904
              Bcc     0.0058     0.773     0.276     0.258 -0.3392 -0.6285  0.7000
 
              Baa    -0.0248    -3.324    -1.186    -1.109  0.8990  0.2155  0.3812
    53 C(13)  Bbb    -0.0237    -3.175    -1.133    -1.059  0.0400  0.8265 -0.5616
              Bcc     0.0484     6.499     2.319     2.168 -0.4361  0.5201  0.7344
 
              Baa    -0.0265    -3.554    -1.268    -1.186 -0.4008  0.8979 -0.1819
    54 C(13)  Bbb     0.0097     1.308     0.467     0.436  0.7409  0.4345  0.5122
              Bcc     0.0167     2.246     0.802     0.749 -0.5390 -0.0705  0.8394
 
              Baa    -0.0200    -2.688    -0.959    -0.897  0.6685 -0.5750 -0.4717
    55 C(13)  Bbb     0.0090     1.214     0.433     0.405  0.4710  0.8182 -0.3299
              Bcc     0.0110     1.475     0.526     0.492  0.5756 -0.0017  0.8177
 
              Baa    -0.0232    -3.107    -1.109    -1.036  0.6619  0.7031  0.2600
    56 C(13)  Bbb    -0.0216    -2.904    -1.036    -0.969 -0.1123 -0.2500  0.9617
              Bcc     0.0448     6.011     2.145     2.005  0.7412 -0.6657 -0.0865
 
              Baa    -0.0125    -1.678    -0.599    -0.560 -0.6912 -0.0932  0.7166
    57 C(13)  Bbb     0.0060     0.804     0.287     0.268  0.7092 -0.2780  0.6479
              Bcc     0.0065     0.874     0.312     0.292  0.1388  0.9561  0.2582
 
              Baa    -0.0044    -0.594    -0.212    -0.198  0.3329  0.5299  0.7800
    58 C(13)  Bbb    -0.0042    -0.567    -0.202    -0.189 -0.6867  0.7031 -0.1845
              Bcc     0.0087     1.161     0.414     0.387  0.6462  0.4742 -0.5980
 
              Baa    -0.0018    -0.244    -0.087    -0.081  0.9915  0.0844 -0.0988
    59 C(13)  Bbb     0.0004     0.058     0.021     0.019 -0.1279  0.7699 -0.6253
              Bcc     0.0014     0.186     0.066     0.062  0.0233  0.6326  0.7741
 
              Baa    -0.0048    -0.648    -0.231    -0.216  0.3857 -0.4658  0.7964
    60 C(13)  Bbb    -0.0046    -0.614    -0.219    -0.205  0.3538  0.8719  0.3386
              Bcc     0.0094     1.262     0.450     0.421  0.8521 -0.1512 -0.5010
 
              Baa    -0.0257    -3.454    -1.233    -1.152  0.7806  0.3195  0.5372
    61 C(13)  Bbb     0.0120     1.616     0.577     0.539 -0.5618 -0.0182  0.8271
              Bcc     0.0137     1.838     0.656     0.613 -0.2741  0.9474 -0.1653
 
              Baa    -0.0177    -2.379    -0.849    -0.794 -0.6494  0.0264  0.7600
    62 C(13)  Bbb    -0.0160    -2.145    -0.765    -0.715 -0.0630  0.9941 -0.0883
              Bcc     0.0337     4.524     1.614     1.509  0.7578  0.1052  0.6439
 
              Baa    -0.0117    -1.577    -0.563    -0.526  0.4385  0.8917  0.1126
    63 C(13)  Bbb    -0.0114    -1.527    -0.545    -0.509 -0.3957  0.0791  0.9150
              Bcc     0.0231     3.103     1.107     1.035  0.8069 -0.4457  0.3875
 
              Baa    -0.0177    -2.372    -0.846    -0.791  0.8254 -0.5092  0.2437
    64 C(13)  Bbb     0.0085     1.142     0.408     0.381  0.5592  0.6787 -0.4761
              Bcc     0.0092     1.230     0.439     0.410  0.0770  0.5293  0.8449
 
              Baa    -0.0024    -0.327    -0.117    -0.109  0.1117  0.4271  0.8973
    65 C(13)  Bbb    -0.0016    -0.220    -0.079    -0.073 -0.0963  0.9033 -0.4179
              Bcc     0.0041     0.548     0.195     0.183  0.9891  0.0397 -0.1421
 
              Baa    -0.0094    -1.263    -0.451    -0.421  0.9900 -0.1283 -0.0582
    66 C(13)  Bbb     0.0045     0.607     0.217     0.202  0.0530  0.7219 -0.6899
              Bcc     0.0049     0.656     0.234     0.219  0.1306  0.6800  0.7215
 
              Baa    -0.0212    -1.111    -0.397    -0.371  0.9648 -0.1052 -0.2411
    67 Cl(35) Bbb     0.0004     0.023     0.008     0.008  0.2421  0.7139  0.6570
              Bcc     0.0208     1.088     0.388     0.363  0.1030 -0.6923  0.7143
 
              Baa    -0.0792    -4.145    -1.479    -1.383  0.1102  0.4086  0.9060
    68 Cl(35) Bbb    -0.0695    -3.635    -1.297    -1.213  0.0428  0.9088 -0.4151
              Bcc     0.1486     7.780     2.776     2.595  0.9930 -0.0845 -0.0826
 
              Baa    -0.0590    -3.089    -1.102    -1.030 -0.1045 -0.5744  0.8119
    69 Cl(35) Bbb    -0.0481    -2.515    -0.898    -0.839 -0.0161  0.8172  0.5761
              Bcc     0.1071     5.605     2.000     1.869  0.9944 -0.0471  0.0946
 
              Baa    -0.0588    -3.080    -1.099    -1.027  0.5851  0.7639  0.2722
    70 Cl(35) Bbb     0.0235     1.232     0.440     0.411  0.7742 -0.6261  0.0928
              Bcc     0.0353     1.848     0.660     0.617 -0.2413 -0.1565  0.9578
 
              Baa    -0.0036    -0.188    -0.067    -0.063  0.9826  0.1574  0.0986
    71 Cl(35) Bbb     0.0005     0.024     0.008     0.008 -0.1060  0.0393  0.9936
              Bcc     0.0031     0.164     0.059     0.055 -0.1525  0.9868 -0.0553
 
              Baa    -0.0086    -0.451    -0.161    -0.151  0.7900 -0.6040 -0.1048
    72 Cl(35) Bbb    -0.0048    -0.250    -0.089    -0.083  0.4408  0.6785 -0.5876
              Bcc     0.0134     0.701     0.250     0.234  0.4261  0.4180  0.8023
 
              Baa    -0.1632    -8.540    -3.047    -2.849  0.0639  0.2710  0.9605
    73 Cl(35) Bbb    -0.1473    -7.711    -2.752    -2.572  0.9951 -0.0901 -0.0408
              Bcc     0.3105    16.251     5.799     5.421  0.0755  0.9584 -0.2754
 

 ---------------------------------------------------------------------------------

 No NMR shielding tensors so no spin-rotation constants.
 Leave Link  601 at Fri Jul 15 09:31:04 2022, MaxMem=  1342177280 cpu:             109.9 elap:               2.5
 (Enter /home/mkliu/g16/l9999.exe)
 1\1\GINC-NODE06\FOpt\UB3LYP\6-311G(d,p)\C66Cl7(2)\MKLIU\15-Jul-2022\0\
 \#P opt b3lyp/6-311G(d, p) empiricaldispersion=GD3\\force\\0,2\C,-1.35
 04263784,1.8910575518,-3.9334360311\C,0.2057245188,2.2350582324,-3.984
 8237183\C,0.9671076676,0.8684042126,-4.2757827371\C,-1.482370348,0.331
 2169775,-4.1962044989\C,-0.0813495645,-0.1841626277,-4.1536069937\C,-2
 .2265960523,-0.1998962002,-2.9829905374\C,-1.9278521542,2.0427137534,-
 2.5502333204\C,-2.6365154594,0.8986870623,-2.1607314841\C,-1.445523308
 8,2.9426735292,-1.5752554218\C,0.7458397175,2.6383136733,-2.6400720746
 \C,-0.0033747527,3.255895982,-1.6232818033\C,1.9253201201,0.7129873561
 ,-3.1118863004\C,1.8828318258,1.8696025211,-2.3018153132\C,2.267518665
 3,-0.5132432713,-2.5475143446\C,0.1941038188,-1.3788493117,-3.65272959
 6\C,1.586042005,-1.7518689116,-3.1531021063\C,-2.0041537526,-1.4309864
 955,-2.4384491519\C,-0.8893931659,-2.2764629011,-3.074263109\C,-2.4882
 61798,-1.7218537905,-1.0884036044\C,-3.0807424263,0.6961792376,-0.8272
 507169\C,-3.0939511422,-0.654731424,-0.2951892192\C,-2.0669344135,2.88
 41922738,-0.314153735\C,-2.9454841704,1.8030162557,0.0373706847\C,-1.3
 963783866,3.3088834566,0.9036115271\C,0.665369738,3.4768567478,-0.3998
 289484\C,-0.0406745142,3.5996580663,0.8587064656\C,2.4433831841,1.8746
 926391,-0.9983499664\C,1.9289556684,2.845164161,-0.1141171676\C,2.8801
 300113,-0.5539067924,-1.2685110165\C,3.0322054485,0.6499002704,-0.4913
 656408\C,3.1354800904,-1.9108072728,-0.6100500479\C,1.2631877783,-2.75
 35502698,-2.0858848638\C,-0.1192155281,-3.0414436255,-2.0439156739\C,2
 .0356525054,-2.8975390852,-0.9604416584\C,-1.960445591,-2.8367424475,-
 0.4051683939\C,-0.7122178593,-3.4551355058,-0.8744531974\C,-1.94307860
 23,-2.9042765684,1.0204310821\C,-3.1537110589,-0.7953437314,1.116083\C
 ,-2.5527327376,-1.9082590989,1.7789496168\C,-2.894215101,1.6243667129,
 1.4661685026\C,-1.9330094183,2.557723547,2.014805468\C,-3.0236135534,0
 .355313017,1.9953474362\C,-1.1099574743,2.1577354115,3.066960536\C,0.8
 268745393,3.1420198146,1.924085834\C,2.0477353292,2.6794279518,1.30449
 57037\C,0.304822801,2.4570332441,3.0195167076\C,3.2584085683,0.5729526
 191,0.9162951196\C,2.7156286783,1.5636225175,1.8012692224\C,3.03339695
 08,-1.8715043605,0.9052076704\C,3.195960409,-0.7057900744,1.6093934702
 \C,1.4644072939,-3.4419770919,0.2162092041\C,0.0953386703,-3.750813709
 1,0.2615160034\C,-0.6686398049,-3.4579974995,1.4529445537\C,2.10361846
 89,-2.8519294061,1.3728961892\C,-0.0415137312,-2.954018135,2.583679879
 8\C,1.3821857698,-2.6536984698,2.5526354479\C,-1.9383697836,-1.4444157
 013,3.0102285004\C,-2.2335840185,-0.0367603489,3.1458412241\C,-1.27002
 4061,0.8383299923,3.6505891671\C,-0.6931207545,-1.9395836133,3.3918776
 859\C,1.0221263015,1.3209337446,3.5729762424\C,2.2183088122,0.90062400
 51,2.9966207761\C,2.5121421171,-0.5071087447,2.8685407138\C,1.60155202
 46,-1.4604450458,3.3269655886\C,0.0441990841,0.3335841063,3.9960475863
 \C,0.326049341,-1.0258949617,3.8706131369\Cl,-2.3739171647,2.914212750
 1,-5.018521247\Cl,0.6375260142,3.5750493593,-5.1199452719\Cl,1.8186332
 292,0.7635684889,-5.8762759932\Cl,2.618918863,-2.5074123981,-4.4794630
 885\Cl,-2.3033030077,-0.1441385973,-5.7427942387\Cl,-1.5734716101,-3.4
 392965247,-4.3489824487\Cl,4.8188263407,-2.5157595536,-1.1358323002\\V
 ersion=ES64L-G16RevA.03\State=2-A\HF=-5736.9928386\S2=0.801623\S2-1=0.
 \S2A=0.752362\RMSD=5.836e-09\RMSF=3.605e-05\Dipole=-0.566417,0.5935264
 ,2.1377142\Quadrupole=0.1558196,2.7769201,-2.9327397,3.1807278,-0.4518
 196,-1.7269071\PG=C01 [X(C66Cl7)]\\@


 A SOLDIER'S LIFE IS A LIFE OF HONOR, BUT A DOG WOULD NOT LEAD IT.
 -- PRINCE RUPERT, FOUNDER OF THE HUDSON'S BAY COMPANY
 Job cpu time:       4 days 13 hours 24 minutes 57.1 seconds.
 Elapsed time:       0 days  2 hours 16 minutes 59.3 seconds.
 File lengths (MBytes):  RWF=   2038 Int=      0 D2E=      0 Chk=    184 Scr=      1
 Normal termination of Gaussian 16 at Fri Jul 15 09:31:06 2022.
