 Entering Gaussian System, Link 0=g16
 Input=elkioyy77u6m8_addon_7.gjf
 Output=elkioyy77u6m8_addon_7.log
 Initial command:
 /home/mkliu/g16/l1.exe "/data/scratch/Gau-156790.inp" -scrdir="/data/scratch/"
 Entering Link 1 = /home/mkliu/g16/l1.exe PID=    156791.
  
 Copyright (c) 1988,1990,1992,1993,1995,1998,2003,2009,2016,
            Gaussian, Inc.  All Rights Reserved.
  
 This is part of the Gaussian(R) 16 program.  It is based on
 the Gaussian(R) 09 system (copyright 2009, Gaussian, Inc.),
 the Gaussian(R) 03 system (copyright 2003, Gaussian, Inc.),
 the Gaussian(R) 98 system (copyright 1998, Gaussian, Inc.),
 the Gaussian(R) 94 system (copyright 1995, Gaussian, Inc.),
 the Gaussian 92(TM) system (copyright 1992, Gaussian, Inc.),
 the Gaussian 90(TM) system (copyright 1990, Gaussian, Inc.),
 the Gaussian 88(TM) system (copyright 1988, Gaussian, Inc.),
 the Gaussian 86(TM) system (copyright 1986, Carnegie Mellon
 University), and the Gaussian 82(TM) system (copyright 1983,
 Carnegie Mellon University). Gaussian is a federally registered
 trademark of Gaussian, Inc.
  
 This software contains proprietary and confidential information,
 including trade secrets, belonging to Gaussian, Inc.
  
 This software is provided under written license and may be
 used, copied, transmitted, or stored only in accord with that
 written license.
  
 The following legend is applicable only to US Government
 contracts under FAR:
  
                    RESTRICTED RIGHTS LEGEND
  
 Use, reproduction and disclosure by the US Government is
 subject to restrictions as set forth in subparagraphs (a)
 and (c) of the Commercial Computer Software - Restricted
 Rights clause in FAR 52.227-19.
  
 Gaussian, Inc.
 340 Quinnipiac St., Bldg. 40, Wallingford CT 06492
  
  
 ---------------------------------------------------------------
 Warning -- This program may not be used in any manner that
 competes with the business of Gaussian, Inc. or will provide
 assistance to any competitor of Gaussian, Inc.  The licensee
 of this program is prohibited from giving any competitor of
 Gaussian, Inc. access to this program.  By using this program,
 the user acknowledges that Gaussian, Inc. is engaged in the
 business of creating and licensing software in the field of
 computational chemistry and represents and warrants to the
 licensee that it is not a competitor of Gaussian, Inc. and that
 it will not use this program in any manner prohibited above.
 ---------------------------------------------------------------
  

 Cite this work as:
 Gaussian 16, Revision A.03,
 M. J. Frisch, G. W. Trucks, H. B. Schlegel, G. E. Scuseria, 
 M. A. Robb, J. R. Cheeseman, G. Scalmani, V. Barone, 
 G. A. Petersson, H. Nakatsuji, X. Li, M. Caricato, A. V. Marenich, 
 J. Bloino, B. G. Janesko, R. Gomperts, B. Mennucci, H. P. Hratchian, 
 J. V. Ortiz, A. F. Izmaylov, J. L. Sonnenberg, D. Williams-Young, 
 F. Ding, F. Lipparini, F. Egidi, J. Goings, B. Peng, A. Petrone, 
 T. Henderson, D. Ranasinghe, V. G. Zakrzewski, J. Gao, N. Rega, 
 G. Zheng, W. Liang, M. Hada, M. Ehara, K. Toyota, R. Fukuda, 
 J. Hasegawa, M. Ishida, T. Nakajima, Y. Honda, O. Kitao, H. Nakai, 
 T. Vreven, K. Throssell, J. A. Montgomery, Jr., J. E. Peralta, 
 F. Ogliaro, M. J. Bearpark, J. J. Heyd, E. N. Brothers, K. N. Kudin, 
 V. N. Staroverov, T. A. Keith, R. Kobayashi, J. Normand, 
 K. Raghavachari, A. P. Rendell, J. C. Burant, S. S. Iyengar, 
 J. Tomasi, M. Cossi, J. M. Millam, M. Klene, C. Adamo, R. Cammi, 
 J. W. Ochterski, R. L. Martin, K. Morokuma, O. Farkas, 
 J. B. Foresman, and D. J. Fox, Gaussian, Inc., Wallingford CT, 2016.
 
 ******************************************
 Gaussian 16:  ES64L-G16RevA.03 25-Dec-2016
                14-Jul-2022 
 ******************************************
 %mem=10GB
 %chk=elkioyy77u6m8_addon_7.chk
 %nprocshared=48
 Will use up to   48 processors via shared memory.
 -------------------------------------------------
 #P opt b3lyp/6-311G(d, p) empiricaldispersion=GD3
 -------------------------------------------------
 1/18=20,19=15,26=3,38=1/1,3;
 2/9=110,12=2,17=6,18=5,40=1/2;
 3/5=4,6=6,7=101,11=2,25=1,30=1,71=1,74=-5,124=31/1,2,3;
 4//1;
 5/5=2,38=5/2;
 6/7=2,8=2,9=2,10=2,28=1/1;
 7//1,2,3,16;
 1/18=20,19=15,26=3/3(2);
 2/9=110/2;
 99//99;
 2/9=110/2;
 3/5=4,6=6,7=101,11=2,25=1,30=1,71=1,74=-5,124=31/1,2,3;
 4/5=5,16=3,69=1/1;
 5/5=2,38=5/2;
 7//1,2,3,16;
 1/18=20,19=15,26=3/3(-5);
 2/9=110/2;
 6/7=2,8=2,9=2,10=2,19=2,28=1/1;
 99/9=1/99;
 Leave Link    1 at Thu Jul 14 17:30:46 2022, MaxMem=  1342177280 cpu:               2.1 elap:               0.1
 (Enter /home/mkliu/g16/l101.exe)
 -----
 force
 -----
 Symbolic Z-matrix:
 Charge =  0 Multiplicity = 2
 C                    -1.35299   1.88455  -3.92739 
 C                     0.18422   2.21431  -3.98237 
 C                     0.95037   0.89529  -4.26117 
 C                    -1.47037   0.35318  -4.1328 
 C                    -0.08241  -0.14784  -4.10046 
 C                    -2.21749  -0.16477  -2.94594 
 C                    -1.94808   2.0766   -2.56875 
 C                    -2.62261   0.8999   -2.13879 
 C                    -1.44942   2.92442  -1.58523 
 C                     0.71483   2.60679  -2.64257 
 C                    -0.01399   3.20589  -1.63453 
 C                     1.8886    0.68411  -3.0887 
 C                     1.82597   1.81658  -2.26285 
 C                     2.22956  -0.52558  -2.54084 
 C                     0.21514  -1.34157  -3.57943 
 C                     1.61119  -1.76719  -3.1629 
 C                    -1.95716  -1.40974  -2.37873 
 C                    -0.7719   -2.0657   -2.83021 
 C                    -2.49173  -1.70492  -1.05853 
 C                    -3.08703   0.68453  -0.81777 
 C                    -3.1084   -0.65334  -0.28712 
 C                    -2.06156   2.84217  -0.32203 
 C                    -2.94154   1.78401   0.03576 
 C                    -1.38492   3.25158   0.87289 
 C                     0.66871   3.39884  -0.40475 
 C                    -0.03599   3.52697   0.83742 
 C                     2.40171   1.80955  -0.99877 
 C                     1.90559   2.79482  -0.12352 
 C                     2.86625  -0.56981  -1.24622 
 C                     2.99541   0.59177  -0.51037 
 C                     3.14788  -1.92436  -0.6243 
 C                     1.30995  -2.7778   -2.09869 
 C                    -0.11619  -3.00179  -2.02407 
 C                     2.03941  -2.8824   -0.96855 
 C                    -1.93679  -2.80207  -0.38858 
 C                    -0.7195   -3.41196  -0.84607 
 C                    -1.94924  -2.89082   1.03928 
 C                    -3.16454  -0.79144   1.114 
 C                    -2.56674  -1.90669   1.78097 
 C                    -2.89408   1.61311   1.45696 
 C                    -1.93903   2.53355   1.99711 
 C                    -3.03983   0.34656   1.98738 
 C                    -1.12877   2.12876   3.03921 
 C                     0.81939   3.08093   1.90678 
 C                     2.0354    2.61822   1.30637 
 C                     0.28363   2.41564   2.98987 
 C                     3.48618   0.59171   0.92747 
 C                     2.71093   1.53778   1.79925 
 C                     3.01551  -1.86488   0.87478 
 C                     3.19203  -0.72468   1.58463 
 C                     1.44543  -3.43105   0.22362 
 C                     0.09304  -3.72613   0.27431 
 C                    -0.68475  -3.44281   1.4518 
 C                     2.07432  -2.83485   1.34771 
 C                    -0.06165  -2.92999   2.56883 
 C                     1.34319  -2.62336   2.50849 
 C                    -1.96427  -1.44507   3.00104 
 C                    -2.25565  -0.04268   3.12628 
 C                    -1.29906   0.82706   3.62084 
 C                    -0.72322  -1.92974   3.3658 
 C                     0.98943   1.29591   3.52487 
 C                     2.18419   0.87763   2.94449 
 C                     2.46849  -0.51576   2.80132 
 C                     1.55328  -1.44002   3.26436 
 C                     0.01691   0.32789   3.94533 
 C                     0.29391  -1.02031   3.81857 
 Cl                   -2.29072   2.82623  -5.11519 
 Cl                    0.54664   3.50736  -5.15143 
 Cl                    1.78023   0.76383  -5.82852 
 Cl                    2.67252  -2.41965  -4.45424 
 Cl                    4.78328  -2.46629  -1.17396 
 Cl                    5.26185   0.96348   0.84244 
 Cl                   -2.24984  -0.15596  -5.67622 
 
 ITRead=  0  0  0  0  0  0  0  0  0  0  0  0  0  0  0  0  0  0  0  0
 ITRead=  0  0  0  0  0  0  0  0  0  0  0  0  0  0  0  0  0  0  0  0
 ITRead=  0  0  0  0  0  0  0  0  0  0  0  0  0  0  0  0  0  0  0  0
 ITRead=  0  0  0  0  0  0  0  0  0  0  0  0  0
 MicOpt= -1 -1 -1 -1 -1 -1 -1 -1 -1 -1 -1 -1 -1 -1 -1 -1 -1 -1 -1 -1
 MicOpt= -1 -1 -1 -1 -1 -1 -1 -1 -1 -1 -1 -1 -1 -1 -1 -1 -1 -1 -1 -1
 MicOpt= -1 -1 -1 -1 -1 -1 -1 -1 -1 -1 -1 -1 -1 -1 -1 -1 -1 -1 -1 -1
 MicOpt= -1 -1 -1 -1 -1 -1 -1 -1 -1 -1 -1 -1 -1
 NAtoms=     73 NQM=       73 NQMF=       0 NMMI=      0 NMMIF=      0
                NMic=       0 NMicF=      0.
                    Isotopes and Nuclear Properties:
 (Nuclear quadrupole moments (NQMom) in fm**2, nuclear magnetic moments (NMagM)
  in nuclear magnetons)

  Atom         1           2           3           4           5           6           7           8           9          10
 IAtWgt=          12          12          12          12          12          12          12          12          12          12
 AtmWgt=  12.0000000  12.0000000  12.0000000  12.0000000  12.0000000  12.0000000  12.0000000  12.0000000  12.0000000  12.0000000
 NucSpn=           0           0           0           0           0           0           0           0           0           0
 AtZEff=  -0.0000000  -0.0000000  -0.0000000  -0.0000000  -0.0000000  -0.0000000  -0.0000000  -0.0000000  -0.0000000  -0.0000000
 NQMom=    0.0000000   0.0000000   0.0000000   0.0000000   0.0000000   0.0000000   0.0000000   0.0000000   0.0000000   0.0000000
 NMagM=    0.0000000   0.0000000   0.0000000   0.0000000   0.0000000   0.0000000   0.0000000   0.0000000   0.0000000   0.0000000
 AtZNuc=   6.0000000   6.0000000   6.0000000   6.0000000   6.0000000   6.0000000   6.0000000   6.0000000   6.0000000   6.0000000

  Atom        11          12          13          14          15          16          17          18          19          20
 IAtWgt=          12          12          12          12          12          12          12          12          12          12
 AtmWgt=  12.0000000  12.0000000  12.0000000  12.0000000  12.0000000  12.0000000  12.0000000  12.0000000  12.0000000  12.0000000
 NucSpn=           0           0           0           0           0           0           0           0           0           0
 AtZEff=  -0.0000000  -0.0000000  -0.0000000  -0.0000000  -0.0000000  -0.0000000  -0.0000000  -0.0000000  -0.0000000  -0.0000000
 NQMom=    0.0000000   0.0000000   0.0000000   0.0000000   0.0000000   0.0000000   0.0000000   0.0000000   0.0000000   0.0000000
 NMagM=    0.0000000   0.0000000   0.0000000   0.0000000   0.0000000   0.0000000   0.0000000   0.0000000   0.0000000   0.0000000
 AtZNuc=   6.0000000   6.0000000   6.0000000   6.0000000   6.0000000   6.0000000   6.0000000   6.0000000   6.0000000   6.0000000

  Atom        21          22          23          24          25          26          27          28          29          30
 IAtWgt=          12          12          12          12          12          12          12          12          12          12
 AtmWgt=  12.0000000  12.0000000  12.0000000  12.0000000  12.0000000  12.0000000  12.0000000  12.0000000  12.0000000  12.0000000
 NucSpn=           0           0           0           0           0           0           0           0           0           0
 AtZEff=  -0.0000000  -0.0000000  -0.0000000  -0.0000000  -0.0000000  -0.0000000  -0.0000000  -0.0000000  -0.0000000  -0.0000000
 NQMom=    0.0000000   0.0000000   0.0000000   0.0000000   0.0000000   0.0000000   0.0000000   0.0000000   0.0000000   0.0000000
 NMagM=    0.0000000   0.0000000   0.0000000   0.0000000   0.0000000   0.0000000   0.0000000   0.0000000   0.0000000   0.0000000
 AtZNuc=   6.0000000   6.0000000   6.0000000   6.0000000   6.0000000   6.0000000   6.0000000   6.0000000   6.0000000   6.0000000

  Atom        31          32          33          34          35          36          37          38          39          40
 IAtWgt=          12          12          12          12          12          12          12          12          12          12
 AtmWgt=  12.0000000  12.0000000  12.0000000  12.0000000  12.0000000  12.0000000  12.0000000  12.0000000  12.0000000  12.0000000
 NucSpn=           0           0           0           0           0           0           0           0           0           0
 AtZEff=  -0.0000000  -0.0000000  -0.0000000  -0.0000000  -0.0000000  -0.0000000  -0.0000000  -0.0000000  -0.0000000  -0.0000000
 NQMom=    0.0000000   0.0000000   0.0000000   0.0000000   0.0000000   0.0000000   0.0000000   0.0000000   0.0000000   0.0000000
 NMagM=    0.0000000   0.0000000   0.0000000   0.0000000   0.0000000   0.0000000   0.0000000   0.0000000   0.0000000   0.0000000
 AtZNuc=   6.0000000   6.0000000   6.0000000   6.0000000   6.0000000   6.0000000   6.0000000   6.0000000   6.0000000   6.0000000

  Atom        41          42          43          44          45          46          47          48          49          50
 IAtWgt=          12          12          12          12          12          12          12          12          12          12
 AtmWgt=  12.0000000  12.0000000  12.0000000  12.0000000  12.0000000  12.0000000  12.0000000  12.0000000  12.0000000  12.0000000
 NucSpn=           0           0           0           0           0           0           0           0           0           0
 AtZEff=  -0.0000000  -0.0000000  -0.0000000  -0.0000000  -0.0000000  -0.0000000  -0.0000000  -0.0000000  -0.0000000  -0.0000000
 NQMom=    0.0000000   0.0000000   0.0000000   0.0000000   0.0000000   0.0000000   0.0000000   0.0000000   0.0000000   0.0000000
 NMagM=    0.0000000   0.0000000   0.0000000   0.0000000   0.0000000   0.0000000   0.0000000   0.0000000   0.0000000   0.0000000
 AtZNuc=   6.0000000   6.0000000   6.0000000   6.0000000   6.0000000   6.0000000   6.0000000   6.0000000   6.0000000   6.0000000

  Atom        51          52          53          54          55          56          57          58          59          60
 IAtWgt=          12          12          12          12          12          12          12          12          12          12
 AtmWgt=  12.0000000  12.0000000  12.0000000  12.0000000  12.0000000  12.0000000  12.0000000  12.0000000  12.0000000  12.0000000
 NucSpn=           0           0           0           0           0           0           0           0           0           0
 AtZEff=  -0.0000000  -0.0000000  -0.0000000  -0.0000000  -0.0000000  -0.0000000  -0.0000000  -0.0000000  -0.0000000  -0.0000000
 NQMom=    0.0000000   0.0000000   0.0000000   0.0000000   0.0000000   0.0000000   0.0000000   0.0000000   0.0000000   0.0000000
 NMagM=    0.0000000   0.0000000   0.0000000   0.0000000   0.0000000   0.0000000   0.0000000   0.0000000   0.0000000   0.0000000
 AtZNuc=   6.0000000   6.0000000   6.0000000   6.0000000   6.0000000   6.0000000   6.0000000   6.0000000   6.0000000   6.0000000

  Atom        61          62          63          64          65          66          67          68          69          70
 IAtWgt=          12          12          12          12          12          12          35          35          35          35
 AtmWgt=  12.0000000  12.0000000  12.0000000  12.0000000  12.0000000  12.0000000  34.9688527  34.9688527  34.9688527  34.9688527
 NucSpn=           0           0           0           0           0           0           3           3           3           3
 AtZEff=  -0.0000000  -0.0000000  -0.0000000  -0.0000000  -0.0000000  -0.0000000  -0.0000000  -0.0000000  -0.0000000  -0.0000000
 NQMom=    0.0000000   0.0000000   0.0000000   0.0000000   0.0000000   0.0000000  -8.1650000  -8.1650000  -8.1650000  -8.1650000
 NMagM=    0.0000000   0.0000000   0.0000000   0.0000000   0.0000000   0.0000000   0.8218740   0.8218740   0.8218740   0.8218740
 AtZNuc=   6.0000000   6.0000000   6.0000000   6.0000000   6.0000000   6.0000000  17.0000000  17.0000000  17.0000000  17.0000000

  Atom        71          72          73
 IAtWgt=          35          35          35
 AtmWgt=  34.9688527  34.9688527  34.9688527
 NucSpn=           3           3           3
 AtZEff=  -0.0000000  -0.0000000  -0.0000000
 NQMom=   -8.1650000  -8.1650000  -8.1650000
 NMagM=    0.8218740   0.8218740   0.8218740
 AtZNuc=  17.0000000  17.0000000  17.0000000
 Leave Link  101 at Thu Jul 14 17:30:46 2022, MaxMem=  1342177280 cpu:              12.9 elap:               0.3
 (Enter /home/mkliu/g16/l103.exe)

 GradGradGradGradGradGradGradGradGradGradGradGradGradGradGradGradGradGrad
 Berny optimization.
 Initialization pass.
                           ----------------------------
                           !    Initial Parameters    !
                           ! (Angstroms and Degrees)  !
 --------------------------                            --------------------------
 ! Name  Definition              Value          Derivative Info.                !
 --------------------------------------------------------------------------------
 ! R1    R(1,2)                  1.5731         estimate D2E/DX2                !
 ! R2    R(1,4)                  1.5495         estimate D2E/DX2                !
 ! R3    R(1,7)                  1.4956         estimate D2E/DX2                !
 ! R4    R(1,67)                 1.7824         estimate D2E/DX2                !
 ! R5    R(2,3)                  1.5506         estimate D2E/DX2                !
 ! R6    R(2,10)                 1.4935         estimate D2E/DX2                !
 ! R7    R(2,68)                 1.7805         estimate D2E/DX2                !
 ! R8    R(3,5)                  1.4767         estimate D2E/DX2                !
 ! R9    R(3,12)                 1.5164         estimate D2E/DX2                !
 ! R10   R(3,69)                 1.7783         estimate D2E/DX2                !
 ! R11   R(4,5)                  1.476          estimate D2E/DX2                !
 ! R12   R(4,6)                  1.495          estimate D2E/DX2                !
 ! R13   R(4,73)                 1.8025         estimate D2E/DX2                !
 ! R14   R(5,15)                 1.336          estimate D2E/DX2                !
 ! R15   R(6,8)                  1.3961         estimate D2E/DX2                !
 ! R16   R(6,17)                 1.3926         estimate D2E/DX2                !
 ! R17   R(7,8)                  1.4228         estimate D2E/DX2                !
 ! R18   R(7,9)                  1.391          estimate D2E/DX2                !
 ! R19   R(8,20)                 1.4167         estimate D2E/DX2                !
 ! R20   R(9,11)                 1.4636         estimate D2E/DX2                !
 ! R21   R(9,22)                 1.4061         estimate D2E/DX2                !
 ! R22   R(10,11)                1.3807         estimate D2E/DX2                !
 ! R23   R(10,13)                1.4154         estimate D2E/DX2                !
 ! R24   R(11,25)                1.4197         estimate D2E/DX2                !
 ! R25   R(12,13)                1.403          estimate D2E/DX2                !
 ! R26   R(12,14)                1.371          estimate D2E/DX2                !
 ! R27   R(13,27)                1.389          estimate D2E/DX2                !
 ! R28   R(14,16)                1.5202         estimate D2E/DX2                !
 ! R29   R(14,29)                1.4434         estimate D2E/DX2                !
 ! R30   R(15,16)                1.5178         estimate D2E/DX2                !
 ! R31   R(15,18)                1.4353         estimate D2E/DX2                !
 ! R32   R(16,32)                1.4982         estimate D2E/DX2                !
 ! R33   R(16,70)                1.7943         estimate D2E/DX2                !
 ! R34   R(17,18)                1.4279         estimate D2E/DX2                !
 ! R35   R(17,19)                1.4546         estimate D2E/DX2                !
 ! R36   R(18,33)                1.3986         estimate D2E/DX2                !
 ! R37   R(19,21)                1.4426         estimate D2E/DX2                !
 ! R38   R(19,35)                1.4002         estimate D2E/DX2                !
 ! R39   R(20,21)                1.4394         estimate D2E/DX2                !
 ! R40   R(20,23)                1.3995         estimate D2E/DX2                !
 ! R41   R(21,38)                1.409          estimate D2E/DX2                !
 ! R42   R(22,23)                1.422          estimate D2E/DX2                !
 ! R43   R(22,24)                1.4329         estimate D2E/DX2                !
 ! R44   R(23,40)                1.4322         estimate D2E/DX2                !
 ! R45   R(24,26)                1.3772         estimate D2E/DX2                !
 ! R46   R(24,41)                1.4445         estimate D2E/DX2                !
 ! R47   R(25,26)                1.4339         estimate D2E/DX2                !
 ! R48   R(25,28)                1.4049         estimate D2E/DX2                !
 ! R49   R(26,44)                1.4402         estimate D2E/DX2                !
 ! R50   R(27,28)                1.4082         estimate D2E/DX2                !
 ! R51   R(27,30)                1.4401         estimate D2E/DX2                !
 ! R52   R(28,45)                1.4466         estimate D2E/DX2                !
 ! R53   R(29,30)                1.3811         estimate D2E/DX2                !
 ! R54   R(29,31)                1.5169         estimate D2E/DX2                !
 ! R55   R(30,47)                1.5193         estimate D2E/DX2                !
 ! R56   R(31,34)                1.505          estimate D2E/DX2                !
 ! R57   R(31,49)                1.5061         estimate D2E/DX2                !
 ! R58   R(31,71)                1.8084         estimate D2E/DX2                !
 ! R59   R(32,33)                1.4455         estimate D2E/DX2                !
 ! R60   R(32,34)                1.3492         estimate D2E/DX2                !
 ! R61   R(33,36)                1.3856         estimate D2E/DX2                !
 ! R62   R(34,51)                1.4405         estimate D2E/DX2                !
 ! R63   R(35,36)                1.4363         estimate D2E/DX2                !
 ! R64   R(35,37)                1.4307         estimate D2E/DX2                !
 ! R65   R(36,52)                1.4192         estimate D2E/DX2                !
 ! R66   R(37,39)                1.3784         estimate D2E/DX2                !
 ! R67   R(37,53)                1.4401         estimate D2E/DX2                !
 ! R68   R(38,39)                1.4304         estimate D2E/DX2                !
 ! R69   R(38,42)                1.4399         estimate D2E/DX2                !
 ! R70   R(39,57)                1.4369         estimate D2E/DX2                !
 ! R71   R(40,41)                1.4322         estimate D2E/DX2                !
 ! R72   R(40,42)                1.3808         estimate D2E/DX2                !
 ! R73   R(41,43)                1.3807         estimate D2E/DX2                !
 ! R74   R(42,58)                1.4365         estimate D2E/DX2                !
 ! R75   R(43,46)                1.4421         estimate D2E/DX2                !
 ! R76   R(43,59)                1.4359         estimate D2E/DX2                !
 ! R77   R(44,45)                1.4329         estimate D2E/DX2                !
 ! R78   R(44,46)                1.3794         estimate D2E/DX2                !
 ! R79   R(45,48)                1.3662         estimate D2E/DX2                !
 ! R80   R(46,61)                1.4276         estimate D2E/DX2                !
 ! R81   R(47,48)                1.502          estimate D2E/DX2                !
 ! R82   R(47,50)                1.5004         estimate D2E/DX2                !
 ! R83   R(47,72)                1.8162         estimate D2E/DX2                !
 ! R84   R(48,62)                1.423          estimate D2E/DX2                !
 ! R85   R(49,50)                1.3547         estimate D2E/DX2                !
 ! R86   R(49,54)                1.4319         estimate D2E/DX2                !
 ! R87   R(50,63)                1.4309         estimate D2E/DX2                !
 ! R88   R(51,52)                1.3851         estimate D2E/DX2                !
 ! R89   R(51,54)                1.4193         estimate D2E/DX2                !
 ! R90   R(52,53)                1.4394         estimate D2E/DX2                !
 ! R91   R(53,55)                1.378          estimate D2E/DX2                !
 ! R92   R(54,56)                1.388          estimate D2E/DX2                !
 ! R93   R(55,56)                1.4392         estimate D2E/DX2                !
 ! R94   R(55,60)                1.4399         estimate D2E/DX2                !
 ! R95   R(56,64)                1.4198         estimate D2E/DX2                !
 ! R96   R(57,58)                1.4378         estimate D2E/DX2                !
 ! R97   R(57,60)                1.3814         estimate D2E/DX2                !
 ! R98   R(58,59)                1.3842         estimate D2E/DX2                !
 ! R99   R(59,65)                1.4444         estimate D2E/DX2                !
 ! R100  R(60,66)                1.4376         estimate D2E/DX2                !
 ! R101  R(61,62)                1.3926         estimate D2E/DX2                !
 ! R102  R(61,65)                1.4351         estimate D2E/DX2                !
 ! R103  R(62,63)                1.4293         estimate D2E/DX2                !
 ! R104  R(63,64)                1.3807         estimate D2E/DX2                !
 ! R105  R(64,66)                1.4385         estimate D2E/DX2                !
 ! R106  R(65,66)                1.3822         estimate D2E/DX2                !
 ! A1    A(2,1,4)              106.054          estimate D2E/DX2                !
 ! A2    A(2,1,7)              113.1808         estimate D2E/DX2                !
 ! A3    A(2,1,67)             112.3369         estimate D2E/DX2                !
 ! A4    A(4,1,7)              102.5432         estimate D2E/DX2                !
 ! A5    A(4,1,67)             113.1995         estimate D2E/DX2                !
 ! A6    A(7,1,67)             109.1595         estimate D2E/DX2                !
 ! A7    A(1,2,3)              108.1062         estimate D2E/DX2                !
 ! A8    A(1,2,10)             111.7703         estimate D2E/DX2                !
 ! A9    A(1,2,68)             111.968          estimate D2E/DX2                !
 ! A10   A(3,2,10)             102.0805         estimate D2E/DX2                !
 ! A11   A(3,2,68)             113.5241         estimate D2E/DX2                !
 ! A12   A(10,2,68)            109.0171         estimate D2E/DX2                !
 ! A13   A(2,3,5)              103.6362         estimate D2E/DX2                !
 ! A14   A(2,3,12)             106.5673         estimate D2E/DX2                !
 ! A15   A(2,3,69)             116.8658         estimate D2E/DX2                !
 ! A16   A(5,3,12)             104.4896         estimate D2E/DX2                !
 ! A17   A(5,3,69)             111.72           estimate D2E/DX2                !
 ! A18   A(12,3,69)            112.4838         estimate D2E/DX2                !
 ! A19   A(1,4,5)              105.1491         estimate D2E/DX2                !
 ! A20   A(1,4,6)              105.9626         estimate D2E/DX2                !
 ! A21   A(1,4,73)             115.1772         estimate D2E/DX2                !
 ! A22   A(5,4,6)              109.5693         estimate D2E/DX2                !
 ! A23   A(5,4,73)             109.2405         estimate D2E/DX2                !
 ! A24   A(6,4,73)             111.4568         estimate D2E/DX2                !
 ! A25   A(3,5,4)              114.5518         estimate D2E/DX2                !
 ! A26   A(3,5,15)             121.1873         estimate D2E/DX2                !
 ! A27   A(4,5,15)             121.4174         estimate D2E/DX2                !
 ! A28   A(4,6,8)              109.8632         estimate D2E/DX2                !
 ! A29   A(4,6,17)             122.6586         estimate D2E/DX2                !
 ! A30   A(8,6,17)             120.0333         estimate D2E/DX2                !
 ! A31   A(1,7,8)              110.9127         estimate D2E/DX2                !
 ! A32   A(1,7,9)              125.3054         estimate D2E/DX2                !
 ! A33   A(8,7,9)              117.4108         estimate D2E/DX2                !
 ! A34   A(6,8,7)              108.5664         estimate D2E/DX2                !
 ! A35   A(6,8,20)             121.216          estimate D2E/DX2                !
 ! A36   A(7,8,20)             124.2564         estimate D2E/DX2                !
 ! A37   A(7,9,11)             116.4233         estimate D2E/DX2                !
 ! A38   A(7,9,22)             116.3266         estimate D2E/DX2                !
 ! A39   A(11,9,22)            117.935          estimate D2E/DX2                !
 ! A40   A(2,10,11)            125.5522         estimate D2E/DX2                !
 ! A41   A(2,10,13)            111.8922         estimate D2E/DX2                !
 ! A42   A(11,10,13)           117.4386         estimate D2E/DX2                !
 ! A43   A(9,11,10)            117.3137         estimate D2E/DX2                !
 ! A44   A(9,11,25)            117.9412         estimate D2E/DX2                !
 ! A45   A(10,11,25)           115.9482         estimate D2E/DX2                !
 ! A46   A(3,12,13)            108.3657         estimate D2E/DX2                !
 ! A47   A(3,12,14)            125.852          estimate D2E/DX2                !
 ! A48   A(13,12,14)           119.2139         estimate D2E/DX2                !
 ! A49   A(10,13,12)           109.134          estimate D2E/DX2                !
 ! A50   A(10,13,27)           124.916          estimate D2E/DX2                !
 ! A51   A(12,13,27)           120.8693         estimate D2E/DX2                !
 ! A52   A(12,14,16)           117.1268         estimate D2E/DX2                !
 ! A53   A(12,14,29)           119.6788         estimate D2E/DX2                !
 ! A54   A(16,14,29)           121.4284         estimate D2E/DX2                !
 ! A55   A(5,15,16)            124.2244         estimate D2E/DX2                !
 ! A56   A(5,15,18)            120.0796         estimate D2E/DX2                !
 ! A57   A(16,15,18)           110.3542         estimate D2E/DX2                !
 ! A58   A(14,16,15)           104.9166         estimate D2E/DX2                !
 ! A59   A(14,16,32)           110.0026         estimate D2E/DX2                !
 ! A60   A(14,16,70)           110.541          estimate D2E/DX2                !
 ! A61   A(15,16,32)           101.4874         estimate D2E/DX2                !
 ! A62   A(15,16,70)           116.6486         estimate D2E/DX2                !
 ! A63   A(32,16,70)           112.6346         estimate D2E/DX2                !
 ! A64   A(6,17,18)            115.9163         estimate D2E/DX2                !
 ! A65   A(6,17,19)            118.8408         estimate D2E/DX2                !
 ! A66   A(18,17,19)           119.9204         estimate D2E/DX2                !
 ! A67   A(15,18,17)           120.2731         estimate D2E/DX2                !
 ! A68   A(15,18,33)           108.4297         estimate D2E/DX2                !
 ! A69   A(17,18,33)           120.9564         estimate D2E/DX2                !
 ! A70   A(17,19,21)           119.6363         estimate D2E/DX2                !
 ! A71   A(17,19,35)           116.5914         estimate D2E/DX2                !
 ! A72   A(21,19,35)           118.9956         estimate D2E/DX2                !
 ! A73   A(8,20,21)            119.3346         estimate D2E/DX2                !
 ! A74   A(8,20,23)            114.5297         estimate D2E/DX2                !
 ! A75   A(21,20,23)           120.4584         estimate D2E/DX2                !
 ! A76   A(19,21,20)           118.2964         estimate D2E/DX2                !
 ! A77   A(19,21,38)           118.5096         estimate D2E/DX2                !
 ! A78   A(20,21,38)           117.2758         estimate D2E/DX2                !
 ! A79   A(9,22,23)            122.6135         estimate D2E/DX2                !
 ! A80   A(9,22,24)            121.7936         estimate D2E/DX2                !
 ! A81   A(23,22,24)           107.1586         estimate D2E/DX2                !
 ! A82   A(20,23,22)           119.7031         estimate D2E/DX2                !
 ! A83   A(20,23,40)           120.9905         estimate D2E/DX2                !
 ! A84   A(22,23,40)           108.5395         estimate D2E/DX2                !
 ! A85   A(22,24,26)           119.879          estimate D2E/DX2                !
 ! A86   A(22,24,41)           109.017          estimate D2E/DX2                !
 ! A87   A(26,24,41)           119.6808         estimate D2E/DX2                !
 ! A88   A(11,25,26)           121.7496         estimate D2E/DX2                !
 ! A89   A(11,25,28)           122.5685         estimate D2E/DX2                !
 ! A90   A(26,25,28)           107.3189         estimate D2E/DX2                !
 ! A91   A(24,26,25)           119.0656         estimate D2E/DX2                !
 ! A92   A(24,26,44)           120.0457         estimate D2E/DX2                !
 ! A93   A(25,26,44)           108.8843         estimate D2E/DX2                !
 ! A94   A(13,27,28)           114.5865         estimate D2E/DX2                !
 ! A95   A(13,27,30)           118.9328         estimate D2E/DX2                !
 ! A96   A(28,27,30)           121.7421         estimate D2E/DX2                !
 ! A97   A(25,28,27)           119.1151         estimate D2E/DX2                !
 ! A98   A(25,28,45)           109.2293         estimate D2E/DX2                !
 ! A99   A(27,28,45)           119.8247         estimate D2E/DX2                !
 ! A100  A(14,29,30)           119.5625         estimate D2E/DX2                !
 ! A101  A(14,29,31)           118.4896         estimate D2E/DX2                !
 ! A102  A(30,29,31)           121.0134         estimate D2E/DX2                !
 ! A103  A(27,30,29)           119.4686         estimate D2E/DX2                !
 ! A104  A(27,30,47)           117.0108         estimate D2E/DX2                !
 ! A105  A(29,30,47)           122.3042         estimate D2E/DX2                !
 ! A106  A(29,31,34)           109.7504         estimate D2E/DX2                !
 ! A107  A(29,31,49)           110.8859         estimate D2E/DX2                !
 ! A108  A(29,31,71)           108.1126         estimate D2E/DX2                !
 ! A109  A(34,31,49)           100.8409         estimate D2E/DX2                !
 ! A110  A(34,31,71)           113.9397         estimate D2E/DX2                !
 ! A111  A(49,31,71)           113.1939         estimate D2E/DX2                !
 ! A112  A(16,32,33)           109.85           estimate D2E/DX2                !
 ! A113  A(16,32,34)           122.5876         estimate D2E/DX2                !
 ! A114  A(33,32,34)           118.5653         estimate D2E/DX2                !
 ! A115  A(18,33,32)           109.2128         estimate D2E/DX2                !
 ! A116  A(18,33,36)           118.948          estimate D2E/DX2                !
 ! A117  A(32,33,36)           121.2867         estimate D2E/DX2                !
 ! A118  A(31,34,32)           122.7152         estimate D2E/DX2                !
 ! A119  A(31,34,51)           110.9065         estimate D2E/DX2                !
 ! A120  A(32,34,51)           119.9889         estimate D2E/DX2                !
 ! A121  A(19,35,36)           121.0781         estimate D2E/DX2                !
 ! A122  A(19,35,37)           121.5126         estimate D2E/DX2                !
 ! A123  A(36,35,37)           107.3932         estimate D2E/DX2                !
 ! A124  A(33,36,35)           120.938          estimate D2E/DX2                !
 ! A125  A(33,36,52)           119.1693         estimate D2E/DX2                !
 ! A126  A(35,36,52)           109.1335         estimate D2E/DX2                !
 ! A127  A(35,37,39)           119.7781         estimate D2E/DX2                !
 ! A128  A(35,37,53)           107.5794         estimate D2E/DX2                !
 ! A129  A(39,37,53)           120.8574         estimate D2E/DX2                !
 ! A130  A(21,38,39)           121.5633         estimate D2E/DX2                !
 ! A131  A(21,38,42)           121.4823         estimate D2E/DX2                !
 ! A132  A(39,38,42)           107.2879         estimate D2E/DX2                !
 ! A133  A(37,39,38)           119.5382         estimate D2E/DX2                !
 ! A134  A(37,39,57)           119.8964         estimate D2E/DX2                !
 ! A135  A(38,39,57)           108.704          estimate D2E/DX2                !
 ! A136  A(23,40,41)           108.6424         estimate D2E/DX2                !
 ! A137  A(23,40,42)           119.1515         estimate D2E/DX2                !
 ! A138  A(41,40,42)           120.9981         estimate D2E/DX2                !
 ! A139  A(24,41,40)           106.3646         estimate D2E/DX2                !
 ! A140  A(24,41,43)           120.5337         estimate D2E/DX2                !
 ! A141  A(40,41,43)           119.1818         estimate D2E/DX2                !
 ! A142  A(38,42,40)           120.0693         estimate D2E/DX2                !
 ! A143  A(38,42,58)           108.3019         estimate D2E/DX2                !
 ! A144  A(40,42,58)           119.6999         estimate D2E/DX2                !
 ! A145  A(41,43,46)           119.3814         estimate D2E/DX2                !
 ! A146  A(41,43,59)           120.1269         estimate D2E/DX2                !
 ! A147  A(46,43,59)           108.0808         estimate D2E/DX2                !
 ! A148  A(26,44,45)           107.0325         estimate D2E/DX2                !
 ! A149  A(26,44,46)           120.1124         estimate D2E/DX2                !
 ! A150  A(45,44,46)           120.1903         estimate D2E/DX2                !
 ! A151  A(28,45,44)           107.374          estimate D2E/DX2                !
 ! A152  A(28,45,48)           119.8346         estimate D2E/DX2                !
 ! A153  A(44,45,48)           121.5873         estimate D2E/DX2                !
 ! A154  A(43,46,44)           120.2132         estimate D2E/DX2                !
 ! A155  A(43,46,61)           108.3822         estimate D2E/DX2                !
 ! A156  A(44,46,61)           118.7184         estimate D2E/DX2                !
 ! A157  A(30,47,48)           112.4908         estimate D2E/DX2                !
 ! A158  A(30,47,50)           110.5614         estimate D2E/DX2                !
 ! A159  A(30,47,72)           105.7539         estimate D2E/DX2                !
 ! A160  A(48,47,50)           101.3744         estimate D2E/DX2                !
 ! A161  A(48,47,72)           113.7578         estimate D2E/DX2                !
 ! A162  A(50,47,72)           113.065          estimate D2E/DX2                !
 ! A163  A(45,48,47)           122.9513         estimate D2E/DX2                !
 ! A164  A(45,48,62)           118.3069         estimate D2E/DX2                !
 ! A165  A(47,48,62)           111.4673         estimate D2E/DX2                !
 ! A166  A(31,49,50)           122.9127         estimate D2E/DX2                !
 ! A167  A(31,49,54)           111.0853         estimate D2E/DX2                !
 ! A168  A(50,49,54)           118.8643         estimate D2E/DX2                !
 ! A169  A(47,50,49)           122.3094         estimate D2E/DX2                !
 ! A170  A(47,50,63)           110.087          estimate D2E/DX2                !
 ! A171  A(49,50,63)           120.1695         estimate D2E/DX2                !
 ! A172  A(34,51,52)           120.9311         estimate D2E/DX2                !
 ! A173  A(34,51,54)           108.2254         estimate D2E/DX2                !
 ! A174  A(52,51,54)           119.5455         estimate D2E/DX2                !
 ! A175  A(36,52,51)           118.8783         estimate D2E/DX2                !
 ! A176  A(36,52,53)           107.029          estimate D2E/DX2                !
 ! A177  A(51,52,53)           121.0377         estimate D2E/DX2                !
 ! A178  A(37,53,52)           108.3971         estimate D2E/DX2                !
 ! A179  A(37,53,55)           119.1172         estimate D2E/DX2                !
 ! A180  A(52,53,55)           119.4745         estimate D2E/DX2                !
 ! A181  A(49,54,51)           108.3129         estimate D2E/DX2                !
 ! A182  A(49,54,56)           121.2794         estimate D2E/DX2                !
 ! A183  A(51,54,56)           119.5331         estimate D2E/DX2                !
 ! A184  A(53,55,56)           119.1225         estimate D2E/DX2                !
 ! A185  A(53,55,60)           119.9611         estimate D2E/DX2                !
 ! A186  A(56,55,60)           108.886          estimate D2E/DX2                !
 ! A187  A(54,56,55)           121.115          estimate D2E/DX2                !
 ! A188  A(54,56,64)           119.6214         estimate D2E/DX2                !
 ! A189  A(55,56,64)           107.4395         estimate D2E/DX2                !
 ! A190  A(39,57,58)           107.5981         estimate D2E/DX2                !
 ! A191  A(39,57,60)           119.2219         estimate D2E/DX2                !
 ! A192  A(58,57,60)           120.0858         estimate D2E/DX2                !
 ! A193  A(42,58,57)           107.8098         estimate D2E/DX2                !
 ! A194  A(42,58,59)           119.3577         estimate D2E/DX2                !
 ! A195  A(57,58,59)           120.2591         estimate D2E/DX2                !
 ! A196  A(43,59,58)           120.4534         estimate D2E/DX2                !
 ! A197  A(43,59,65)           107.2328         estimate D2E/DX2                !
 ! A198  A(58,59,65)           119.521          estimate D2E/DX2                !
 ! A199  A(55,60,57)           120.6881         estimate D2E/DX2                !
 ! A200  A(55,60,66)           106.7805         estimate D2E/DX2                !
 ! A201  A(57,60,66)           119.7928         estimate D2E/DX2                !
 ! A202  A(46,61,62)           120.2355         estimate D2E/DX2                !
 ! A203  A(46,61,65)           107.6867         estimate D2E/DX2                !
 ! A204  A(62,61,65)           120.0587         estimate D2E/DX2                !
 ! A205  A(48,62,61)           120.9084         estimate D2E/DX2                !
 ! A206  A(48,62,63)           107.3392         estimate D2E/DX2                !
 ! A207  A(61,62,63)           120.3462         estimate D2E/DX2                !
 ! A208  A(50,63,62)           109.1527         estimate D2E/DX2                !
 ! A209  A(50,63,64)           121.5074         estimate D2E/DX2                !
 ! A210  A(62,63,64)           119.1547         estimate D2E/DX2                !
 ! A211  A(56,64,63)           118.5212         estimate D2E/DX2                !
 ! A212  A(56,64,66)           108.5871         estimate D2E/DX2                !
 ! A213  A(63,64,66)           120.9448         estimate D2E/DX2                !
 ! A214  A(59,65,61)           108.5704         estimate D2E/DX2                !
 ! A215  A(59,65,66)           119.9395         estimate D2E/DX2                !
 ! A216  A(61,65,66)           119.6867         estimate D2E/DX2                !
 ! A217  A(60,66,64)           108.2703         estimate D2E/DX2                !
 ! A218  A(60,66,65)           120.2751         estimate D2E/DX2                !
 ! A219  A(64,66,65)           119.6943         estimate D2E/DX2                !
 ! D1    D(4,1,2,3)              1.7278         estimate D2E/DX2                !
 ! D2    D(4,1,2,10)          -109.8449         estimate D2E/DX2                !
 ! D3    D(4,1,2,68)           127.5094         estimate D2E/DX2                !
 ! D4    D(7,1,2,3)            113.3853         estimate D2E/DX2                !
 ! D5    D(7,1,2,10)             1.8127         estimate D2E/DX2                !
 ! D6    D(7,1,2,68)          -120.833          estimate D2E/DX2                !
 ! D7    D(67,1,2,3)          -122.4256         estimate D2E/DX2                !
 ! D8    D(67,1,2,10)          126.0017         estimate D2E/DX2                !
 ! D9    D(67,1,2,68)            3.356          estimate D2E/DX2                !
 ! D10   D(2,1,4,5)              7.7003         estimate D2E/DX2                !
 ! D11   D(2,1,4,6)            123.6999         estimate D2E/DX2                !
 ! D12   D(2,1,4,73)          -112.5982         estimate D2E/DX2                !
 ! D13   D(7,1,4,5)           -111.2236         estimate D2E/DX2                !
 ! D14   D(7,1,4,6)              4.776          estimate D2E/DX2                !
 ! D15   D(7,1,4,73)           128.4778         estimate D2E/DX2                !
 ! D16   D(67,1,4,5)           131.3146         estimate D2E/DX2                !
 ! D17   D(67,1,4,6)          -112.6858         estimate D2E/DX2                !
 ! D18   D(67,1,4,73)           11.016          estimate D2E/DX2                !
 ! D19   D(2,1,7,8)           -126.1583         estimate D2E/DX2                !
 ! D20   D(2,1,7,9)             24.8287         estimate D2E/DX2                !
 ! D21   D(4,1,7,8)            -12.3639         estimate D2E/DX2                !
 ! D22   D(4,1,7,9)            138.6231         estimate D2E/DX2                !
 ! D23   D(67,1,7,8)           107.9363         estimate D2E/DX2                !
 ! D24   D(67,1,7,9)          -101.0767         estimate D2E/DX2                !
 ! D25   D(1,2,3,5)            -10.3837         estimate D2E/DX2                !
 ! D26   D(1,2,3,12)          -120.3083         estimate D2E/DX2                !
 ! D27   D(1,2,3,69)           112.9676         estimate D2E/DX2                !
 ! D28   D(10,2,3,5)           107.5873         estimate D2E/DX2                !
 ! D29   D(10,2,3,12)           -2.3373         estimate D2E/DX2                !
 ! D30   D(10,2,3,69)         -129.0614         estimate D2E/DX2                !
 ! D31   D(68,2,3,5)          -135.2446         estimate D2E/DX2                !
 ! D32   D(68,2,3,12)          114.8308         estimate D2E/DX2                !
 ! D33   D(68,2,3,69)          -11.8933         estimate D2E/DX2                !
 ! D34   D(1,2,10,11)          -28.1752         estimate D2E/DX2                !
 ! D35   D(1,2,10,13)          125.6663         estimate D2E/DX2                !
 ! D36   D(3,2,10,11)         -143.4969         estimate D2E/DX2                !
 ! D37   D(3,2,10,13)           10.3446         estimate D2E/DX2                !
 ! D38   D(68,2,10,11)          96.1382         estimate D2E/DX2                !
 ! D39   D(68,2,10,13)        -110.0202         estimate D2E/DX2                !
 ! D40   D(2,3,5,4)             16.5369         estimate D2E/DX2                !
 ! D41   D(2,3,5,15)          -144.6223         estimate D2E/DX2                !
 ! D42   D(12,3,5,4)           127.9903         estimate D2E/DX2                !
 ! D43   D(12,3,5,15)          -33.1689         estimate D2E/DX2                !
 ! D44   D(69,3,5,4)          -110.1316         estimate D2E/DX2                !
 ! D45   D(69,3,5,15)           88.7092         estimate D2E/DX2                !
 ! D46   D(2,3,12,13)           -6.2082         estimate D2E/DX2                !
 ! D47   D(2,3,12,14)          144.7631         estimate D2E/DX2                !
 ! D48   D(5,3,12,13)         -115.5332         estimate D2E/DX2                !
 ! D49   D(5,3,12,14)           35.4381         estimate D2E/DX2                !
 ! D50   D(69,3,12,13)         123.0923         estimate D2E/DX2                !
 ! D51   D(69,3,12,14)         -85.9364         estimate D2E/DX2                !
 ! D52   D(1,4,5,3)            -15.6905         estimate D2E/DX2                !
 ! D53   D(1,4,5,15)           145.4208         estimate D2E/DX2                !
 ! D54   D(6,4,5,3)           -129.1824         estimate D2E/DX2                !
 ! D55   D(6,4,5,15)            31.9289         estimate D2E/DX2                !
 ! D56   D(73,4,5,3)           108.4556         estimate D2E/DX2                !
 ! D57   D(73,4,5,15)          -90.433          estimate D2E/DX2                !
 ! D58   D(1,4,6,8)              4.2493         estimate D2E/DX2                !
 ! D59   D(1,4,6,17)          -145.4808         estimate D2E/DX2                !
 ! D60   D(5,4,6,8)            117.2136         estimate D2E/DX2                !
 ! D61   D(5,4,6,17)           -32.5165         estimate D2E/DX2                !
 ! D62   D(73,4,6,8)          -121.7557         estimate D2E/DX2                !
 ! D63   D(73,4,6,17)           88.5142         estimate D2E/DX2                !
 ! D64   D(3,5,15,16)           -2.6387         estimate D2E/DX2                !
 ! D65   D(3,5,15,18)          149.0179         estimate D2E/DX2                !
 ! D66   D(4,5,15,16)         -162.5054         estimate D2E/DX2                !
 ! D67   D(4,5,15,18)          -10.8488         estimate D2E/DX2                !
 ! D68   D(4,6,8,7)            -12.1724         estimate D2E/DX2                !
 ! D69   D(4,6,8,20)          -166.0523         estimate D2E/DX2                !
 ! D70   D(17,6,8,7)           138.4741         estimate D2E/DX2                !
 ! D71   D(17,6,8,20)          -15.4058         estimate D2E/DX2                !
 ! D72   D(4,6,17,18)           11.3134         estimate D2E/DX2                !
 ! D73   D(4,6,17,19)          165.5616         estimate D2E/DX2                !
 ! D74   D(8,6,17,18)         -135.4834         estimate D2E/DX2                !
 ! D75   D(8,6,17,19)           18.7648         estimate D2E/DX2                !
 ! D76   D(1,7,8,6)             15.7621         estimate D2E/DX2                !
 ! D77   D(1,7,8,20)           168.6627         estimate D2E/DX2                !
 ! D78   D(9,7,8,6)           -137.7592         estimate D2E/DX2                !
 ! D79   D(9,7,8,20)            15.1413         estimate D2E/DX2                !
 ! D80   D(1,7,9,11)           -26.6274         estimate D2E/DX2                !
 ! D81   D(1,7,9,22)          -172.6783         estimate D2E/DX2                !
 ! D82   D(8,7,9,11)           122.685          estimate D2E/DX2                !
 ! D83   D(8,7,9,22)           -23.3659         estimate D2E/DX2                !
 ! D84   D(6,8,20,21)            1.632          estimate D2E/DX2                !
 ! D85   D(6,8,20,23)          155.2196         estimate D2E/DX2                !
 ! D86   D(7,8,20,21)         -148.0411         estimate D2E/DX2                !
 ! D87   D(7,8,20,23)            5.5465         estimate D2E/DX2                !
 ! D88   D(7,9,11,10)           -0.1907         estimate D2E/DX2                !
 ! D89   D(7,9,11,25)         -146.4298         estimate D2E/DX2                !
 ! D90   D(22,9,11,10)         145.2994         estimate D2E/DX2                !
 ! D91   D(22,9,11,25)          -0.9397         estimate D2E/DX2                !
 ! D92   D(7,9,22,23)           12.6822         estimate D2E/DX2                !
 ! D93   D(7,9,22,24)          156.6516         estimate D2E/DX2                !
 ! D94   D(11,9,22,23)        -132.8409         estimate D2E/DX2                !
 ! D95   D(11,9,22,24)          11.1285         estimate D2E/DX2                !
 ! D96   D(2,10,11,9)           28.4532         estimate D2E/DX2                !
 ! D97   D(2,10,11,25)         175.3611         estimate D2E/DX2                !
 ! D98   D(13,10,11,9)        -124.1007         estimate D2E/DX2                !
 ! D99   D(13,10,11,25)         22.8071         estimate D2E/DX2                !
 ! D100  D(2,10,13,12)         -15.063          estimate D2E/DX2                !
 ! D101  D(2,10,13,27)        -169.8164         estimate D2E/DX2                !
 ! D102  D(11,10,13,12)        141.1            estimate D2E/DX2                !
 ! D103  D(11,10,13,27)        -13.6534         estimate D2E/DX2                !
 ! D104  D(9,11,25,26)          -9.6652         estimate D2E/DX2                !
 ! D105  D(9,11,25,28)         134.4957         estimate D2E/DX2                !
 ! D106  D(10,11,25,26)       -156.3581         estimate D2E/DX2                !
 ! D107  D(10,11,25,28)        -12.1972         estimate D2E/DX2                !
 ! D108  D(3,12,13,10)          12.8479         estimate D2E/DX2                !
 ! D109  D(3,12,13,27)         168.8025         estimate D2E/DX2                !
 ! D110  D(14,12,13,10)       -140.3682         estimate D2E/DX2                !
 ! D111  D(14,12,13,27)         15.5865         estimate D2E/DX2                !
 ! D112  D(3,12,14,16)          -0.0605         estimate D2E/DX2                !
 ! D113  D(3,12,14,29)        -165.1466         estimate D2E/DX2                !
 ! D114  D(13,12,14,16)        148.0929         estimate D2E/DX2                !
 ! D115  D(13,12,14,29)        -16.9931         estimate D2E/DX2                !
 ! D116  D(10,13,27,28)         -7.8764         estimate D2E/DX2                !
 ! D117  D(10,13,27,30)        148.1853         estimate D2E/DX2                !
 ! D118  D(12,13,27,28)       -159.8775         estimate D2E/DX2                !
 ! D119  D(12,13,27,30)         -3.8158         estimate D2E/DX2                !
 ! D120  D(12,14,16,15)        -35.1478         estimate D2E/DX2                !
 ! D121  D(12,14,16,32)       -143.5871         estimate D2E/DX2                !
 ! D122  D(12,14,16,70)         91.3997         estimate D2E/DX2                !
 ! D123  D(29,14,16,15)        129.6605         estimate D2E/DX2                !
 ! D124  D(29,14,16,32)         21.2212         estimate D2E/DX2                !
 ! D125  D(29,14,16,70)       -103.792          estimate D2E/DX2                !
 ! D126  D(12,14,29,30)          6.9227         estimate D2E/DX2                !
 ! D127  D(12,14,29,31)        175.9767         estimate D2E/DX2                !
 ! D128  D(16,14,29,30)       -157.5059         estimate D2E/DX2                !
 ! D129  D(16,14,29,31)         11.5482         estimate D2E/DX2                !
 ! D130  D(5,15,16,14)          38.6065         estimate D2E/DX2                !
 ! D131  D(5,15,16,32)         153.1488         estimate D2E/DX2                !
 ! D132  D(5,15,16,70)         -84.0738         estimate D2E/DX2                !
 ! D133  D(18,15,16,14)       -115.4057         estimate D2E/DX2                !
 ! D134  D(18,15,16,32)         -0.8634         estimate D2E/DX2                !
 ! D135  D(18,15,16,70)        121.914          estimate D2E/DX2                !
 ! D136  D(5,15,18,17)         -14.142          estimate D2E/DX2                !
 ! D137  D(5,15,18,33)        -159.46           estimate D2E/DX2                !
 ! D138  D(16,15,18,17)        141.1061         estimate D2E/DX2                !
 ! D139  D(16,15,18,33)         -4.2119         estimate D2E/DX2                !
 ! D140  D(14,16,32,33)        116.2272         estimate D2E/DX2                !
 ! D141  D(14,16,32,34)        -30.2966         estimate D2E/DX2                !
 ! D142  D(15,16,32,33)          5.5247         estimate D2E/DX2                !
 ! D143  D(15,16,32,34)       -140.9991         estimate D2E/DX2                !
 ! D144  D(70,16,32,33)       -119.9692         estimate D2E/DX2                !
 ! D145  D(70,16,32,34)         93.507          estimate D2E/DX2                !
 ! D146  D(6,17,18,15)          13.4685         estimate D2E/DX2                !
 ! D147  D(6,17,18,33)         154.4549         estimate D2E/DX2                !
 ! D148  D(19,17,18,15)       -140.4845         estimate D2E/DX2                !
 ! D149  D(19,17,18,33)          0.5019         estimate D2E/DX2                !
 ! D150  D(6,17,19,21)          -8.8578         estimate D2E/DX2                !
 ! D151  D(6,17,19,35)        -164.1506         estimate D2E/DX2                !
 ! D152  D(18,17,19,21)        144.3425         estimate D2E/DX2                !
 ! D153  D(18,17,19,35)        -10.9503         estimate D2E/DX2                !
 ! D154  D(15,18,33,32)          7.7733         estimate D2E/DX2                !
 ! D155  D(15,18,33,36)        152.9813         estimate D2E/DX2                !
 ! D156  D(17,18,33,32)       -137.2635         estimate D2E/DX2                !
 ! D157  D(17,18,33,36)          7.9446         estimate D2E/DX2                !
 ! D158  D(17,19,21,20)         -4.3951         estimate D2E/DX2                !
 ! D159  D(17,19,21,38)       -156.6113         estimate D2E/DX2                !
 ! D160  D(35,19,21,20)        150.3066         estimate D2E/DX2                !
 ! D161  D(35,19,21,38)         -1.9096         estimate D2E/DX2                !
 ! D162  D(17,19,35,36)         13.262          estimate D2E/DX2                !
 ! D163  D(17,19,35,37)        154.4246         estimate D2E/DX2                !
 ! D164  D(21,19,35,36)       -142.1958         estimate D2E/DX2                !
 ! D165  D(21,19,35,37)         -1.0331         estimate D2E/DX2                !
 ! D166  D(8,20,21,19)           7.9971         estimate D2E/DX2                !
 ! D167  D(8,20,21,38)         160.5549         estimate D2E/DX2                !
 ! D168  D(23,20,21,19)       -144.003          estimate D2E/DX2                !
 ! D169  D(23,20,21,38)          8.5548         estimate D2E/DX2                !
 ! D170  D(8,20,23,22)         -16.8435         estimate D2E/DX2                !
 ! D171  D(8,20,23,40)        -157.1658         estimate D2E/DX2                !
 ! D172  D(21,20,23,22)        136.421          estimate D2E/DX2                !
 ! D173  D(21,20,23,40)         -3.9014         estimate D2E/DX2                !
 ! D174  D(19,21,38,39)          3.3003         estimate D2E/DX2                !
 ! D175  D(19,21,38,42)        145.0362         estimate D2E/DX2                !
 ! D176  D(20,21,38,39)       -149.1975         estimate D2E/DX2                !
 ! D177  D(20,21,38,42)         -7.4616         estimate D2E/DX2                !
 ! D178  D(9,22,23,20)           8.4287         estimate D2E/DX2                !
 ! D179  D(9,22,23,40)         153.1688         estimate D2E/DX2                !
 ! D180  D(24,22,23,20)       -140.0211         estimate D2E/DX2                !
 ! D181  D(24,22,23,40)          4.719          estimate D2E/DX2                !
 ! D182  D(9,22,24,26)         -10.8941         estimate D2E/DX2                !
 ! D183  D(9,22,24,41)        -154.2217         estimate D2E/DX2                !
 ! D184  D(23,22,24,26)        137.8708         estimate D2E/DX2                !
 ! D185  D(23,22,24,41)         -5.4567         estimate D2E/DX2                !
 ! D186  D(20,23,40,41)        141.9547         estimate D2E/DX2                !
 ! D187  D(20,23,40,42)         -2.1929         estimate D2E/DX2                !
 ! D188  D(22,23,40,41)         -2.2471         estimate D2E/DX2                !
 ! D189  D(22,23,40,42)       -146.3948         estimate D2E/DX2                !
 ! D190  D(22,24,26,25)          0.0755         estimate D2E/DX2                !
 ! D191  D(22,24,26,44)       -138.4509         estimate D2E/DX2                !
 ! D192  D(41,24,26,25)        139.5404         estimate D2E/DX2                !
 ! D193  D(41,24,26,44)          1.014          estimate D2E/DX2                !
 ! D194  D(22,24,41,40)          4.0621         estimate D2E/DX2                !
 ! D195  D(22,24,41,43)        143.8079         estimate D2E/DX2                !
 ! D196  D(26,24,41,40)       -139.3497         estimate D2E/DX2                !
 ! D197  D(26,24,41,43)          0.3961         estimate D2E/DX2                !
 ! D198  D(11,25,26,24)         10.2101         estimate D2E/DX2                !
 ! D199  D(11,25,26,44)        152.9168         estimate D2E/DX2                !
 ! D200  D(28,25,26,24)       -138.6673         estimate D2E/DX2                !
 ! D201  D(28,25,26,44)          4.0394         estimate D2E/DX2                !
 ! D202  D(11,25,28,27)         -9.5829         estimate D2E/DX2                !
 ! D203  D(11,25,28,45)       -152.4449         estimate D2E/DX2                !
 ! D204  D(26,25,28,27)        138.9817         estimate D2E/DX2                !
 ! D205  D(26,25,28,45)         -3.8803         estimate D2E/DX2                !
 ! D206  D(24,26,44,45)        139.6491         estimate D2E/DX2                !
 ! D207  D(24,26,44,46)         -2.1334         estimate D2E/DX2                !
 ! D208  D(25,26,44,45)         -2.6311         estimate D2E/DX2                !
 ! D209  D(25,26,44,46)       -144.4136         estimate D2E/DX2                !
 ! D210  D(13,27,28,25)         18.8783         estimate D2E/DX2                !
 ! D211  D(13,27,28,45)        157.8005         estimate D2E/DX2                !
 ! D212  D(30,27,28,25)       -136.4407         estimate D2E/DX2                !
 ! D213  D(30,27,28,45)          2.4815         estimate D2E/DX2                !
 ! D214  D(13,27,30,29)         -6.2906         estimate D2E/DX2                !
 ! D215  D(13,27,30,47)       -173.9846         estimate D2E/DX2                !
 ! D216  D(28,27,30,29)        147.9967         estimate D2E/DX2                !
 ! D217  D(28,27,30,47)        -19.6973         estimate D2E/DX2                !
 ! D218  D(25,28,45,44)          2.2782         estimate D2E/DX2                !
 ! D219  D(25,28,45,48)        146.583          estimate D2E/DX2                !
 ! D220  D(27,28,45,44)       -140.2784         estimate D2E/DX2                !
 ! D221  D(27,28,45,48)          4.0263         estimate D2E/DX2                !
 ! D222  D(14,29,30,27)          4.7818         estimate D2E/DX2                !
 ! D223  D(14,29,30,47)        171.7991         estimate D2E/DX2                !
 ! D224  D(31,29,30,27)       -163.9895         estimate D2E/DX2                !
 ! D225  D(31,29,30,47)          3.0278         estimate D2E/DX2                !
 ! D226  D(14,29,31,34)        -35.7033         estimate D2E/DX2                !
 ! D227  D(14,29,31,49)       -146.2455         estimate D2E/DX2                !
 ! D228  D(14,29,31,71)         89.1205         estimate D2E/DX2                !
 ! D229  D(30,29,31,34)        133.1855         estimate D2E/DX2                !
 ! D230  D(30,29,31,49)         22.6434         estimate D2E/DX2                !
 ! D231  D(30,29,31,71)       -101.9906         estimate D2E/DX2                !
 ! D232  D(27,30,47,48)         28.6623         estimate D2E/DX2                !
 ! D233  D(27,30,47,50)        141.1993         estimate D2E/DX2                !
 ! D234  D(27,30,47,72)        -96.0776         estimate D2E/DX2                !
 ! D235  D(29,30,47,48)       -138.6558         estimate D2E/DX2                !
 ! D236  D(29,30,47,50)        -26.1187         estimate D2E/DX2                !
 ! D237  D(29,30,47,72)         96.6044         estimate D2E/DX2                !
 ! D238  D(29,31,34,32)         28.534          estimate D2E/DX2                !
 ! D239  D(29,31,34,51)       -123.2674         estimate D2E/DX2                !
 ! D240  D(49,31,34,32)        145.5623         estimate D2E/DX2                !
 ! D241  D(49,31,34,51)         -6.2391         estimate D2E/DX2                !
 ! D242  D(71,31,34,32)        -92.8527         estimate D2E/DX2                !
 ! D243  D(71,31,34,51)        115.3459         estimate D2E/DX2                !
 ! D244  D(29,31,49,50)        -25.7767         estimate D2E/DX2                !
 ! D245  D(29,31,49,54)        124.2034         estimate D2E/DX2                !
 ! D246  D(34,31,49,50)       -141.9657         estimate D2E/DX2                !
 ! D247  D(34,31,49,54)          8.0144         estimate D2E/DX2                !
 ! D248  D(71,31,49,50)         95.9256         estimate D2E/DX2                !
 ! D249  D(71,31,49,54)       -114.0944         estimate D2E/DX2                !
 ! D250  D(16,32,33,18)         -8.5306         estimate D2E/DX2                !
 ! D251  D(16,32,33,36)       -152.779          estimate D2E/DX2                !
 ! D252  D(34,32,33,18)        139.5202         estimate D2E/DX2                !
 ! D253  D(34,32,33,36)         -4.7281         estimate D2E/DX2                !
 ! D254  D(16,32,34,31)          5.1048         estimate D2E/DX2                !
 ! D255  D(16,32,34,51)        154.4642         estimate D2E/DX2                !
 ! D256  D(33,32,34,31)       -138.6868         estimate D2E/DX2                !
 ! D257  D(33,32,34,51)         10.6726         estimate D2E/DX2                !
 ! D258  D(18,33,36,35)         -5.7496         estimate D2E/DX2                !
 ! D259  D(18,33,36,52)       -146.3022         estimate D2E/DX2                !
 ! D260  D(32,33,36,35)        135.1629         estimate D2E/DX2                !
 ! D261  D(32,33,36,52)         -5.3897         estimate D2E/DX2                !
 ! D262  D(31,34,51,52)        145.8229         estimate D2E/DX2                !
 ! D263  D(31,34,51,54)          2.4494         estimate D2E/DX2                !
 ! D264  D(32,34,51,52)         -6.853          estimate D2E/DX2                !
 ! D265  D(32,34,51,54)       -150.2264         estimate D2E/DX2                !
 ! D266  D(19,35,36,33)         -5.2305         estimate D2E/DX2                !
 ! D267  D(19,35,36,52)        138.8084         estimate D2E/DX2                !
 ! D268  D(37,35,36,33)       -151.1578         estimate D2E/DX2                !
 ! D269  D(37,35,36,52)         -7.1188         estimate D2E/DX2                !
 ! D270  D(19,35,37,39)          2.6922         estimate D2E/DX2                !
 ! D271  D(19,35,37,53)       -140.5494         estimate D2E/DX2                !
 ! D272  D(36,35,37,39)        148.4402         estimate D2E/DX2                !
 ! D273  D(36,35,37,53)          5.1986         estimate D2E/DX2                !
 ! D274  D(33,36,52,51)          9.241          estimate D2E/DX2                !
 ! D275  D(33,36,52,53)        150.9386         estimate D2E/DX2                !
 ! D276  D(35,36,52,51)       -135.5305         estimate D2E/DX2                !
 ! D277  D(35,36,52,53)          6.167          estimate D2E/DX2                !
 ! D278  D(35,37,39,38)         -1.3157         estimate D2E/DX2                !
 ! D279  D(35,37,39,57)       -139.9888         estimate D2E/DX2                !
 ! D280  D(53,37,39,38)        137.0353         estimate D2E/DX2                !
 ! D281  D(53,37,39,57)         -1.6379         estimate D2E/DX2                !
 ! D282  D(35,37,53,52)         -1.4672         estimate D2E/DX2                !
 ! D283  D(35,37,53,55)        139.6836         estimate D2E/DX2                !
 ! D284  D(39,37,53,52)       -144.2332         estimate D2E/DX2                !
 ! D285  D(39,37,53,55)         -3.0825         estimate D2E/DX2                !
 ! D286  D(21,38,39,37)         -1.6914         estimate D2E/DX2                !
 ! D287  D(21,38,39,57)        141.123          estimate D2E/DX2                !
 ! D288  D(42,38,39,37)       -148.1103         estimate D2E/DX2                !
 ! D289  D(42,38,39,57)         -5.2959         estimate D2E/DX2                !
 ! D290  D(21,38,42,40)          1.612          estimate D2E/DX2                !
 ! D291  D(21,38,42,58)       -140.9965         estimate D2E/DX2                !
 ! D292  D(39,38,42,40)        148.0639         estimate D2E/DX2                !
 ! D293  D(39,38,42,58)          5.4554         estimate D2E/DX2                !
 ! D294  D(37,39,57,58)        145.7869         estimate D2E/DX2                !
 ! D295  D(37,39,57,60)          4.5241         estimate D2E/DX2                !
 ! D296  D(38,39,57,58)          3.1281         estimate D2E/DX2                !
 ! D297  D(38,39,57,60)       -138.1348         estimate D2E/DX2                !
 ! D298  D(23,40,41,24)         -1.1147         estimate D2E/DX2                !
 ! D299  D(23,40,41,43)       -141.5101         estimate D2E/DX2                !
 ! D300  D(42,40,41,24)        142.249          estimate D2E/DX2                !
 ! D301  D(42,40,41,43)          1.8536         estimate D2E/DX2                !
 ! D302  D(23,40,42,38)          3.3418         estimate D2E/DX2                !
 ! D303  D(23,40,42,58)        141.7566         estimate D2E/DX2                !
 ! D304  D(41,40,42,38)       -136.31           estimate D2E/DX2                !
 ! D305  D(41,40,42,58)          2.1048         estimate D2E/DX2                !
 ! D306  D(24,41,43,46)         -0.7141         estimate D2E/DX2                !
 ! D307  D(24,41,43,59)       -138.321          estimate D2E/DX2                !
 ! D308  D(40,41,43,46)        134.04           estimate D2E/DX2                !
 ! D309  D(40,41,43,59)         -3.5668         estimate D2E/DX2                !
 ! D310  D(38,42,58,57)         -3.5562         estimate D2E/DX2                !
 ! D311  D(38,42,58,59)        138.4397         estimate D2E/DX2                !
 ! D312  D(40,42,58,57)       -146.3264         estimate D2E/DX2                !
 ! D313  D(40,42,58,59)         -4.3306         estimate D2E/DX2                !
 ! D314  D(41,43,46,44)         -0.4058         estimate D2E/DX2                !
 ! D315  D(41,43,46,61)       -141.6159         estimate D2E/DX2                !
 ! D316  D(59,43,46,44)        141.7563         estimate D2E/DX2                !
 ! D317  D(59,43,46,61)          0.5462         estimate D2E/DX2                !
 ! D318  D(41,43,59,58)          1.3312         estimate D2E/DX2                !
 ! D319  D(41,43,59,65)        142.6683         estimate D2E/DX2                !
 ! D320  D(46,43,59,58)       -140.4978         estimate D2E/DX2                !
 ! D321  D(46,43,59,65)          0.8393         estimate D2E/DX2                !
 ! D322  D(26,44,45,28)          0.2466         estimate D2E/DX2                !
 ! D323  D(26,44,45,48)       -143.2996         estimate D2E/DX2                !
 ! D324  D(46,44,45,28)        141.9935         estimate D2E/DX2                !
 ! D325  D(46,44,45,48)         -1.5528         estimate D2E/DX2                !
 ! D326  D(26,44,46,43)          1.8139         estimate D2E/DX2                !
 ! D327  D(26,44,46,61)        139.1354         estimate D2E/DX2                !
 ! D328  D(45,44,46,43)       -135.0026         estimate D2E/DX2                !
 ! D329  D(45,44,46,61)          2.3188         estimate D2E/DX2                !
 ! D330  D(28,45,48,47)          7.8508         estimate D2E/DX2                !
 ! D331  D(28,45,48,62)       -139.7661         estimate D2E/DX2                !
 ! D332  D(44,45,48,47)        147.0293         estimate D2E/DX2                !
 ! D333  D(44,45,48,62)         -0.5875         estimate D2E/DX2                !
 ! D334  D(43,46,61,62)        140.8708         estimate D2E/DX2                !
 ! D335  D(43,46,61,65)         -1.7257         estimate D2E/DX2                !
 ! D336  D(44,46,61,62)         -1.0101         estimate D2E/DX2                !
 ! D337  D(44,46,61,65)       -143.6066         estimate D2E/DX2                !
 ! D338  D(30,47,48,45)        -23.826          estimate D2E/DX2                !
 ! D339  D(30,47,48,62)        125.7308         estimate D2E/DX2                !
 ! D340  D(50,47,48,45)       -141.9271         estimate D2E/DX2                !
 ! D341  D(50,47,48,62)          7.6297         estimate D2E/DX2                !
 ! D342  D(72,47,48,45)         96.393          estimate D2E/DX2                !
 ! D343  D(72,47,48,62)       -114.0502         estimate D2E/DX2                !
 ! D344  D(30,47,50,49)         23.5015         estimate D2E/DX2                !
 ! D345  D(30,47,50,63)       -126.3127         estimate D2E/DX2                !
 ! D346  D(48,47,50,49)        142.9873         estimate D2E/DX2                !
 ! D347  D(48,47,50,63)         -6.8269         estimate D2E/DX2                !
 ! D348  D(72,47,50,49)        -94.8512         estimate D2E/DX2                !
 ! D349  D(72,47,50,63)        115.3345         estimate D2E/DX2                !
 ! D350  D(45,48,62,61)          1.9135         estimate D2E/DX2                !
 ! D351  D(45,48,62,63)        145.408          estimate D2E/DX2                !
 ! D352  D(47,48,62,61)       -149.2099         estimate D2E/DX2                !
 ! D353  D(47,48,62,63)         -5.7155         estimate D2E/DX2                !
 ! D354  D(31,49,50,47)          2.3153         estimate D2E/DX2                !
 ! D355  D(31,49,50,63)        149.208          estimate D2E/DX2                !
 ! D356  D(54,49,50,47)       -145.4747         estimate D2E/DX2                !
 ! D357  D(54,49,50,63)          1.418          estimate D2E/DX2                !
 ! D358  D(31,49,54,51)         -7.108          estimate D2E/DX2                !
 ! D359  D(31,49,54,56)       -151.0672         estimate D2E/DX2                !
 ! D360  D(50,49,54,51)        144.2337         estimate D2E/DX2                !
 ! D361  D(50,49,54,56)          0.2745         estimate D2E/DX2                !
 ! D362  D(47,50,63,62)          3.9039         estimate D2E/DX2                !
 ! D363  D(47,50,63,64)        148.7679         estimate D2E/DX2                !
 ! D364  D(49,50,63,62)       -146.6542         estimate D2E/DX2                !
 ! D365  D(49,50,63,64)         -1.7902         estimate D2E/DX2                !
 ! D366  D(34,51,52,36)         -3.3797         estimate D2E/DX2                !
 ! D367  D(34,51,52,53)       -139.6176         estimate D2E/DX2                !
 ! D368  D(54,51,52,36)        135.9755         estimate D2E/DX2                !
 ! D369  D(54,51,52,53)         -0.2625         estimate D2E/DX2                !
 ! D370  D(34,51,54,49)          2.8162         estimate D2E/DX2                !
 ! D371  D(34,51,54,56)        147.5112         estimate D2E/DX2                !
 ! D372  D(52,51,54,49)       -141.1512         estimate D2E/DX2                !
 ! D373  D(52,51,54,56)          3.5438         estimate D2E/DX2                !
 ! D374  D(36,52,53,37)         -2.8806         estimate D2E/DX2                !
 ! D375  D(36,52,53,55)       -143.8694         estimate D2E/DX2                !
 ! D376  D(51,52,53,37)        137.8161         estimate D2E/DX2                !
 ! D377  D(51,52,53,55)         -3.1728         estimate D2E/DX2                !
 ! D378  D(37,53,55,56)       -133.6336         estimate D2E/DX2                !
 ! D379  D(37,53,55,60)          4.8549         estimate D2E/DX2                !
 ! D380  D(52,53,55,56)          3.2327         estimate D2E/DX2                !
 ! D381  D(52,53,55,60)        141.7213         estimate D2E/DX2                !
 ! D382  D(49,54,56,55)        136.584          estimate D2E/DX2                !
 ! D383  D(49,54,56,64)         -1.6504         estimate D2E/DX2                !
 ! D384  D(51,54,56,55)         -3.4768         estimate D2E/DX2                !
 ! D385  D(51,54,56,64)       -141.7112         estimate D2E/DX2                !
 ! D386  D(53,55,56,54)          0.0442         estimate D2E/DX2                !
 ! D387  D(53,55,56,64)        142.6762         estimate D2E/DX2                !
 ! D388  D(60,55,56,54)       -142.5921         estimate D2E/DX2                !
 ! D389  D(60,55,56,64)          0.0398         estimate D2E/DX2                !
 ! D390  D(53,55,60,57)         -1.9786         estimate D2E/DX2                !
 ! D391  D(53,55,60,66)       -143.4627         estimate D2E/DX2                !
 ! D392  D(56,55,60,57)        140.2925         estimate D2E/DX2                !
 ! D393  D(56,55,60,66)         -1.1916         estimate D2E/DX2                !
 ! D394  D(54,56,64,63)          1.2826         estimate D2E/DX2                !
 ! D395  D(54,56,64,66)        144.431          estimate D2E/DX2                !
 ! D396  D(55,56,64,63)       -142.0098         estimate D2E/DX2                !
 ! D397  D(55,56,64,66)          1.1386         estimate D2E/DX2                !
 ! D398  D(39,57,58,42)          0.281          estimate D2E/DX2                !
 ! D399  D(39,57,58,59)       -141.3084         estimate D2E/DX2                !
 ! D400  D(60,57,58,42)        141.1464         estimate D2E/DX2                !
 ! D401  D(60,57,58,59)         -0.443          estimate D2E/DX2                !
 ! D402  D(39,57,60,55)         -2.7483         estimate D2E/DX2                !
 ! D403  D(39,57,60,66)        133.8571         estimate D2E/DX2                !
 ! D404  D(58,57,60,55)       -139.1709         estimate D2E/DX2                !
 ! D405  D(58,57,60,66)         -2.5655         estimate D2E/DX2                !
 ! D406  D(42,58,59,43)          2.6347         estimate D2E/DX2                !
 ! D407  D(42,58,59,65)       -134.0735         estimate D2E/DX2                !
 ! D408  D(57,58,59,43)        139.8943         estimate D2E/DX2                !
 ! D409  D(57,58,59,65)          3.1862         estimate D2E/DX2                !
 ! D410  D(43,59,65,61)         -1.9133         estimate D2E/DX2                !
 ! D411  D(43,59,65,66)       -144.7021         estimate D2E/DX2                !
 ! D412  D(58,59,65,61)        139.8511         estimate D2E/DX2                !
 ! D413  D(58,59,65,66)         -2.9377         estimate D2E/DX2                !
 ! D414  D(55,60,66,64)          1.8823         estimate D2E/DX2                !
 ! D415  D(55,60,66,65)        144.7063         estimate D2E/DX2                !
 ! D416  D(57,60,66,64)       -140.0141         estimate D2E/DX2                !
 ! D417  D(57,60,66,65)          2.8098         estimate D2E/DX2                !
 ! D418  D(46,61,62,48)         -1.1323         estimate D2E/DX2                !
 ! D419  D(46,61,62,63)       -139.983          estimate D2E/DX2                !
 ! D420  D(65,61,62,48)        136.9058         estimate D2E/DX2                !
 ! D421  D(65,61,62,63)         -1.9448         estimate D2E/DX2                !
 ! D422  D(46,61,65,59)          2.2563         estimate D2E/DX2                !
 ! D423  D(46,61,65,66)        145.1549         estimate D2E/DX2                !
 ! D424  D(62,61,65,59)       -140.4186         estimate D2E/DX2                !
 ! D425  D(62,61,65,66)          2.48           estimate D2E/DX2                !
 ! D426  D(48,62,63,50)          1.0785         estimate D2E/DX2                !
 ! D427  D(48,62,63,64)       -144.7374         estimate D2E/DX2                !
 ! D428  D(61,62,63,50)        144.8181         estimate D2E/DX2                !
 ! D429  D(61,62,63,64)         -0.9977         estimate D2E/DX2                !
 ! D430  D(50,63,64,56)          0.3994         estimate D2E/DX2                !
 ! D431  D(50,63,64,66)       -138.0866         estimate D2E/DX2                !
 ! D432  D(62,63,64,56)        141.8981         estimate D2E/DX2                !
 ! D433  D(62,63,64,66)          3.4121         estimate D2E/DX2                !
 ! D434  D(56,64,66,60)         -1.8966         estimate D2E/DX2                !
 ! D435  D(56,64,66,65)       -144.9736         estimate D2E/DX2                !
 ! D436  D(63,64,66,60)        140.1941         estimate D2E/DX2                !
 ! D437  D(63,64,66,65)         -2.8829         estimate D2E/DX2                !
[...]
    11 C(13)  Bbb    -0.0141    -1.896    -0.676    -0.632  0.8300  0.1901  0.5243
              Bcc     0.0308     4.138     1.476     1.380 -0.4632 -0.2886  0.8379
 
              Baa    -0.0120    -1.604    -0.572    -0.535 -0.5760  0.7224  0.3826
    12 C(13)  Bbb     0.0013     0.180     0.064     0.060 -0.2009 -0.5788  0.7903
              Bcc     0.0106     1.424     0.508     0.475  0.7924  0.3784  0.4785
 
              Baa    -0.0075    -1.008    -0.360    -0.336  0.5471  0.7957 -0.2599
    13 C(13)  Bbb    -0.0059    -0.788    -0.281    -0.263  0.7060 -0.2717  0.6541
              Bcc     0.0134     1.796     0.641     0.599 -0.4498  0.5413  0.7104
 
              Baa    -0.0049    -0.664    -0.237    -0.221  0.3731 -0.2217  0.9009
    14 C(13)  Bbb    -0.0043    -0.580    -0.207    -0.193  0.8971  0.3341 -0.2893
              Bcc     0.0093     1.243     0.444     0.415 -0.2368  0.9161  0.3236
 
              Baa    -0.0654    -8.771    -3.130    -2.926  0.6304 -0.3842  0.6745
    15 C(13)  Bbb     0.0264     3.542     1.264     1.182  0.3482  0.9166  0.1965
              Bcc     0.0390     5.229     1.866     1.744 -0.6938  0.1110  0.7116
 
              Baa    -0.0026    -0.349    -0.125    -0.116  0.5051 -0.3057  0.8071
    16 C(13)  Bbb    -0.0006    -0.078    -0.028    -0.026  0.8615  0.2350 -0.4501
              Bcc     0.0032     0.427     0.152     0.142 -0.0520  0.9227  0.3821
 
              Baa    -0.1128   -15.133    -5.400    -5.048  0.5048  0.2177  0.8353
    17 C(13)  Bbb     0.0482     6.462     2.306     2.156  0.7094 -0.6559 -0.2578
              Bcc     0.0646     8.671     3.094     2.892  0.4918  0.7228 -0.4855
 
              Baa    -0.1468   -19.705    -7.031    -6.573 -0.2755  0.8848  0.3758
    18 C(13)  Bbb    -0.1388   -18.627    -6.647    -6.213  0.7737  0.4361 -0.4595
              Bcc     0.2857    38.332    13.678    12.786  0.5705 -0.1642  0.8047
 
              Baa    -0.0306    -4.105    -1.465    -1.369 -0.0835  0.8974 -0.4333
    19 C(13)  Bbb    -0.0262    -3.519    -1.256    -1.174  0.9279 -0.0886 -0.3622
              Bcc     0.0568     7.625     2.721     2.543  0.3634  0.4323  0.8252
 
              Baa    -0.0300    -4.025    -1.436    -1.343 -0.2056 -0.4041  0.8913
    20 C(13)  Bbb    -0.0275    -3.688    -1.316    -1.230  0.9348 -0.3506  0.0567
              Bcc     0.0575     7.713     2.752     2.573  0.2896  0.8448  0.4499
 
              Baa    -0.0438    -5.875    -2.096    -1.960  0.2783  0.6677  0.6905
    21 C(13)  Bbb     0.0184     2.467     0.880     0.823 -0.1848 -0.6682  0.7207
              Bcc     0.0254     3.408     1.216     1.137  0.9426 -0.3281 -0.0625
 
              Baa    -0.0854   -11.463    -4.090    -3.824 -0.5053  0.5214  0.6876
    22 C(13)  Bbb    -0.0792   -10.622    -3.790    -3.543  0.7395 -0.1490  0.6564
              Bcc     0.1646    22.085     7.880     7.367  0.4447  0.8402 -0.3103
 
              Baa    -0.0585    -7.851    -2.801    -2.619  0.3945  0.9163  0.0683
    23 C(13)  Bbb     0.0278     3.737     1.333     1.246  0.7643 -0.3685  0.5292
              Bcc     0.0307     4.114     1.468     1.372 -0.5101  0.1566  0.8457
 
              Baa    -0.0264    -3.547    -1.266    -1.183  0.2368  0.7963 -0.5567
    24 C(13)  Bbb     0.0091     1.226     0.437     0.409  0.6303 -0.5619 -0.5357
              Bcc     0.0173     2.322     0.828     0.774  0.7393  0.2241  0.6350
 
              Baa    -0.0189    -2.531    -0.903    -0.844 -0.2717 -0.2113  0.9389
    25 C(13)  Bbb     0.0091     1.220     0.435     0.407  0.9322  0.1846  0.3113
              Bcc     0.0098     1.311     0.468     0.437 -0.2391  0.9598  0.1468
 
              Baa    -0.0324    -4.353    -1.553    -1.452 -0.4858  0.7784  0.3975
    26 C(13)  Bbb    -0.0294    -3.947    -1.408    -1.317  0.8685  0.3789  0.3194
              Bcc     0.0619     8.300     2.962     2.769 -0.0980 -0.5004  0.8602
 
              Baa    -0.0106    -1.425    -0.508    -0.475 -0.3262  0.5546  0.7655
    27 C(13)  Bbb     0.0046     0.611     0.218     0.204  0.1321  0.8286 -0.5440
              Bcc     0.0061     0.814     0.290     0.271  0.9360  0.0763  0.3436
 
              Baa    -0.0089    -1.188    -0.424    -0.396 -0.0950  0.9367 -0.3371
    28 C(13)  Bbb    -0.0083    -1.109    -0.396    -0.370  0.9650  0.1698  0.2000
              Bcc     0.0171     2.297     0.820     0.766 -0.2446  0.3063  0.9200
 
              Baa    -0.0103    -1.377    -0.491    -0.459 -0.3302  0.8420  0.4265
    29 C(13)  Bbb     0.0040     0.542     0.193     0.181 -0.5196 -0.5394  0.6626
              Bcc     0.0062     0.835     0.298     0.279  0.7880 -0.0028  0.6157
 
              Baa    -0.0048    -0.645    -0.230    -0.215 -0.0940 -0.6317  0.7695
    30 C(13)  Bbb    -0.0029    -0.386    -0.138    -0.129  0.9895  0.0261  0.1423
              Bcc     0.0077     1.031     0.368     0.344 -0.1099  0.7748  0.6226
 
              Baa    -0.0009    -0.119    -0.043    -0.040 -0.3381 -0.2997  0.8921
    31 C(13)  Bbb    -0.0002    -0.030    -0.011    -0.010  0.8626 -0.4778  0.1664
              Bcc     0.0011     0.149     0.053     0.050  0.3764  0.8258  0.4201
 
              Baa    -0.0301    -4.036    -1.440    -1.346  0.7675  0.4885  0.4151
    32 C(13)  Bbb    -0.0292    -3.920    -1.399    -1.307 -0.6112  0.3622  0.7037
              Bcc     0.0593     7.955     2.839     2.654 -0.1934  0.7938 -0.5766
 
              Baa    -0.0664    -8.915    -3.181    -2.974  0.3598 -0.4317  0.8272
    33 C(13)  Bbb     0.0270     3.619     1.291     1.207 -0.1132  0.8598  0.4980
              Bcc     0.0395     5.297     1.890     1.767  0.9261  0.2728 -0.2605
 
              Baa    -0.0471    -6.316    -2.254    -2.107  0.0086  0.9226 -0.3856
    34 C(13)  Bbb     0.0217     2.913     1.039     0.972 -0.1351  0.3832  0.9137
              Bcc     0.0254     3.403     1.214     1.135  0.9908  0.0442  0.1280
 
              Baa    -0.0661    -8.869    -3.165    -2.958  0.1858  0.2074  0.9604
    35 C(13)  Bbb     0.0322     4.327     1.544     1.443  0.9768  0.0669 -0.2034
              Bcc     0.0338     4.542     1.621     1.515 -0.1064  0.9760 -0.1902
 
              Baa    -0.0773   -10.369    -3.700    -3.459 -0.3045  0.9189  0.2509
    36 C(13)  Bbb    -0.0725    -9.728    -3.471    -3.245  0.9440  0.3262 -0.0489
              Bcc     0.1498    20.096     7.171     6.703  0.1268 -0.2220  0.9668
 
              Baa    -0.0228    -3.060    -1.092    -1.021  0.8637 -0.3890  0.3206
    37 C(13)  Bbb    -0.0207    -2.774    -0.990    -0.925  0.4515  0.8798 -0.1488
              Bcc     0.0435     5.835     2.082     1.946 -0.2242  0.2732  0.9355
 
              Baa    -0.0463    -6.209    -2.216    -2.071  0.8301 -0.3578  0.4277
    38 C(13)  Bbb    -0.0458    -6.152    -2.195    -2.052 -0.5576 -0.5459  0.6254
              Bcc     0.0921    12.362     4.411     4.123 -0.0097  0.7576  0.6526
 
              Baa    -0.0319    -4.281    -1.528    -1.428 -0.2256  0.5627  0.7953
    39 C(13)  Bbb     0.0142     1.907     0.680     0.636  0.7766 -0.3890  0.4956
              Bcc     0.0177     2.374     0.847     0.792  0.5882  0.7294 -0.3492
 
              Baa    -0.0221    -2.961    -1.057    -0.988  0.9792  0.0849 -0.1842
    40 C(13)  Bbb    -0.0208    -2.790    -0.996    -0.931  0.1933 -0.1161  0.9742
              Bcc     0.0429     5.751     2.052     1.918 -0.0613  0.9896  0.1301
 
              Baa    -0.0064    -0.856    -0.306    -0.286 -0.4688  0.3512  0.8105
    41 C(13)  Bbb    -0.0052    -0.692    -0.247    -0.231  0.8248  0.5024  0.2594
              Bcc     0.0115     1.549     0.553     0.517 -0.3161  0.7901 -0.5252
 
              Baa    -0.0334    -4.475    -1.597    -1.493 -0.1852  0.9036  0.3862
    42 C(13)  Bbb     0.0153     2.049     0.731     0.683  0.9671  0.2372 -0.0914
              Bcc     0.0181     2.427     0.866     0.809  0.1742 -0.3566  0.9179
 
              Baa    -0.0031    -0.419    -0.150    -0.140 -0.3931 -0.1680  0.9040
    43 C(13)  Bbb    -0.0013    -0.171    -0.061    -0.057  0.6984  0.5850  0.4124
              Bcc     0.0044     0.591     0.211     0.197 -0.5981  0.7935 -0.1126
 
              Baa    -0.0034    -0.452    -0.161    -0.151 -0.0602  0.9981 -0.0108
    44 C(13)  Bbb    -0.0024    -0.322    -0.115    -0.107  0.7714  0.0396 -0.6351
              Bcc     0.0058     0.774     0.276     0.258  0.6335  0.0466  0.7724
 
              Baa    -0.0038    -0.507    -0.181    -0.169  0.7047 -0.6881 -0.1730
    45 C(13)  Bbb    -0.0025    -0.334    -0.119    -0.111  0.6573  0.7249 -0.2063
              Bcc     0.0063     0.841     0.300     0.281  0.2673  0.0317  0.9631
 
              Baa    -0.0092    -1.237    -0.441    -0.413 -0.2472  0.7852  0.5677
    46 C(13)  Bbb    -0.0085    -1.141    -0.407    -0.381  0.7840  0.5064 -0.3590
              Bcc     0.0177     2.378     0.849     0.793  0.5694 -0.3564  0.7408
 
              Baa    -0.0002    -0.031    -0.011    -0.010  0.0986 -0.4046  0.9092
    47 C(13)  Bbb     0.0001     0.009     0.003     0.003 -0.5912  0.7111  0.3806
              Bcc     0.0002     0.022     0.008     0.007  0.8005  0.5750  0.1691
 
              Baa    -0.0028    -0.374    -0.133    -0.125 -0.4883  0.8491 -0.2015
    48 C(13)  Bbb    -0.0021    -0.281    -0.100    -0.094  0.7051  0.2478 -0.6644
              Bcc     0.0049     0.655     0.234     0.219  0.5142  0.4665  0.7197
 
              Baa    -0.0041    -0.557    -0.199    -0.186  0.8887 -0.4479 -0.0979
    49 C(13)  Bbb    -0.0028    -0.372    -0.133    -0.124  0.1059 -0.0073  0.9944
              Bcc     0.0069     0.928     0.331     0.310  0.4460  0.8941 -0.0409
 
              Baa    -0.0029    -0.393    -0.140    -0.131  0.7609 -0.4753 -0.4418
    50 C(13)  Bbb    -0.0023    -0.314    -0.112    -0.105  0.0943 -0.5927  0.7999
              Bcc     0.0053     0.707     0.252     0.236  0.6420  0.6503  0.4062
 
              Baa    -0.0392    -5.259    -1.876    -1.754 -0.5094  0.5807  0.6351
    51 C(13)  Bbb    -0.0348    -4.671    -1.667    -1.558  0.8227  0.1121  0.5574
              Bcc     0.0740     9.930     3.543     3.312  0.2524  0.8064 -0.5348
 
              Baa    -0.0349    -4.684    -1.671    -1.562 -0.1600 -0.4981  0.8522
    52 C(13)  Bbb     0.0138     1.848     0.660     0.617 -0.6146  0.7258  0.3089
              Bcc     0.0211     2.835     1.012     0.946  0.7724  0.4744  0.4223
 
              Baa    -0.0043    -0.583    -0.208    -0.195 -0.4554  0.8733  0.1730
    53 C(13)  Bbb    -0.0027    -0.366    -0.131    -0.122  0.6580  0.1993  0.7262
              Bcc     0.0071     0.949     0.339     0.317 -0.5997 -0.4445  0.6654
 
              Baa    -0.0042    -0.558    -0.199    -0.186  0.3607  0.6644 -0.6546
    54 C(13)  Bbb     0.0004     0.048     0.017     0.016 -0.4681  0.7360  0.4890
              Bcc     0.0038     0.510     0.182     0.170  0.8067  0.1300  0.5765
 
              Baa    -0.0048    -0.639    -0.228    -0.213 -0.1188  0.9343 -0.3360
    55 C(13)  Bbb    -0.0028    -0.371    -0.132    -0.124  0.6672  0.3257  0.6699
              Bcc     0.0075     1.009     0.360     0.337  0.7354 -0.1446 -0.6621
 
              Baa    -0.0148    -1.980    -0.706    -0.660 -0.3624  0.7645  0.5331
    56 C(13)  Bbb    -0.0141    -1.887    -0.673    -0.629  0.5059 -0.3190  0.8014
              Bcc     0.0288     3.867     1.380     1.290  0.7827  0.5602 -0.2712
 
              Baa    -0.0022    -0.295    -0.105    -0.098  0.4703  0.7686  0.4336
    57 C(13)  Bbb    -0.0019    -0.254    -0.091    -0.085  0.4077 -0.6250  0.6657
              Bcc     0.0041     0.549     0.196     0.183  0.7827 -0.1363 -0.6073
 
              Baa    -0.0033    -0.439    -0.157    -0.146  0.4669  0.4914  0.7352
    58 C(13)  Bbb    -0.0026    -0.345    -0.123    -0.115 -0.5491 -0.4906  0.6767
              Bcc     0.0058     0.785     0.280     0.262 -0.6932  0.7196 -0.0408
 
              Baa    -0.0088    -1.182    -0.422    -0.394 -0.6866  0.7170 -0.1202
    59 C(13)  Bbb     0.0043     0.575     0.205     0.192  0.5525  0.6220  0.5548
              Bcc     0.0045     0.607     0.216     0.202 -0.4726 -0.3145  0.8232
 
              Baa    -0.0121    -1.620    -0.578    -0.540  0.8733 -0.1278 -0.4702
    60 C(13)  Bbb     0.0059     0.793     0.283     0.265  0.4860  0.2954  0.8225
              Bcc     0.0062     0.827     0.295     0.276 -0.0338  0.9468 -0.3200
 
              Baa    -0.0010    -0.139    -0.050    -0.046  0.0296  0.2910  0.9563
    61 C(13)  Bbb     0.0002     0.021     0.007     0.007  0.9409 -0.3310  0.0716
              Bcc     0.0009     0.118     0.042     0.039  0.3373  0.8976 -0.2836
 
              Baa    -0.0067    -0.902    -0.322    -0.301 -0.5928  0.7047  0.3898
    62 C(13)  Bbb    -0.0058    -0.772    -0.276    -0.258  0.3838  0.6728 -0.6325
              Bcc     0.0125     1.674     0.597     0.558  0.7080  0.2253  0.6693
 
              Baa    -0.0066    -0.886    -0.316    -0.296  0.6438 -0.6243 -0.4425
    63 C(13)  Bbb    -0.0055    -0.739    -0.264    -0.246  0.0309 -0.5565  0.8303
              Bcc     0.0121     1.625     0.580     0.542  0.7646  0.5482  0.3389
 
              Baa    -0.0039    -0.518    -0.185    -0.173  0.8916  0.4484  0.0635
    64 C(13)  Bbb     0.0010     0.136     0.048     0.045 -0.4474  0.8501  0.2778
              Bcc     0.0028     0.382     0.136     0.128  0.0706 -0.2761  0.9585
 
              Baa    -0.0046    -0.624    -0.223    -0.208  0.9220 -0.2894  0.2573
    65 C(13)  Bbb     0.0020     0.274     0.098     0.092  0.0749  0.7852  0.6147
              Bcc     0.0026     0.350     0.125     0.117 -0.3799 -0.5474  0.7456
 
              Baa    -0.0014    -0.193    -0.069    -0.064 -0.1396  0.1968  0.9705
    66 C(13)  Bbb    -0.0012    -0.161    -0.057    -0.054  0.2005  0.9654 -0.1669
              Bcc     0.0026     0.354     0.126     0.118  0.9697 -0.1713  0.1742
 
              Baa    -0.0559    -2.928    -1.045    -0.977  0.1269  0.7444  0.6555
    67 Cl(35) Bbb    -0.0484    -2.531    -0.903    -0.844 -0.1109 -0.6461  0.7552
              Bcc     0.1043     5.459     1.948     1.821  0.9857 -0.1685  0.0006
 
              Baa    -0.0184    -0.964    -0.344    -0.322  0.9912 -0.0881 -0.0984
    68 Cl(35) Bbb     0.0059     0.309     0.110     0.103  0.0168  0.8232 -0.5675
              Bcc     0.0125     0.655     0.234     0.218  0.1310  0.5609  0.8175
 
              Baa    -0.0491    -2.572    -0.918    -0.858  0.6262 -0.0497  0.7781
    69 Cl(35) Bbb    -0.0438    -2.290    -0.817    -0.764  0.5368  0.7512 -0.3841
              Bcc     0.0929     4.862     1.735     1.622 -0.5654  0.6582  0.4970
 
              Baa    -0.0211    -1.104    -0.394    -0.368 -0.0240  0.9930  0.1154
    70 Cl(35) Bbb     0.0038     0.201     0.072     0.067 -0.0249 -0.1160  0.9929
              Bcc     0.0173     0.904     0.322     0.301  0.9994  0.0210  0.0275
 
              Baa    -0.0249    -1.301    -0.464    -0.434  0.0827  0.8584  0.5063
    71 Cl(35) Bbb     0.0098     0.513     0.183     0.171 -0.6497 -0.3388  0.6806
              Bcc     0.0151     0.788     0.281     0.263  0.7557 -0.3852  0.5296
 
              Baa    -0.0077    -0.404    -0.144    -0.135 -0.1852 -0.6578  0.7301
    72 Cl(35) Bbb    -0.0068    -0.358    -0.128    -0.119  0.9540 -0.2984 -0.0269
              Bcc     0.0146     0.762     0.272     0.254  0.2356  0.6916  0.6828
 
              Baa    -0.2002   -10.477    -3.739    -3.495 -0.2028 -0.5073  0.8376
    73 Cl(35) Bbb    -0.1742    -9.115    -3.252    -3.040 -0.2302  0.8561  0.4627
              Bcc     0.3743    19.592     6.991     6.535  0.9518  0.0989  0.2904
 

 ---------------------------------------------------------------------------------

 No NMR shielding tensors so no spin-rotation constants.
 Leave Link  601 at Thu Jul 14 19:51:38 2022, MaxMem=  1342177280 cpu:             105.0 elap:               2.4
 (Enter /home/mkliu/g16/l9999.exe)
 1\1\GINC-NODE06\FOpt\UB3LYP\6-311G(d,p)\C66Cl7(2)\MKLIU\14-Jul-2022\0\
 \#P opt b3lyp/6-311G(d, p) empiricaldispersion=GD3\\force\\0,2\C,-1.36
 06264641,1.8892072046,-3.9511589434\C,0.1994485711,2.2280719728,-4.000
 9666697\C,0.9572116068,0.8607402225,-4.2987177585\C,-1.4931901637,0.33
 04487996,-4.2070433182\C,-0.097516326,-0.1805883824,-4.1838031185\C,-2
 .2565712882,-0.1893537019,-3.0115326154\C,-1.938545782,2.0474208911,-2
 .5680029982\C,-2.6381769126,0.8858149681,-2.1758490625\C,-1.4444533166
 ,2.93354506,-1.5890235656\C,0.7397848532,2.6230045714,-2.6523176865\C,
 0.0001496969,3.2394252969,-1.6398213026\C,1.9083813366,0.6933992774,-3
 .1212980986\C,1.8755090686,1.8535479776,-2.3119153886\C,2.2514171842,-
 0.516524435,-2.5618464481\C,0.1762779483,-1.3672976065,-3.6275656671\C
 ,1.5820537404,-1.758478906,-3.1611652845\C,-2.0058414634,-1.4529735709
 ,-2.4366710048\C,-0.8163788589,-2.1107799416,-2.8817702306\C,-2.508195
 7871,-1.7435339206,-1.092716171\C,-3.0853452716,0.6805047301,-0.836454
 6308\C,-3.1110074771,-0.6697950619,-0.2994037116\C,-2.0637883238,2.874
 0598694,-0.3271646903\C,-2.941949434,1.7855633065,0.0253296562\C,-1.39
 18960349,3.2909670682,0.8905578265\C,0.6782852359,3.4458207533,-0.4076
 102465\C,-0.0379792701,3.5774058591,0.854819236\C,2.4306083704,1.85004
 78175,-1.0070847589\C,1.9259260419,2.8336369031,-0.1261349405\C,2.8550
 259296,-0.5480132501,-1.2525186032\C,3.0031182156,0.6251190395,-0.5096
 448628\C,3.1322823001,-1.915240584,-0.6116548698\C,1.2782232362,-2.774
 8954345,-2.093491016\C,-0.1377685509,-3.0277130734,-2.0393644642\C,2.0
 27637436,-2.9017437098,-0.9674140036\C,-1.9552379848,-2.8466099431,-0.
 4027662184\C,-0.7333206898,-3.4696703519,-0.8631989525\C,-1.9467032308
 ,-2.9197229167,1.0356872163\C,-3.1666214085,-0.8074791918,1.1100198565
 \C,-2.5576364027,-1.9244480402,1.7823820445\C,-2.8970524397,1.61052400
 58,1.4525751344\C,-1.9374031817,2.5410526879,2.0038011104\C,-3.0323051
 59,0.3399677537,1.9846851408\C,-1.12593418,2.1485375337,3.0642215401\C
 ,0.8203918006,3.1237862223,1.9235545059\C,2.0419801369,2.6582780408,1.
 3143392783\C,0.2916455424,2.4484498108,3.0257407728\C,3.4878392259,0.6
 054910172,0.9393629416\C,2.7091603839,1.5758452922,1.824500705\C,3.018
 1138962,-1.8662818942,0.9032766157\C,3.2025607686,-0.7198597601,1.6158
 122409\C,1.4444608401,-3.4452475624,0.2254832169\C,0.0845548122,-3.770
 9467679,0.2757809927\C,-0.6788623507,-3.4743976726,1.467055053\C,2.082
 8002944,-2.8497894029,1.3705441993\C,-0.0512982302,-2.9665213978,2.600
 0787661\C,1.3671728652,-2.6557030677,2.5554642126\C,-1.9511091105,-1.4
 572355624,3.0129045935\C,-2.2468787227,-0.0480720902,3.1402892714\C,-1
 .2896201107,0.829394264,3.6503749853\C,-0.7037862509,-1.9497575247,3.3
 983627372\C,1.0001563953,1.3214901043,3.5736641832\C,2.192835177,0.899
 7432322,2.9721224961\C,2.4897312606,-0.5088390856,2.842702012\C,1.5858
 406952,-1.4602186642,3.3195269027\C,0.0262774214,0.3277041283,3.995076
 3152\C,0.3127224889,-1.0277331727,3.8710557548\Cl,-2.3823073291,2.9109
 263531,-5.037097797\Cl,0.6308474693,3.5739393277,-5.127346756\Cl,1.842
 7156756,0.7735489374,-5.8841630794\Cl,2.5872852555,-2.5076270344,-4.50
 50119202\Cl,4.7986687533,-2.5020857637,-1.1483503941\Cl,5.300922792,1.
 0120267132,0.9633775524\Cl,-2.3315962713,-0.1647238427,-5.7677877022\\
 Version=ES64L-G16RevA.03\State=2-A\HF=-5736.9967732\S2=0.796534\S2-1=0
 .\S2A=0.751991\RMSD=5.159e-09\RMSF=3.075e-05\Dipole=-1.2351538,-0.0017
 007,1.8970331\Quadrupole=-3.4905427,7.4968423,-4.0062995,2.5263213,-2.
 9532628,0.22213\PG=C01 [X(C66Cl7)]\\@


 We make a living by what we get,
 we make a life by what we give.
                   -- Sir Winston Churchill
 Job cpu time:       4 days 16 hours 10 minutes 54.6 seconds.
 Elapsed time:       0 days  2 hours 20 minutes 27.6 seconds.
 File lengths (MBytes):  RWF=   2038 Int=      0 D2E=      0 Chk=    184 Scr=      1
 Normal termination of Gaussian 16 at Thu Jul 14 19:51:40 2022.
