 Entering Gaussian System, Link 0=g16
 Input=eubutmc2tmsqo_addon_7.gjf
 Output=eubutmc2tmsqo_addon_7.log
 Initial command:
 /home/mkliu/g16/l1.exe "/data/scratch/Gau-210364.inp" -scrdir="/data/scratch/"
 Entering Link 1 = /home/mkliu/g16/l1.exe PID=    210365.
  
 Copyright (c) 1988,1990,1992,1993,1995,1998,2003,2009,2016,
            Gaussian, Inc.  All Rights Reserved.
  
 This is part of the Gaussian(R) 16 program.  It is based on
 the Gaussian(R) 09 system (copyright 2009, Gaussian, Inc.),
 the Gaussian(R) 03 system (copyright 2003, Gaussian, Inc.),
 the Gaussian(R) 98 system (copyright 1998, Gaussian, Inc.),
 the Gaussian(R) 94 system (copyright 1995, Gaussian, Inc.),
 the Gaussian 92(TM) system (copyright 1992, Gaussian, Inc.),
 the Gaussian 90(TM) system (copyright 1990, Gaussian, Inc.),
 the Gaussian 88(TM) system (copyright 1988, Gaussian, Inc.),
 the Gaussian 86(TM) system (copyright 1986, Carnegie Mellon
 University), and the Gaussian 82(TM) system (copyright 1983,
 Carnegie Mellon University). Gaussian is a federally registered
 trademark of Gaussian, Inc.
  
 This software contains proprietary and confidential information,
 including trade secrets, belonging to Gaussian, Inc.
  
 This software is provided under written license and may be
 used, copied, transmitted, or stored only in accord with that
 written license.
  
 The following legend is applicable only to US Government
 contracts under FAR:
  
                    RESTRICTED RIGHTS LEGEND
  
 Use, reproduction and disclosure by the US Government is
 subject to restrictions as set forth in subparagraphs (a)
 and (c) of the Commercial Computer Software - Restricted
 Rights clause in FAR 52.227-19.
  
 Gaussian, Inc.
 340 Quinnipiac St., Bldg. 40, Wallingford CT 06492
  
  
 ---------------------------------------------------------------
 Warning -- This program may not be used in any manner that
 competes with the business of Gaussian, Inc. or will provide
 assistance to any competitor of Gaussian, Inc.  The licensee
 of this program is prohibited from giving any competitor of
 Gaussian, Inc. access to this program.  By using this program,
 the user acknowledges that Gaussian, Inc. is engaged in the
 business of creating and licensing software in the field of
 computational chemistry and represents and warrants to the
 licensee that it is not a competitor of Gaussian, Inc. and that
 it will not use this program in any manner prohibited above.
 ---------------------------------------------------------------
  

 Cite this work as:
 Gaussian 16, Revision A.03,
 M. J. Frisch, G. W. Trucks, H. B. Schlegel, G. E. Scuseria, 
 M. A. Robb, J. R. Cheeseman, G. Scalmani, V. Barone, 
 G. A. Petersson, H. Nakatsuji, X. Li, M. Caricato, A. V. Marenich, 
 J. Bloino, B. G. Janesko, R. Gomperts, B. Mennucci, H. P. Hratchian, 
 J. V. Ortiz, A. F. Izmaylov, J. L. Sonnenberg, D. Williams-Young, 
 F. Ding, F. Lipparini, F. Egidi, J. Goings, B. Peng, A. Petrone, 
 T. Henderson, D. Ranasinghe, V. G. Zakrzewski, J. Gao, N. Rega, 
 G. Zheng, W. Liang, M. Hada, M. Ehara, K. Toyota, R. Fukuda, 
 J. Hasegawa, M. Ishida, T. Nakajima, Y. Honda, O. Kitao, H. Nakai, 
 T. Vreven, K. Throssell, J. A. Montgomery, Jr., J. E. Peralta, 
 F. Ogliaro, M. J. Bearpark, J. J. Heyd, E. N. Brothers, K. N. Kudin, 
 V. N. Staroverov, T. A. Keith, R. Kobayashi, J. Normand, 
 K. Raghavachari, A. P. Rendell, J. C. Burant, S. S. Iyengar, 
 J. Tomasi, M. Cossi, J. M. Millam, M. Klene, C. Adamo, R. Cammi, 
 J. W. Ochterski, R. L. Martin, K. Morokuma, O. Farkas, 
 J. B. Foresman, and D. J. Fox, Gaussian, Inc., Wallingford CT, 2016.
 
 ******************************************
 Gaussian 16:  ES64L-G16RevA.03 25-Dec-2016
                15-Jul-2022 
 ******************************************
 %mem=10GB
 %chk=eubutmc2tmsqo_addon_7.chk
 %nprocshared=48
 Will use up to   48 processors via shared memory.
 -------------------------------------------------
 #P opt b3lyp/6-311G(d, p) empiricaldispersion=GD3
 -------------------------------------------------
 1/18=20,19=15,26=3,38=1/1,3;
 2/9=110,12=2,17=6,18=5,40=1/2;
 3/5=4,6=6,7=101,11=2,25=1,30=1,71=1,74=-5,124=31/1,2,3;
 4//1;
 5/5=2,38=5/2;
 6/7=2,8=2,9=2,10=2,28=1/1;
 7//1,2,3,16;
 1/18=20,19=15,26=3/3(2);
 2/9=110/2;
 99//99;
 2/9=110/2;
 3/5=4,6=6,7=101,11=2,25=1,30=1,71=1,74=-5,124=31/1,2,3;
 4/5=5,16=3,69=1/1;
 5/5=2,38=5/2;
 7//1,2,3,16;
 1/18=20,19=15,26=3/3(-5);
 2/9=110/2;
 6/7=2,8=2,9=2,10=2,19=2,28=1/1;
 99/9=1/99;
 Leave Link    1 at Fri Jul 15 16:35:42 2022, MaxMem=  1342177280 cpu:               3.1 elap:               0.1
 (Enter /home/mkliu/g16/l101.exe)
 -----
 force
 -----
 Symbolic Z-matrix:
 Charge =  0 Multiplicity = 2
 C                    -1.33162   1.86103  -3.90777 
 C                     0.19308   2.18698  -3.97823 
 C                     0.9345    0.86083  -4.23937 
 C                    -1.50697   0.3368   -4.22579 
 C                    -0.11901  -0.16977  -4.07895 
 C                    -2.47058  -0.23834  -3.13497 
 C                    -1.87446   1.98777  -2.52751 
 C                    -2.58289   0.87568  -2.15096 
 C                    -1.38645   2.88072  -1.55011 
 C                     0.74448   2.63988  -2.66522 
 C                     0.01862   3.22292  -1.61497 
 C                     1.88673   0.6925   -3.07896 
 C                     1.85106   1.85437  -2.2623 
 C                     2.22451  -0.5057   -2.52655 
 C                     0.18694  -1.34918  -3.56016 
 C                     1.57876  -1.74531  -3.13068 
 C                    -1.98778  -1.47204  -2.41507 
 C                    -0.82436  -2.08548  -2.80875 
 C                    -2.51118  -1.76926  -1.09536 
 C                    -3.04379   0.65345  -0.83945 
 C                    -3.09797  -0.69808  -0.31449 
 C                    -2.01395   2.80882  -0.31833 
 C                    -2.89297   1.73527   0.02444 
 C                    -1.3676    3.23649   0.87949 
 C                     0.69996   3.46098  -0.39598 
 C                    -0.00616   3.52609   0.81898 
 C                     2.44207   1.85479  -1.00187 
 C                     2.12323   3.03616  -0.12491 
 C                     2.86662  -0.55383  -1.23805 
 C                     3.00433   0.67281  -0.48149 
 C                     2.88529  -1.77378  -0.55313 
 C                     1.27701  -2.78154  -2.103 
 C                    -0.13312  -3.03955  -2.02197 
 C                     2.0119   -2.88212  -0.96724 
 C                    -1.91904  -2.84065  -0.41005 
 C                    -0.71424  -3.47004  -0.84851 
 C                    -1.91219  -2.91521   1.02468 
 C                    -3.12875  -0.81864   1.08164 
 C                    -2.51751  -1.92879   1.75785 
 C                    -2.86844   1.57838   1.43834 
 C                    -1.91109   2.51154   1.98285 
 C                    -3.00058   0.31339   1.95665 
 C                    -1.1014    2.11876   3.03318 
 C                     0.8444    3.10507   1.91494 
 C                     2.06527   2.69115   1.33032 
 C                     0.30075   2.42587   2.9971 
 C                     3.24568   0.57277   0.92565 
 C                     2.71305   1.58537   1.81765 
 C                     2.98621  -1.84044   0.85644 
 C                     3.17709  -0.66724   1.58407 
 C                     1.4572   -3.47633   0.22533 
 C                     0.10508  -3.77916   0.2874 
 C                    -0.65854  -3.4784    1.46185 
 C                     2.0962   -2.86114   1.35399 
 C                    -0.02377  -2.95153   2.57444 
 C                     1.38015  -2.63956   2.5176 
 C                    -1.91974  -1.45953   2.98118 
 C                    -2.22095  -0.06815   3.10705 
 C                    -1.27455   0.81025   3.61302 
 C                    -0.67243  -1.93624   3.35574 
 C                     1.00576   1.31058   3.55623 
 C                     2.20433   0.91461   2.98363 
 C                     2.50225  -0.48446   2.85299 
 C                     1.59745  -1.43234   3.28087 
 C                     0.03534   0.32529   3.96217 
 C                     0.32915  -1.02194   3.83012 
 Cl                   -2.3291    2.89601  -4.95914 
 Cl                    0.55564   3.44782  -5.19243 
 Cl                    1.73397   0.69984  -5.8234 
 Cl                    2.64124  -2.3729   -4.45268 
 Cl                   -2.04716   0.02795  -5.89496 
 Cl                   -4.11508  -0.59948  -3.80799 
 Cl                    3.34854   4.35567  -0.46519 
 
 ITRead=  0  0  0  0  0  0  0  0  0  0  0  0  0  0  0  0  0  0  0  0
 ITRead=  0  0  0  0  0  0  0  0  0  0  0  0  0  0  0  0  0  0  0  0
 ITRead=  0  0  0  0  0  0  0  0  0  0  0  0  0  0  0  0  0  0  0  0
 ITRead=  0  0  0  0  0  0  0  0  0  0  0  0  0
 MicOpt= -1 -1 -1 -1 -1 -1 -1 -1 -1 -1 -1 -1 -1 -1 -1 -1 -1 -1 -1 -1
 MicOpt= -1 -1 -1 -1 -1 -1 -1 -1 -1 -1 -1 -1 -1 -1 -1 -1 -1 -1 -1 -1
 MicOpt= -1 -1 -1 -1 -1 -1 -1 -1 -1 -1 -1 -1 -1 -1 -1 -1 -1 -1 -1 -1
 MicOpt= -1 -1 -1 -1 -1 -1 -1 -1 -1 -1 -1 -1 -1
 NAtoms=     73 NQM=       73 NQMF=       0 NMMI=      0 NMMIF=      0
                NMic=       0 NMicF=      0.
                    Isotopes and Nuclear Properties:
 (Nuclear quadrupole moments (NQMom) in fm**2, nuclear magnetic moments (NMagM)
  in nuclear magnetons)

  Atom         1           2           3           4           5           6           7           8           9          10
 IAtWgt=          12          12          12          12          12          12          12          12          12          12
 AtmWgt=  12.0000000  12.0000000  12.0000000  12.0000000  12.0000000  12.0000000  12.0000000  12.0000000  12.0000000  12.0000000
 NucSpn=           0           0           0           0           0           0           0           0           0           0
 AtZEff=  -0.0000000  -0.0000000  -0.0000000  -0.0000000  -0.0000000  -0.0000000  -0.0000000  -0.0000000  -0.0000000  -0.0000000
 NQMom=    0.0000000   0.0000000   0.0000000   0.0000000   0.0000000   0.0000000   0.0000000   0.0000000   0.0000000   0.0000000
 NMagM=    0.0000000   0.0000000   0.0000000   0.0000000   0.0000000   0.0000000   0.0000000   0.0000000   0.0000000   0.0000000
 AtZNuc=   6.0000000   6.0000000   6.0000000   6.0000000   6.0000000   6.0000000   6.0000000   6.0000000   6.0000000   6.0000000

  Atom        11          12          13          14          15          16          17          18          19          20
 IAtWgt=          12          12          12          12          12          12          12          12          12          12
 AtmWgt=  12.0000000  12.0000000  12.0000000  12.0000000  12.0000000  12.0000000  12.0000000  12.0000000  12.0000000  12.0000000
 NucSpn=           0           0           0           0           0           0           0           0           0           0
 AtZEff=  -0.0000000  -0.0000000  -0.0000000  -0.0000000  -0.0000000  -0.0000000  -0.0000000  -0.0000000  -0.0000000  -0.0000000
 NQMom=    0.0000000   0.0000000   0.0000000   0.0000000   0.0000000   0.0000000   0.0000000   0.0000000   0.0000000   0.0000000
 NMagM=    0.0000000   0.0000000   0.0000000   0.0000000   0.0000000   0.0000000   0.0000000   0.0000000   0.0000000   0.0000000
 AtZNuc=   6.0000000   6.0000000   6.0000000   6.0000000   6.0000000   6.0000000   6.0000000   6.0000000   6.0000000   6.0000000

  Atom        21          22          23          24          25          26          27          28          29          30
 IAtWgt=          12          12          12          12          12          12          12          12          12          12
 AtmWgt=  12.0000000  12.0000000  12.0000000  12.0000000  12.0000000  12.0000000  12.0000000  12.0000000  12.0000000  12.0000000
 NucSpn=           0           0           0           0           0           0           0           0           0           0
 AtZEff=  -0.0000000  -0.0000000  -0.0000000  -0.0000000  -0.0000000  -0.0000000  -0.0000000  -0.0000000  -0.0000000  -0.0000000
 NQMom=    0.0000000   0.0000000   0.0000000   0.0000000   0.0000000   0.0000000   0.0000000   0.0000000   0.0000000   0.0000000
 NMagM=    0.0000000   0.0000000   0.0000000   0.0000000   0.0000000   0.0000000   0.0000000   0.0000000   0.0000000   0.0000000
 AtZNuc=   6.0000000   6.0000000   6.0000000   6.0000000   6.0000000   6.0000000   6.0000000   6.0000000   6.0000000   6.0000000

  Atom        31          32          33          34          35          36          37          38          39          40
 IAtWgt=          12          12          12          12          12          12          12          12          12          12
 AtmWgt=  12.0000000  12.0000000  12.0000000  12.0000000  12.0000000  12.0000000  12.0000000  12.0000000  12.0000000  12.0000000
 NucSpn=           0           0           0           0           0           0           0           0           0           0
 AtZEff=  -0.0000000  -0.0000000  -0.0000000  -0.0000000  -0.0000000  -0.0000000  -0.0000000  -0.0000000  -0.0000000  -0.0000000
 NQMom=    0.0000000   0.0000000   0.0000000   0.0000000   0.0000000   0.0000000   0.0000000   0.0000000   0.0000000   0.0000000
 NMagM=    0.0000000   0.0000000   0.0000000   0.0000000   0.0000000   0.0000000   0.0000000   0.0000000   0.0000000   0.0000000
 AtZNuc=   6.0000000   6.0000000   6.0000000   6.0000000   6.0000000   6.0000000   6.0000000   6.0000000   6.0000000   6.0000000

  Atom        41          42          43          44          45          46          47          48          49          50
 IAtWgt=          12          12          12          12          12          12          12          12          12          12
 AtmWgt=  12.0000000  12.0000000  12.0000000  12.0000000  12.0000000  12.0000000  12.0000000  12.0000000  12.0000000  12.0000000
 NucSpn=           0           0           0           0           0           0           0           0           0           0
 AtZEff=  -0.0000000  -0.0000000  -0.0000000  -0.0000000  -0.0000000  -0.0000000  -0.0000000  -0.0000000  -0.0000000  -0.0000000
 NQMom=    0.0000000   0.0000000   0.0000000   0.0000000   0.0000000   0.0000000   0.0000000   0.0000000   0.0000000   0.0000000
 NMagM=    0.0000000   0.0000000   0.0000000   0.0000000   0.0000000   0.0000000   0.0000000   0.0000000   0.0000000   0.0000000
 AtZNuc=   6.0000000   6.0000000   6.0000000   6.0000000   6.0000000   6.0000000   6.0000000   6.0000000   6.0000000   6.0000000

  Atom        51          52          53          54          55          56          57          58          59          60
 IAtWgt=          12          12          12          12          12          12          12          12          12          12
 AtmWgt=  12.0000000  12.0000000  12.0000000  12.0000000  12.0000000  12.0000000  12.0000000  12.0000000  12.0000000  12.0000000
 NucSpn=           0           0           0           0           0           0           0           0           0           0
 AtZEff=  -0.0000000  -0.0000000  -0.0000000  -0.0000000  -0.0000000  -0.0000000  -0.0000000  -0.0000000  -0.0000000  -0.0000000
 NQMom=    0.0000000   0.0000000   0.0000000   0.0000000   0.0000000   0.0000000   0.0000000   0.0000000   0.0000000   0.0000000
 NMagM=    0.0000000   0.0000000   0.0000000   0.0000000   0.0000000   0.0000000   0.0000000   0.0000000   0.0000000   0.0000000
 AtZNuc=   6.0000000   6.0000000   6.0000000   6.0000000   6.0000000   6.0000000   6.0000000   6.0000000   6.0000000   6.0000000

  Atom        61          62          63          64          65          66          67          68          69          70
 IAtWgt=          12          12          12          12          12          12          35          35          35          35
 AtmWgt=  12.0000000  12.0000000  12.0000000  12.0000000  12.0000000  12.0000000  34.9688527  34.9688527  34.9688527  34.9688527
 NucSpn=           0           0           0           0           0           0           3           3           3           3
 AtZEff=  -0.0000000  -0.0000000  -0.0000000  -0.0000000  -0.0000000  -0.0000000  -0.0000000  -0.0000000  -0.0000000  -0.0000000
 NQMom=    0.0000000   0.0000000   0.0000000   0.0000000   0.0000000   0.0000000  -8.1650000  -8.1650000  -8.1650000  -8.1650000
 NMagM=    0.0000000   0.0000000   0.0000000   0.0000000   0.0000000   0.0000000   0.8218740   0.8218740   0.8218740   0.8218740
 AtZNuc=   6.0000000   6.0000000   6.0000000   6.0000000   6.0000000   6.0000000  17.0000000  17.0000000  17.0000000  17.0000000

  Atom        71          72          73
 IAtWgt=          35          35          35
 AtmWgt=  34.9688527  34.9688527  34.9688527
 NucSpn=           3           3           3
 AtZEff=  -0.0000000  -0.0000000  -0.0000000
 NQMom=   -8.1650000  -8.1650000  -8.1650000
 NMagM=    0.8218740   0.8218740   0.8218740
 AtZNuc=  17.0000000  17.0000000  17.0000000
 Leave Link  101 at Fri Jul 15 16:35:43 2022, MaxMem=  1342177280 cpu:              18.3 elap:               0.4
 (Enter /home/mkliu/g16/l103.exe)

 GradGradGradGradGradGradGradGradGradGradGradGradGradGradGradGradGradGrad
 Berny optimization.
 Initialization pass.
                           ----------------------------
                           !    Initial Parameters    !
                           ! (Angstroms and Degrees)  !
 --------------------------                            --------------------------
 ! Name  Definition              Value          Derivative Info.                !
 --------------------------------------------------------------------------------
 ! R1    R(1,2)                  1.5607         estimate D2E/DX2                !
 ! R2    R(1,4)                  1.5669         estimate D2E/DX2                !
 ! R3    R(1,7)                  1.4886         estimate D2E/DX2                !
 ! R4    R(1,67)                 1.7809         estimate D2E/DX2                !
 ! R5    R(2,3)                  1.5416         estimate D2E/DX2                !
 ! R6    R(2,10)                 1.4944         estimate D2E/DX2                !
 ! R7    R(2,68)                 1.7876         estimate D2E/DX2                !
 ! R8    R(3,5)                  1.4825         estimate D2E/DX2                !
 ! R9    R(3,12)                 1.5105         estimate D2E/DX2                !
 ! R10   R(3,69)                 1.7816         estimate D2E/DX2                !
 ! R11   R(4,5)                  1.4848         estimate D2E/DX2                !
 ! R12   R(4,6)                  1.565          estimate D2E/DX2                !
 ! R13   R(4,71)                 1.7814         estimate D2E/DX2                !
 ! R14   R(5,15)                 1.3243         estimate D2E/DX2                !
 ! R15   R(6,8)                  1.4906         estimate D2E/DX2                !
 ! R16   R(6,17)                 1.5078         estimate D2E/DX2                !
 ! R17   R(6,72)                 1.8132         estimate D2E/DX2                !
 ! R18   R(7,8)                  1.3713         estimate D2E/DX2                !
 ! R19   R(7,9)                  1.411          estimate D2E/DX2                !
 ! R20   R(8,20)                 1.4078         estimate D2E/DX2                !
 ! R21   R(9,11)                 1.4476         estimate D2E/DX2                !
 ! R22   R(9,22)                 1.3843         estimate D2E/DX2                !
 ! R23   R(10,11)                1.4035         estimate D2E/DX2                !
 ! R24   R(10,13)                1.4156         estimate D2E/DX2                !
 ! R25   R(11,25)                1.4166         estimate D2E/DX2                !
 ! R26   R(12,13)                1.4206         estimate D2E/DX2                !
 ! R27   R(12,14)                1.362          estimate D2E/DX2                !
 ! R28   R(13,27)                1.3921         estimate D2E/DX2                !
 ! R29   R(14,16)                1.5227         estimate D2E/DX2                !
 ! R30   R(14,29)                1.4404         estimate D2E/DX2                !
 ! R31   R(15,16)                1.5095         estimate D2E/DX2                !
 ! R32   R(15,18)                1.4593         estimate D2E/DX2                !
 ! R33   R(16,32)                1.4903         estimate D2E/DX2                !
 ! R34   R(16,70)                1.8084         estimate D2E/DX2                !
 ! R35   R(17,18)                1.3729         estimate D2E/DX2                !
 ! R36   R(17,19)                1.4505         estimate D2E/DX2                !
 ! R37   R(18,33)                1.4167         estimate D2E/DX2                !
 ! R38   R(19,21)                1.4497         estimate D2E/DX2                !
 ! R39   R(19,35)                1.4029         estimate D2E/DX2                !
 ! R40   R(20,21)                1.4509         estimate D2E/DX2                !
 ! R41   R(20,23)                1.3926         estimate D2E/DX2                !
 ! R42   R(21,38)                1.4017         estimate D2E/DX2                !
 ! R43   R(22,23)                1.4292         estimate D2E/DX2                !
 ! R44   R(22,24)                1.4267         estimate D2E/DX2                !
 ! R45   R(23,40)                1.4228         estimate D2E/DX2                !
 ! R46   R(24,26)                1.3932         estimate D2E/DX2                !
 ! R47   R(24,41)                1.4277         estimate D2E/DX2                !
 ! R48   R(25,26)                1.4068         estimate D2E/DX2                !
 ! R49   R(25,28)                1.5098         estimate D2E/DX2                !
 ! R50   R(26,44)                1.4498         estimate D2E/DX2                !
 ! R51   R(27,28)                1.5054         estimate D2E/DX2                !
 ! R52   R(27,30)                1.4085         estimate D2E/DX2                !
 ! R53   R(28,45)                1.4967         estimate D2E/DX2                !
 ! R54   R(28,73)                1.8326         estimate D2E/DX2                !
 ! R55   R(29,30)                1.4478         estimate D2E/DX2                !
 ! R56   R(29,31)                1.3992         estimate D2E/DX2                !
 ! R57   R(30,47)                1.4312         estimate D2E/DX2                !
 ! R58   R(31,34)                1.4706         estimate D2E/DX2                !
 ! R59   R(31,49)                1.4147         estimate D2E/DX2                !
 ! R60   R(32,33)                1.4358         estimate D2E/DX2                !
 ! R61   R(32,34)                1.3565         estimate D2E/DX2                !
 ! R62   R(33,36)                1.3784         estimate D2E/DX2                !
 ! R63   R(34,51)                1.4433         estimate D2E/DX2                !
 ! R64   R(35,36)                1.4283         estimate D2E/DX2                !
 ! R65   R(35,37)                1.4367         estimate D2E/DX2                !
 ! R66   R(36,52)                1.4343         estimate D2E/DX2                !
 ! R67   R(37,39)                1.37           estimate D2E/DX2                !
 ! R68   R(37,53)                1.4422         estimate D2E/DX2                !
 ! R69   R(38,39)                1.4364         estimate D2E/DX2                !
 ! R70   R(38,42)                1.4365         estimate D2E/DX2                !
 ! R71   R(39,57)                1.4402         estimate D2E/DX2                !
 ! R72   R(40,41)                1.4435         estimate D2E/DX2                !
 ! R73   R(40,42)                1.3734         estimate D2E/DX2                !
 ! R74   R(41,43)                1.3831         estimate D2E/DX2                !
 ! R75   R(42,58)                1.4411         estimate D2E/DX2                !
 ! R76   R(43,46)                1.4358         estimate D2E/DX2                !
 ! R77   R(43,59)                1.4417         estimate D2E/DX2                !
 ! R78   R(44,45)                1.4155         estimate D2E/DX2                !
 ! R79   R(44,46)                1.3885         estimate D2E/DX2                !
 ! R80   R(45,48)                1.3711         estimate D2E/DX2                !
 ! R81   R(46,61)                1.433          estimate D2E/DX2                !
 ! R82   R(47,48)                1.4508         estimate D2E/DX2                !
 ! R83   R(47,50)                1.4056         estimate D2E/DX2                !
 ! R84   R(48,62)                1.4381         estimate D2E/DX2                !
 ! R85   R(49,50)                1.3937         estimate D2E/DX2                !
 ! R86   R(49,54)                1.4427         estimate D2E/DX2                !
 ! R87   R(50,63)                1.4488         estimate D2E/DX2                !
 ! R88   R(51,52)                1.387          estimate D2E/DX2                !
 ! R89   R(51,54)                1.4355         estimate D2E/DX2                !
 ! R90   R(52,53)                1.4328         estimate D2E/DX2                !
 ! R91   R(53,55)                1.385          estimate D2E/DX2                !
 ! R92   R(54,56)                1.3841         estimate D2E/DX2                !
 ! R93   R(55,56)                1.4393         estimate D2E/DX2                !
 ! R94   R(55,60)                1.436          estimate D2E/DX2                !
 ! R95   R(56,64)                1.4447         estimate D2E/DX2                !
 ! R96   R(57,58)                1.4292         estimate D2E/DX2                !
 ! R97   R(57,60)                1.3868         estimate D2E/DX2                !
 ! R98   R(58,59)                1.3868         estimate D2E/DX2                !
 ! R99   R(59,65)                1.4398         estimate D2E/DX2                !
 ! R100  R(60,66)                1.4367         estimate D2E/DX2                !
 ! R101  R(61,62)                1.3861         estimate D2E/DX2                !
 ! R102  R(61,65)                1.4413         estimate D2E/DX2                !
 ! R103  R(62,63)                1.4364         estimate D2E/DX2                !
 ! R104  R(63,64)                1.3785         estimate D2E/DX2                !
 ! R105  R(64,66)                1.4418         estimate D2E/DX2                !
 ! R106  R(65,66)                1.3852         estimate D2E/DX2                !
 ! A1    A(2,1,4)              107.6567         estimate D2E/DX2                !
 ! A2    A(2,1,7)              112.3542         estimate D2E/DX2                !
 ! A3    A(2,1,67)             113.525          estimate D2E/DX2                !
 ! A4    A(4,1,7)              103.309          estimate D2E/DX2                !
 ! A5    A(4,1,67)             112.5094         estimate D2E/DX2                !
 ! A6    A(7,1,67)             107.0782         estimate D2E/DX2                !
 ! A7    A(1,2,3)              107.3272         estimate D2E/DX2                !
 ! A8    A(1,2,10)             112.587          estimate D2E/DX2                !
 ! A9    A(1,2,68)             112.0923         estimate D2E/DX2                !
 ! A10   A(3,2,10)             103.4204         estimate D2E/DX2                !
 ! A11   A(3,2,68)             113.213          estimate D2E/DX2                !
 ! A12   A(10,2,68)            107.9509         estimate D2E/DX2                !
 ! A13   A(2,3,5)              103.7639         estimate D2E/DX2                !
 ! A14   A(2,3,12)             105.5997         estimate D2E/DX2                !
 ! A15   A(2,3,69)             116.369          estimate D2E/DX2                !
 ! A16   A(5,3,12)             106.7015         estimate D2E/DX2                !
 ! A17   A(5,3,69)             110.6267         estimate D2E/DX2                !
 ! A18   A(12,3,69)            112.9588         estimate D2E/DX2                !
 ! A19   A(1,4,5)              101.9583         estimate D2E/DX2                !
 ! A20   A(1,4,6)              106.5551         estimate D2E/DX2                !
 ! A21   A(1,4,71)             113.1265         estimate D2E/DX2                !
 ! A22   A(5,4,6)              112.4117         estimate D2E/DX2                !
 ! A23   A(5,4,71)             108.4805         estimate D2E/DX2                !
 ! A24   A(6,4,71)             113.7454         estimate D2E/DX2                !
 ! A25   A(3,5,4)              114.6083         estimate D2E/DX2                !
 ! A26   A(3,5,15)             119.8247         estimate D2E/DX2                !
 ! A27   A(4,5,15)             123.9554         estimate D2E/DX2                !
 ! A28   A(4,6,8)              103.4066         estimate D2E/DX2                !
 ! A29   A(4,6,17)             115.8705         estimate D2E/DX2                !
 ! A30   A(4,6,72)             111.8959         estimate D2E/DX2                !
 ! A31   A(8,6,17)             108.6894         estimate D2E/DX2                !
 ! A32   A(8,6,72)             108.9985         estimate D2E/DX2                !
 ! A33   A(17,6,72)            107.7381         estimate D2E/DX2                !
 ! A34   A(1,7,8)              111.9604         estimate D2E/DX2                !
 ! A35   A(1,7,9)              124.7547         estimate D2E/DX2                !
 ! A36   A(8,7,9)              120.1131         estimate D2E/DX2                !
 ! A37   A(6,8,7)              112.6996         estimate D2E/DX2                !
 ! A38   A(6,8,20)             121.4454         estimate D2E/DX2                !
 ! A39   A(7,8,20)             123.5713         estimate D2E/DX2                !
 ! A40   A(7,9,11)             117.0183         estimate D2E/DX2                !
 ! A41   A(7,9,22)             115.2614         estimate D2E/DX2                !
 ! A42   A(11,9,22)            119.4812         estimate D2E/DX2                !
 ! A43   A(2,10,11)            126.3389         estimate D2E/DX2                !
 ! A44   A(2,10,13)            111.7371         estimate D2E/DX2                !
 ! A45   A(11,10,13)           114.9486         estimate D2E/DX2                !
 ! A46   A(9,11,10)            115.9325         estimate D2E/DX2                !
 ! A47   A(9,11,25)            117.9045         estimate D2E/DX2                !
 ! A48   A(10,11,25)           117.7087         estimate D2E/DX2                !
 ! A49   A(3,12,13)            109.5515         estimate D2E/DX2                !
 ! A50   A(3,12,14)            124.4702         estimate D2E/DX2                !
 ! A51   A(13,12,14)           119.5106         estimate D2E/DX2                !
 ! A52   A(10,13,12)           108.0495         estimate D2E/DX2                !
 ! A53   A(10,13,27)           126.115          estimate D2E/DX2                !
 ! A54   A(12,13,27)           120.6688         estimate D2E/DX2                !
 ! A55   A(12,14,16)           116.7501         estimate D2E/DX2                !
 ! A56   A(12,14,29)           120.1834         estimate D2E/DX2                !
 ! A57   A(16,14,29)           121.1147         estimate D2E/DX2                !
 ! A58   A(5,15,16)            123.9311         estimate D2E/DX2                !
 ! A59   A(5,15,18)            119.4048         estimate D2E/DX2                !
 ! A60   A(16,15,18)           111.1051         estimate D2E/DX2                !
 ! A61   A(14,16,15)           106.8744         estimate D2E/DX2                !
 ! A62   A(14,16,32)           112.2298         estimate D2E/DX2                !
 ! A63   A(14,16,70)           108.8684         estimate D2E/DX2                !
 ! A64   A(15,16,32)           101.0683         estimate D2E/DX2                !
 ! A65   A(15,16,70)           115.1382         estimate D2E/DX2                !
 ! A66   A(32,16,70)           112.4426         estimate D2E/DX2                !
 ! A67   A(6,17,18)            120.0026         estimate D2E/DX2                !
 ! A68   A(6,17,19)            119.1132         estimate D2E/DX2                !
 ! A69   A(18,17,19)           118.3672         estimate D2E/DX2                !
 ! A70   A(15,18,17)           120.6291         estimate D2E/DX2                !
 ! A71   A(15,18,33)           106.7157         estimate D2E/DX2                !
 ! A72   A(17,18,33)           123.7195         estimate D2E/DX2                !
 ! A73   A(17,19,21)           118.9954         estimate D2E/DX2                !
 ! A74   A(17,19,35)           116.6563         estimate D2E/DX2                !
 ! A75   A(21,19,35)           118.1657         estimate D2E/DX2                !
 ! A76   A(8,20,21)            119.758          estimate D2E/DX2                !
 ! A77   A(8,20,23)            114.8236         estimate D2E/DX2                !
 ! A78   A(21,20,23)           120.2128         estimate D2E/DX2                !
 ! A79   A(19,21,20)           118.5739         estimate D2E/DX2                !
 ! A80   A(19,21,38)           118.8073         estimate D2E/DX2                !
 ! A81   A(20,21,38)           116.1884         estimate D2E/DX2                !
 ! A82   A(9,22,23)            122.0882         estimate D2E/DX2                !
 ! A83   A(9,22,24)            121.7461         estimate D2E/DX2                !
 ! A84   A(23,22,24)           107.6049         estimate D2E/DX2                !
 ! A85   A(20,23,22)           120.0887         estimate D2E/DX2                !
 ! A86   A(20,23,40)           122.1856         estimate D2E/DX2                !
 ! A87   A(22,23,40)           108.0926         estimate D2E/DX2                !
 ! A88   A(22,24,26)           117.9405         estimate D2E/DX2                !
 ! A89   A(22,24,41)           108.9153         estimate D2E/DX2                !
 ! A90   A(26,24,41)           120.7373         estimate D2E/DX2                !
 ! A91   A(11,25,26)           120.6326         estimate D2E/DX2                !
 ! A92   A(11,25,28)           124.0961         estimate D2E/DX2                !
 ! A93   A(26,25,28)           109.3373         estimate D2E/DX2                !
 ! A94   A(24,26,25)           121.2242         estimate D2E/DX2                !
 ! A95   A(24,26,44)           118.6924         estimate D2E/DX2                !
 ! A96   A(25,26,44)           110.1796         estimate D2E/DX2                !
 ! A97   A(13,27,28)           115.9603         estimate D2E/DX2                !
 ! A98   A(13,27,30)           120.246          estimate D2E/DX2                !
 ! A99   A(28,27,30)           121.8593         estimate D2E/DX2                !
 ! A100  A(25,28,27)           108.4127         estimate D2E/DX2                !
 ! A101  A(25,28,45)           101.7075         estimate D2E/DX2                !
 ! A102  A(25,28,73)           113.2262         estimate D2E/DX2                !
 ! A103  A(27,28,45)           113.1848         estimate D2E/DX2                !
 ! A104  A(27,28,73)           108.3763         estimate D2E/DX2                !
 ! A105  A(45,28,73)           111.8646         estimate D2E/DX2                !
 ! A106  A(14,29,30)           118.7865         estimate D2E/DX2                !
 ! A107  A(14,29,31)           118.2266         estimate D2E/DX2                !
 ! A108  A(30,29,31)           118.7936         estimate D2E/DX2                !
 ! A109  A(27,30,29)           118.6822         estimate D2E/DX2                !
 ! A110  A(27,30,47)           119.2888         estimate D2E/DX2                !
 ! A111  A(29,30,47)           118.0738         estimate D2E/DX2                !
 ! A112  A(29,31,34)           120.7531         estimate D2E/DX2                !
 ! A113  A(29,31,49)           121.9887         estimate D2E/DX2                !
 ! A114  A(34,31,49)           106.7034         estimate D2E/DX2                !
 ! A115  A(16,32,33)           111.2667         estimate D2E/DX2                !
 ! A116  A(16,32,34)           121.2802         estimate D2E/DX2                !
 ! A117  A(33,32,34)           118.1309         estimate D2E/DX2                !
 ! A118  A(18,33,32)           109.0768         estimate D2E/DX2                !
 ! A119  A(18,33,36)           118.516          estimate D2E/DX2                !
 ! A120  A(32,33,36)           121.2115         estimate D2E/DX2                !
 ! A121  A(31,34,32)           120.1081         estimate D2E/DX2                !
 ! A122  A(31,34,51)           107.8103         estimate D2E/DX2                !
 ! A123  A(32,34,51)           120.9399         estimate D2E/DX2                !
 ! A124  A(19,35,36)           122.8615         estimate D2E/DX2                !
 ! A125  A(19,35,37)           121.9699         estimate D2E/DX2                !
 ! A126  A(36,35,37)           106.2414         estimate D2E/DX2                !
 ! A127  A(33,36,35)           118.6427         estimate D2E/DX2                !
 ! A128  A(33,36,52)           120.0465         estimate D2E/DX2                !
 ! A129  A(35,36,52)           109.4943         estimate D2E/DX2                !
 ! A130  A(35,37,39)           119.6664         estimate D2E/DX2                !
 ! A131  A(35,37,53)           109.0944         estimate D2E/DX2                !
 ! A132  A(39,37,53)           120.1997         estimate D2E/DX2                !
 ! A133  A(21,38,39)           121.7377         estimate D2E/DX2                !
 ! A134  A(21,38,42)           122.4783         estimate D2E/DX2                !
 ! A135  A(39,38,42)           106.5186         estimate D2E/DX2                !
 ! A136  A(37,39,38)           119.508          estimate D2E/DX2                !
 ! A137  A(37,39,57)           120.3833         estimate D2E/DX2                !
 ! A138  A(38,39,57)           108.9466         estimate D2E/DX2                !
 ! A139  A(23,40,41)           108.3607         estimate D2E/DX2                !
 ! A140  A(23,40,42)           118.3549         estimate D2E/DX2                !
 ! A141  A(41,40,42)           121.1215         estimate D2E/DX2                !
 ! A142  A(24,41,40)           106.8097         estimate D2E/DX2                !
 ! A143  A(24,41,43)           120.5451         estimate D2E/DX2                !
 ! A144  A(40,41,43)           119.4135         estimate D2E/DX2                !
 ! A145  A(38,42,40)           120.3003         estimate D2E/DX2                !
 ! A146  A(38,42,58)           109.0188         estimate D2E/DX2                !
 ! A147  A(40,42,58)           119.5415         estimate D2E/DX2                !
 ! A148  A(41,43,46)           119.4616         estimate D2E/DX2                !
 ! A149  A(41,43,59)           119.5288         estimate D2E/DX2                !
 ! A150  A(46,43,59)           108.7557         estimate D2E/DX2                !
 ! A151  A(26,44,45)           106.1837         estimate D2E/DX2                !
 ! A152  A(26,44,46)           120.1003         estimate D2E/DX2                !
 ! A153  A(45,44,46)           121.1009         estimate D2E/DX2                !
 ! A154  A(28,45,44)           111.5654         estimate D2E/DX2                !
 ! A155  A(28,45,48)           120.8775         estimate D2E/DX2                !
 ! A156  A(44,45,48)           119.7714         estimate D2E/DX2                !
 ! A157  A(43,46,44)           120.4353         estimate D2E/DX2                !
 ! A158  A(43,46,61)           107.7072         estimate D2E/DX2                !
 ! A159  A(44,46,61)           119.4837         estimate D2E/DX2                !
 ! A160  A(30,47,48)           119.5914         estimate D2E/DX2                !
 ! A161  A(30,47,50)           120.9289         estimate D2E/DX2                !
 ! A162  A(48,47,50)           108.0482         estimate D2E/DX2                !
 ! A163  A(45,48,47)           121.1876         estimate D2E/DX2                !
 ! A164  A(45,48,62)           119.8158         estimate D2E/DX2                !
 ! A165  A(47,48,62)           107.6267         estimate D2E/DX2                !
 ! A166  A(31,49,50)           119.3602         estimate D2E/DX2                !
 ! A167  A(31,49,54)           109.4466         estimate D2E/DX2                !
 ! A168  A(50,49,54)           120.0001         estimate D2E/DX2                !
 ! A169  A(47,50,49)           120.3143         estimate D2E/DX2                !
 ! A170  A(47,50,63)           108.7651         estimate D2E/DX2                !
 ! A171  A(49,50,63)           119.9794         estimate D2E/DX2                !
 ! A172  A(34,51,52)           120.1017         estimate D2E/DX2                !
 ! A173  A(34,51,54)           107.5868         estimate D2E/DX2                !
 ! A174  A(52,51,54)           119.4939         estimate D2E/DX2                !
 ! A175  A(36,52,51)           118.3191         estimate D2E/DX2                !
 ! A176  A(36,52,53)           107.4268         estimate D2E/DX2                !
 ! A177  A(51,52,53)           120.6905         estimate D2E/DX2                !
 ! A178  A(37,53,52)           107.2644         estimate D2E/DX2                !
 ! A179  A(37,53,55)           119.56           estimate D2E/DX2                !
 ! A180  A(52,53,55)           119.6062         estimate D2E/DX2                !
 ! A181  A(49,54,51)           107.8574         estimate D2E/DX2                !
 ! A182  A(49,54,56)           119.7221         estimate D2E/DX2                !
 ! A183  A(51,54,56)           119.9541         estimate D2E/DX2                !
 ! A184  A(53,55,56)           119.8527         estimate D2E/DX2                !
 ! A185  A(53,55,60)           119.9332         estimate D2E/DX2                !
 ! A186  A(56,55,60)           107.99           estimate D2E/DX2                !
 ! A187  A(54,56,55)           120.2062         estimate D2E/DX2                !
 ! A188  A(54,56,64)           120.0073         estimate D2E/DX2                !
 ! A189  A(55,56,64)           107.877          estimate D2E/DX2                !
 ! A190  A(39,57,58)           107.731          estimate D2E/DX2                !
 ! A191  A(39,57,60)           119.3889         estimate D2E/DX2                !
 ! A192  A(58,57,60)           120.0274         estimate D2E/DX2                !
 ! A193  A(42,58,57)           107.5457         estimate D2E/DX2                !
 ! A194  A(42,58,59)           119.5208         estimate D2E/DX2                !
 ! A195  A(57,58,59)           120.3281         estimate D2E/DX2                !
 ! A196  A(43,59,58)           120.6715         estimate D2E/DX2                !
 ! A197  A(43,59,65)           107.0969         estimate D2E/DX2                !
 ! A198  A(58,59,65)           119.7358         estimate D2E/DX2                !
 ! A199  A(55,60,57)           120.156          estimate D2E/DX2                !
 ! A200  A(55,60,66)           108.342          estimate D2E/DX2                !
 ! A201  A(57,60,66)           119.8301         estimate D2E/DX2                !
 ! A202  A(46,61,62)           119.1151         estimate D2E/DX2                !
 ! A203  A(46,61,65)           108.1012         estimate D2E/DX2                !
 ! A204  A(62,61,65)           120.2171         estimate D2E/DX2                !
 ! A205  A(48,62,61)           120.5017         estimate D2E/DX2                !
 ! A206  A(48,62,63)           107.8901         estimate D2E/DX2                !
 ! A207  A(61,62,63)           119.6809         estimate D2E/DX2                !
 ! A208  A(50,63,62)           107.4065         estimate D2E/DX2                !
 ! A209  A(50,63,64)           119.3963         estimate D2E/DX2                !
 ! A210  A(62,63,64)           120.3574         estimate D2E/DX2                !
 ! A211  A(56,64,63)           120.6189         estimate D2E/DX2                !
 ! A212  A(56,64,66)           107.8673         estimate D2E/DX2                !
 ! A213  A(63,64,66)           119.9946         estimate D2E/DX2                !
 ! A214  A(59,65,61)           108.3006         estimate D2E/DX2                !
 ! A215  A(59,65,66)           119.8319         estimate D2E/DX2                !
 ! A216  A(61,65,66)           119.6837         estimate D2E/DX2                !
 ! A217  A(60,66,64)           107.838          estimate D2E/DX2                !
 ! A218  A(60,66,65)           120.1682         estimate D2E/DX2                !
 ! A219  A(64,66,65)           119.9837         estimate D2E/DX2                !
 ! D1    D(4,1,2,3)             -3.7437         estimate D2E/DX2                !
 ! D2    D(4,1,2,10)          -116.8919         estimate D2E/DX2                !
 ! D3    D(4,1,2,68)           121.1629         estimate D2E/DX2                !
 ! D4    D(7,1,2,3)            109.3424         estimate D2E/DX2                !
 ! D5    D(7,1,2,10)            -3.8057         estimate D2E/DX2                !
 ! D6    D(7,1,2,68)          -125.751          estimate D2E/DX2                !
 ! D7    D(67,1,2,3)          -128.966          estimate D2E/DX2                !
 ! D8    D(67,1,2,10)          117.8859         estimate D2E/DX2                !
 ! D9    D(67,1,2,68)           -4.0594         estimate D2E/DX2                !
 ! D10   D(2,1,4,5)             15.028          estimate D2E/DX2                !
 ! D11   D(2,1,4,6)            133.0317         estimate D2E/DX2                !
 ! D12   D(2,1,4,71)          -101.2535         estimate D2E/DX2                !
 ! D13   D(7,1,4,5)           -104.0139         estimate D2E/DX2                !
 ! D14   D(7,1,4,6)             13.9898         estimate D2E/DX2                !
 ! D15   D(7,1,4,71)           139.7046         estimate D2E/DX2                !
 ! D16   D(67,1,4,5)           140.8546         estimate D2E/DX2                !
 ! D17   D(67,1,4,6)          -101.1417         estimate D2E/DX2                !
 ! D18   D(67,1,4,71)           24.5731         estimate D2E/DX2                !
 ! D19   D(2,1,7,8)           -129.3809         estimate D2E/DX2                !
 ! D20   D(2,1,7,9)             30.3698         estimate D2E/DX2                !
 ! D21   D(4,1,7,8)            -13.6407         estimate D2E/DX2                !
 ! D22   D(4,1,7,9)            146.11           estimate D2E/DX2                !
 ! D23   D(67,1,7,8)           105.3209         estimate D2E/DX2                !
 ! D24   D(67,1,7,9)           -94.9284         estimate D2E/DX2                !
 ! D25   D(1,2,3,5)             -9.2487         estimate D2E/DX2                !
 ! D26   D(1,2,3,12)          -121.3094         estimate D2E/DX2                !
 ! D27   D(1,2,3,69)           112.5034         estimate D2E/DX2                !
 ! D28   D(10,2,3,5)           109.966          estimate D2E/DX2                !
 ! D29   D(10,2,3,12)           -2.0948         estimate D2E/DX2                !
 ! D30   D(10,2,3,69)         -128.282          estimate D2E/DX2                !
 ! D31   D(68,2,3,5)          -133.4764         estimate D2E/DX2                !
 ! D32   D(68,2,3,12)          114.4629         estimate D2E/DX2                !
 ! D33   D(68,2,3,69)          -11.7243         estimate D2E/DX2                !
 ! D34   D(1,2,10,11)          -23.9214         estimate D2E/DX2                !
 ! D35   D(1,2,10,13)          125.0614         estimate D2E/DX2                !
 ! D36   D(3,2,10,11)         -139.4452         estimate D2E/DX2                !
 ! D37   D(3,2,10,13)            9.5376         estimate D2E/DX2                !
 ! D38   D(68,2,10,11)         100.3393         estimate D2E/DX2                !
 ! D39   D(68,2,10,13)        -110.678          estimate D2E/DX2                !
 ! D40   D(2,3,5,4)             20.8245         estimate D2E/DX2                !
 ! D41   D(2,3,5,15)          -145.2728         estimate D2E/DX2                !
 ! D42   D(12,3,5,4)           132.0818         estimate D2E/DX2                !
 ! D43   D(12,3,5,15)          -34.0156         estimate D2E/DX2                !
 ! D44   D(69,3,5,4)          -104.6827         estimate D2E/DX2                !
 ! D45   D(69,3,5,15)           89.22           estimate D2E/DX2                !
 ! D46   D(2,3,12,13)           -5.786          estimate D2E/DX2                !
 ! D47   D(2,3,12,14)          145.5984         estimate D2E/DX2                !
 ! D48   D(5,3,12,13)         -115.7648         estimate D2E/DX2                !
 ! D49   D(5,3,12,14)           35.6196         estimate D2E/DX2                !
 ! D50   D(69,3,12,13)         122.4632         estimate D2E/DX2                !
 ! D51   D(69,3,12,14)         -86.1523         estimate D2E/DX2                !
 ! D52   D(1,4,5,3)            -22.7744         estimate D2E/DX2                !
 ! D53   D(1,4,5,15)           142.6709         estimate D2E/DX2                !
 ! D54   D(6,4,5,3)           -136.5028         estimate D2E/DX2                !
 ! D55   D(6,4,5,15)            28.9426         estimate D2E/DX2                !
 ! D56   D(71,4,5,3)            96.8354         estimate D2E/DX2                !
 ! D57   D(71,4,5,15)          -97.7193         estimate D2E/DX2                !
 ! D58   D(1,4,6,8)             -9.8716         estimate D2E/DX2                !
 ! D59   D(1,4,6,17)          -128.6676         estimate D2E/DX2                !
 ! D60   D(1,4,6,72)           107.2886         estimate D2E/DX2                !
 ! D61   D(5,4,6,8)            101.0085         estimate D2E/DX2                !
 ! D62   D(5,4,6,17)           -17.7875         estimate D2E/DX2                !
 ! D63   D(5,4,6,72)          -141.8313         estimate D2E/DX2                !
 ! D64   D(71,4,6,8)          -135.2107         estimate D2E/DX2                !
 ! D65   D(71,4,6,17)          105.9934         estimate D2E/DX2                !
 ! D66   D(71,4,6,72)          -18.0504         estimate D2E/DX2                !
 ! D67   D(3,5,15,16)           -1.2812         estimate D2E/DX2                !
 ! D68   D(3,5,15,18)          150.0387         estimate D2E/DX2                !
 ! D69   D(4,5,15,16)         -166.0116         estimate D2E/DX2                !
 ! D70   D(4,5,15,18)          -14.6917         estimate D2E/DX2                !
 ! D71   D(4,6,8,7)              1.6968         estimate D2E/DX2                !
 ! D72   D(4,6,8,20)          -161.7135         estimate D2E/DX2                !
 ! D73   D(17,6,8,7)           125.3498         estimate D2E/DX2                !
 ! D74   D(17,6,8,20)          -38.0606         estimate D2E/DX2                !
 ! D75   D(72,6,8,7)          -117.4808         estimate D2E/DX2                !
 ! D76   D(72,6,8,20)           79.1088         estimate D2E/DX2                !
 ! D77   D(4,6,17,18)           -5.501          estimate D2E/DX2                !
 ! D78   D(4,6,17,19)          156.2183         estimate D2E/DX2                !
 ! D79   D(8,6,17,18)         -121.3545         estimate D2E/DX2                !
 ! D80   D(8,6,17,19)           40.3649         estimate D2E/DX2                !
 ! D81   D(72,6,17,18)         120.6745         estimate D2E/DX2                !
 ! D82   D(72,6,17,19)         -77.6061         estimate D2E/DX2                !
 ! D83   D(1,7,8,6)              7.8804         estimate D2E/DX2                !
 ! D84   D(1,7,8,20)           170.8819         estimate D2E/DX2                !
 ! D85   D(9,7,8,6)           -152.9281         estimate D2E/DX2                !
 ! D86   D(9,7,8,20)            10.0734         estimate D2E/DX2                !
 ! D87   D(1,7,9,11)           -29.9258         estimate D2E/DX2                !
 ! D88   D(1,7,9,22)          -178.2972         estimate D2E/DX2                !
 ! D89   D(8,7,9,11)           128.2923         estimate D2E/DX2                !
 ! D90   D(8,7,9,22)           -20.0791         estimate D2E/DX2                !
 ! D91   D(6,8,20,21)           15.5765         estimate D2E/DX2                !
 ! D92   D(6,8,20,23)          170.1486         estimate D2E/DX2                !
 ! D93   D(7,8,20,21)         -145.9945         estimate D2E/DX2                !
 ! D94   D(7,8,20,23)            8.5776         estimate D2E/DX2                !
 ! D95   D(7,9,11,10)            0.9569         estimate D2E/DX2                !
 ! D96   D(7,9,11,25)         -146.4568         estimate D2E/DX2                !
 ! D97   D(22,9,11,10)         147.9456         estimate D2E/DX2                !
 ! D98   D(22,9,11,25)           0.5319         estimate D2E/DX2                !
 ! D99   D(7,9,22,23)           12.2864         estimate D2E/DX2                !
 ! D100  D(7,9,22,24)          156.1624         estimate D2E/DX2                !
 ! D101  D(11,9,22,23)        -135.2566         estimate D2E/DX2                !
 ! D102  D(11,9,22,24)           8.6194         estimate D2E/DX2                !
 ! D103  D(2,10,11,9)           26.2787         estimate D2E/DX2                !
 ! D104  D(2,10,11,25)         173.7582         estimate D2E/DX2                !
 ! D105  D(13,10,11,9)        -121.8565         estimate D2E/DX2                !
 ! D106  D(13,10,11,25)         25.623          estimate D2E/DX2                !
 ! D107  D(2,10,13,12)         -13.5908         estimate D2E/DX2                !
 ! D108  D(2,10,13,27)        -167.9936         estimate D2E/DX2                !
 ! D109  D(11,10,13,12)        139.1637         estimate D2E/DX2                !
 ! D110  D(11,10,13,27)        -15.2391         estimate D2E/DX2                !
 ! D111  D(9,11,25,26)          -7.7739         estimate D2E/DX2                !
 ! D112  D(9,11,25,28)         142.1758         estimate D2E/DX2                !
 ! D113  D(10,11,25,26)       -154.6071         estimate D2E/DX2                !
 ! D114  D(10,11,25,28)         -4.6574         estimate D2E/DX2                !
 ! D115  D(3,12,13,10)          11.8162         estimate D2E/DX2                !
 ! D116  D(3,12,13,27)         167.8765         estimate D2E/DX2                !
 ! D117  D(14,12,13,10)       -141.2024         estimate D2E/DX2                !
 ! D118  D(14,12,13,27)         14.8579         estimate D2E/DX2                !
 ! D119  D(3,12,14,16)          -0.4141         estimate D2E/DX2                !
 ! D120  D(3,12,14,29)        -164.6974         estimate D2E/DX2                !
 ! D121  D(13,12,14,16)        148.3478         estimate D2E/DX2                !
 ! D122  D(13,12,14,29)        -15.9355         estimate D2E/DX2                !
 ! D123  D(10,13,27,28)        -17.3659         estimate D2E/DX2                !
 ! D124  D(10,13,27,30)        147.1011         estimate D2E/DX2                !
 ! D125  D(12,13,27,28)       -168.8384         estimate D2E/DX2                !
 ! D126  D(12,13,27,30)         -4.3715         estimate D2E/DX2                !
 ! D127  D(12,14,16,15)        -34.3381         estimate D2E/DX2                !
 ! D128  D(12,14,16,32)       -144.2576         estimate D2E/DX2                !
 ! D129  D(12,14,16,70)         90.6072         estimate D2E/DX2                !
 ! D130  D(29,14,16,15)        129.7891         estimate D2E/DX2                !
 ! D131  D(29,14,16,32)         19.8696         estimate D2E/DX2                !
 ! D132  D(29,14,16,70)       -105.2656         estimate D2E/DX2                !
 ! D133  D(12,14,29,30)          6.9955         estimate D2E/DX2                !
 ! D134  D(12,14,29,31)        163.73           estimate D2E/DX2                !
 ! D135  D(16,14,29,30)       -156.5927         estimate D2E/DX2                !
 ! D136  D(16,14,29,31)          0.1417         estimate D2E/DX2                !
 ! D137  D(5,15,16,14)          37.0543         estimate D2E/DX2                !
 ! D138  D(5,15,16,32)         154.5819         estimate D2E/DX2                !
 ! D139  D(5,15,16,70)         -83.9862         estimate D2E/DX2                !
 ! D140  D(18,15,16,14)       -116.3204         estimate D2E/DX2                !
 ! D141  D(18,15,16,32)          1.2072         estimate D2E/DX2                !
 ! D142  D(18,15,16,70)        122.639          estimate D2E/DX2                !
 ! D143  D(5,15,18,17)         -12.6179         estimate D2E/DX2                !
 ! D144  D(5,15,18,33)        -160.9833         estimate D2E/DX2                !
 ! D145  D(16,15,18,17)        142.116          estimate D2E/DX2                !
 ! D146  D(16,15,18,33)         -6.2494         estimate D2E/DX2                !
 ! D147  D(14,16,32,33)        117.8635         estimate D2E/DX2                !
 ! D148  D(14,16,32,34)        -28.077          estimate D2E/DX2                !
 ! D149  D(15,16,32,33)          4.3181         estimate D2E/DX2                !
 ! D150  D(15,16,32,34)       -141.6224         estimate D2E/DX2                !
 ! D151  D(70,16,32,33)       -118.9888         estimate D2E/DX2                !
 ! D152  D(70,16,32,34)         95.0708         estimate D2E/DX2                !
 ! D153  D(6,17,18,15)          21.8689         estimate D2E/DX2                !
 ! D154  D(6,17,18,33)         164.7162         estimate D2E/DX2                !
 ! D155  D(19,17,18,15)       -139.9851         estimate D2E/DX2                !
 ! D156  D(19,17,18,33)          2.8623         estimate D2E/DX2                !
 ! D157  D(6,17,19,21)         -21.1104         estimate D2E/DX2                !
 ! D158  D(6,17,19,35)        -173.0015         estimate D2E/DX2                !
 ! D159  D(18,17,19,21)        140.9081         estimate D2E/DX2                !
 ! D160  D(18,17,19,35)        -10.983          estimate D2E/DX2                !
 ! D161  D(15,18,33,32)          8.8615         estimate D2E/DX2                !
 ! D162  D(15,18,33,36)        153.1442         estimate D2E/DX2                !
 ! D163  D(17,18,33,32)       -138.2771         estimate D2E/DX2                !
 ! D164  D(17,18,33,36)          6.0057         estimate D2E/DX2                !
 ! D165  D(17,19,21,20)         -4.8357         estimate D2E/DX2                !
 ! D166  D(17,19,21,38)       -155.6458         estimate D2E/DX2                !
 ! D167  D(35,19,21,20)        146.6336         estimate D2E/DX2                !
 ! D168  D(35,19,21,38)         -4.1765         estimate D2E/DX2                !
 ! D169  D(17,19,35,36)         11.0308         estimate D2E/DX2                !
 ! D170  D(17,19,35,37)        153.7499         estimate D2E/DX2                !
 ! D171  D(21,19,35,36)       -141.1005         estimate D2E/DX2                !
 ! D172  D(21,19,35,37)          1.6186         estimate D2E/DX2                !
 ! D173  D(8,20,21,19)           7.9336         estimate D2E/DX2                !
 ! D174  D(8,20,21,38)         159.4937         estimate D2E/DX2                !
 ! D175  D(23,20,21,19)       -145.2611         estimate D2E/DX2                !
 ! D176  D(23,20,21,38)          6.2991         estimate D2E/DX2                !
 ! D177  D(8,20,23,22)         -16.2763         estimate D2E/DX2                !
 ! D178  D(8,20,23,40)        -158.3465         estimate D2E/DX2                !
 ! D179  D(21,20,23,22)        138.1706         estimate D2E/DX2                !
 ! D180  D(21,20,23,40)         -3.8995         estimate D2E/DX2                !
 ! D181  D(19,21,38,39)          4.1916         estimate D2E/DX2                !
 ! D182  D(19,21,38,42)        146.3786         estimate D2E/DX2                !
 ! D183  D(20,21,38,39)       -147.2993         estimate D2E/DX2                !
 ! D184  D(20,21,38,42)         -5.1123         estimate D2E/DX2                !
 ! D185  D(9,22,23,20)           6.1281         estimate D2E/DX2                !
 ! D186  D(9,22,23,40)         152.9464         estimate D2E/DX2                !
 ! D187  D(24,22,23,20)       -142.1385         estimate D2E/DX2                !
 ! D188  D(24,22,23,40)          4.6798         estimate D2E/DX2                !
 ! D189  D(9,22,24,26)         -10.3906         estimate D2E/DX2                !
 ! D190  D(9,22,24,41)        -152.8867         estimate D2E/DX2                !
 ! D191  D(23,22,24,26)        138.0075         estimate D2E/DX2                !
 ! D192  D(23,22,24,41)         -4.4887         estimate D2E/DX2                !
 ! D193  D(20,23,40,41)        142.8462         estimate D2E/DX2                !
 ! D194  D(20,23,40,42)         -0.0876         estimate D2E/DX2                !
 ! D195  D(22,23,40,41)         -3.1304         estimate D2E/DX2                !
 ! D196  D(22,23,40,42)       -146.0642         estimate D2E/DX2                !
 ! D197  D(22,24,26,25)          2.9323         estimate D2E/DX2                !
 ! D198  D(22,24,26,44)       -139.4072         estimate D2E/DX2                !
 ! D199  D(41,24,26,25)        140.8599         estimate D2E/DX2                !
 ! D200  D(41,24,26,44)         -1.4796         estimate D2E/DX2                !
 ! D201  D(22,24,41,40)          2.55           estimate D2E/DX2                !
 ! D202  D(22,24,41,43)        143.2614         estimate D2E/DX2                !
 ! D203  D(26,24,41,40)       -138.7125         estimate D2E/DX2                !
 ! D204  D(26,24,41,43)          1.999          estimate D2E/DX2                !
 ! D205  D(11,25,26,24)          6.0731         estimate D2E/DX2                !
 ! D206  D(11,25,26,44)        151.2524         estimate D2E/DX2                !
 ! D207  D(28,25,26,24)       -147.8568         estimate D2E/DX2                !
 ! D208  D(28,25,26,44)         -2.6774         estimate D2E/DX2                !
 ! D209  D(11,25,28,27)        -25.6408         estimate D2E/DX2                !
 ! D210  D(11,25,28,45)       -145.1618         estimate D2E/DX2                !
 ! D211  D(11,25,28,73)         94.6529         estimate D2E/DX2                !
 ! D212  D(26,25,28,27)        127.1886         estimate D2E/DX2                !
 ! D213  D(26,25,28,45)          7.6676         estimate D2E/DX2                !
 ! D214  D(26,25,28,73)       -112.5177         estimate D2E/DX2                !
 ! D215  D(24,26,44,45)        142.2561         estimate D2E/DX2                !
 ! D216  D(24,26,44,46)          0.0768         estimate D2E/DX2                !
 ! D217  D(25,26,44,45)         -3.9196         estimate D2E/DX2                !
 ! D218  D(25,26,44,46)       -146.099          estimate D2E/DX2                !
 ! D219  D(13,27,28,25)         34.7489         estimate D2E/DX2                !
 ! D220  D(13,27,28,45)        146.7875         estimate D2E/DX2                !
 ! D221  D(13,27,28,73)        -88.5196         estimate D2E/DX2                !
 ! D222  D(30,27,28,25)       -129.4455         estimate D2E/DX2                !
 ! D223  D(30,27,28,45)        -17.4069         estimate D2E/DX2                !
 ! D224  D(30,27,28,73)        107.286          estimate D2E/DX2                !
 ! D225  D(13,27,30,29)         -4.4937         estimate D2E/DX2                !
 ! D226  D(13,27,30,47)       -161.7026         estimate D2E/DX2                !
 ! D227  D(28,27,30,29)        159.0382         estimate D2E/DX2                !
 ! D228  D(28,27,30,47)          1.8294         estimate D2E/DX2                !
 ! D229  D(25,28,45,44)        -10.3775         estimate D2E/DX2                !
 ! D230  D(25,28,45,48)        138.7616         estimate D2E/DX2                !
 ! D231  D(27,28,45,44)       -126.4599         estimate D2E/DX2                !
 ! D232  D(27,28,45,48)         22.6792         estimate D2E/DX2                !
 ! D233  D(73,28,45,44)        110.7612         estimate D2E/DX2                !
 ! D234  D(73,28,45,48)       -100.0997         estimate D2E/DX2                !
 ! D235  D(14,29,30,27)          3.3344         estimate D2E/DX2                !
 ! D236  D(14,29,30,47)        160.8206         estimate D2E/DX2                !
 ! D237  D(31,29,30,27)       -153.2673         estimate D2E/DX2                !
 ! D238  D(31,29,30,47)          4.219          estimate D2E/DX2                !
 ! D239  D(14,29,31,34)        -14.4309         estimate D2E/DX2                !
 ! D240  D(14,29,31,49)       -154.424          estimate D2E/DX2                !
 ! D241  D(30,29,31,34)        142.3019         estimate D2E/DX2                !
 ! D242  D(30,29,31,49)          2.3088         estimate D2E/DX2                !
 ! D243  D(27,30,47,48)         10.0866         estimate D2E/DX2                !
 ! D244  D(27,30,47,50)        149.1651         estimate D2E/DX2                !
 ! D245  D(29,30,47,48)       -147.2599         estimate D2E/DX2                !
 ! D246  D(29,30,47,50)         -8.1814         estimate D2E/DX2                !
 ! D247  D(29,31,34,32)          6.7834         estimate D2E/DX2                !
 ! D248  D(29,31,34,51)       -137.3646         estimate D2E/DX2                !
 ! D249  D(49,31,34,32)        152.0833         estimate D2E/DX2                !
 ! D250  D(49,31,34,51)          7.9353         estimate D2E/DX2                !
 ! D251  D(29,31,49,50)         -5.0818         estimate D2E/DX2                !
 ! D252  D(29,31,49,54)        138.7238         estimate D2E/DX2                !
 ! D253  D(34,31,49,50)       -149.8549         estimate D2E/DX2                !
 ! D254  D(34,31,49,54)         -6.0493         estimate D2E/DX2                !
 ! D255  D(16,32,33,18)         -8.532          estimate D2E/DX2                !
 ! D256  D(16,32,33,36)       -151.6783         estimate D2E/DX2                !
 ! D257  D(34,32,33,18)        138.5964         estimate D2E/DX2                !
 ! D258  D(34,32,33,36)         -4.5499         estimate D2E/DX2                !
 ! D259  D(16,32,34,31)         16.0366         estimate D2E/DX2                !
 ! D260  D(16,32,34,51)        155.4849         estimate D2E/DX2                !
 ! D261  D(33,32,34,31)       -127.6767         estimate D2E/DX2                !
 ! D262  D(33,32,34,51)         11.7716         estimate D2E/DX2                !
 ! D263  D(18,33,36,35)         -6.1676         estimate D2E/DX2                !
 ! D264  D(18,33,36,52)       -145.211          estimate D2E/DX2                !
 ! D265  D(32,33,36,35)        133.6596         estimate D2E/DX2                !
 ! D266  D(32,33,36,52)         -5.3838         estimate D2E/DX2                !
 ! D267  D(31,34,51,52)        134.5173         estimate D2E/DX2                !
 ! D268  D(31,34,51,54)         -6.8104         estimate D2E/DX2                !
 ! D269  D(32,34,51,52)         -9.274          estimate D2E/DX2                !
 ! D270  D(32,34,51,54)       -150.6017         estimate D2E/DX2                !
 ! D271  D(19,35,36,33)         -2.4358         estimate D2E/DX2                !
 ! D272  D(19,35,36,52)        140.5576         estimate D2E/DX2                !
 ! D273  D(37,35,36,33)       -150.0776         estimate D2E/DX2                !
 ! D274  D(37,35,36,52)         -7.0842         estimate D2E/DX2                !
 ! D275  D(19,35,37,39)          1.1027         estimate D2E/DX2                !
 ! D276  D(19,35,37,53)       -142.9723         estimate D2E/DX2                !
 ! D277  D(36,35,37,39)        149.1008         estimate D2E/DX2                !
 ! D278  D(36,35,37,53)          5.0258         estimate D2E/DX2                !
 ! D279  D(33,36,52,51)          7.9023         estimate D2E/DX2                !
 ! D280  D(33,36,52,53)        148.8739         estimate D2E/DX2                !
 ! D281  D(35,36,52,51)       -134.4897         estimate D2E/DX2                !
 ! D282  D(35,36,52,53)          6.4818         estimate D2E/DX2                !
 ! D283  D(35,37,39,38)         -1.2139         estimate D2E/DX2                !
 ! D284  D(35,37,39,57)       -141.0585         estimate D2E/DX2                !
 ! D285  D(53,37,39,38)        138.8814         estimate D2E/DX2                !
 ! D286  D(53,37,39,57)         -0.9633         estimate D2E/DX2                !
 ! D287  D(35,37,53,52)         -1.1372         estimate D2E/DX2                !
 ! D288  D(35,37,53,55)        139.3085         estimate D2E/DX2                !
 ! D289  D(39,37,53,52)       -144.9888         estimate D2E/DX2                !
 ! D290  D(39,37,53,55)         -4.5431         estimate D2E/DX2                !
 ! D291  D(21,38,39,37)         -1.4747         estimate D2E/DX2                !
 ! D292  D(21,38,39,57)        142.4985         estimate D2E/DX2                !
 ! D293  D(42,38,39,37)       -148.8277         estimate D2E/DX2                !
 ! D294  D(42,38,39,57)         -4.8544         estimate D2E/DX2                !
 ! D295  D(21,38,42,40)          1.3569         estimate D2E/DX2                !
 ! D296  D(21,38,42,58)       -142.2981         estimate D2E/DX2                !
 ! D297  D(39,38,42,40)        148.4104         estimate D2E/DX2                !
 ! D298  D(39,38,42,58)          4.7554         estimate D2E/DX2                !
 ! D299  D(37,39,57,58)        146.7528         estimate D2E/DX2                !
 ! D300  D(37,39,57,60)          5.2122         estimate D2E/DX2                !
 ! D301  D(38,39,57,58)          3.1488         estimate D2E/DX2                !
 ! D302  D(38,39,57,60)       -138.3918         estimate D2E/DX2                !
 ! D303  D(23,40,41,24)          0.3684         estimate D2E/DX2                !
 ! D304  D(23,40,41,43)       -140.8721         estimate D2E/DX2                !
 ! D305  D(42,40,41,24)        142.0816         estimate D2E/DX2                !
 ! D306  D(42,40,41,43)          0.841          estimate D2E/DX2                !
 ! D307  D(23,40,42,38)          1.4067         estimate D2E/DX2                !
 ! D308  D(23,40,42,58)        141.3147         estimate D2E/DX2                !
 ! D309  D(41,40,42,38)       -136.6628         estimate D2E/DX2                !
 ! D310  D(41,40,42,58)          3.2453         estimate D2E/DX2                !
 ! D311  D(24,41,43,46)         -1.0561         estimate D2E/DX2                !
 ! D312  D(24,41,43,59)       -139.1629         estimate D2E/DX2                !
 ! D313  D(40,41,43,46)        134.8475         estimate D2E/DX2                !
 ! D314  D(40,41,43,59)         -3.2592         estimate D2E/DX2                !
 ! D315  D(38,42,58,57)         -2.8793         estimate D2E/DX2                !
 ! D316  D(38,42,58,59)        139.0856         estimate D2E/DX2                !
 ! D317  D(40,42,58,57)       -146.8538         estimate D2E/DX2                !
 ! D318  D(40,42,58,59)         -4.8889         estimate D2E/DX2                !
 ! D319  D(41,43,46,44)         -0.3495         estimate D2E/DX2                !
 ! D320  D(41,43,46,61)       -142.2377         estimate D2E/DX2                !
 ! D321  D(59,43,46,44)        141.8008         estimate D2E/DX2                !
 ! D322  D(59,43,46,61)         -0.0875         estimate D2E/DX2                !
 ! D323  D(41,43,59,58)          1.5914         estimate D2E/DX2                !
 ! D324  D(41,43,59,65)        143.3821         estimate D2E/DX2                !
 ! D325  D(46,43,59,58)       -140.5293         estimate D2E/DX2                !
 ! D326  D(46,43,59,65)          1.2614         estimate D2E/DX2                !
 ! D327  D(26,44,45,28)          9.1895         estimate D2E/DX2                !
 ! D328  D(26,44,45,48)       -140.3333         estimate D2E/DX2                !
 ! D329  D(46,44,45,28)        150.9056         estimate D2E/DX2                !
 ! D330  D(46,44,45,48)          1.3828         estimate D2E/DX2                !
 ! D331  D(26,44,46,43)          0.8413         estimate D2E/DX2                !
 ! D332  D(26,44,46,61)        138.354          estimate D2E/DX2                !
 ! D333  D(45,44,46,43)       -135.7063         estimate D2E/DX2                !
 ! D334  D(45,44,46,61)          1.8063         estimate D2E/DX2                !
 ! D335  D(28,45,48,47)        -12.474          estimate D2E/DX2                !
 ! D336  D(28,45,48,62)       -151.488          estimate D2E/DX2                !
 ! D337  D(44,45,48,47)        134.1873         estimate D2E/DX2                !
 ! D338  D(44,45,48,62)         -4.8267         estimate D2E/DX2                !
 ! D339  D(43,46,61,62)        140.8832         estimate D2E/DX2                !
 ! D340  D(43,46,61,65)         -1.126          estimate D2E/DX2                !
 ! D341  D(44,46,61,62)         -1.432          estimate D2E/DX2                !
 ! D342  D(44,46,61,65)       -143.4413         estimate D2E/DX2                !
 ! D343  D(30,47,48,45)         -4.8526         estimate D2E/DX2                !
 ! D344  D(30,47,48,62)        138.4857         estimate D2E/DX2                !
 ! D345  D(50,47,48,45)       -148.6273         estimate D2E/DX2                !
 ! D346  D(50,47,48,62)         -5.289          estimate D2E/DX2                !
 ! D347  D(30,47,50,49)          5.5811         estimate D2E/DX2                !
 ! D348  D(30,47,50,63)       -138.5123         estimate D2E/DX2                !
 ! D349  D(48,47,50,49)        148.7781         estimate D2E/DX2                !
 ! D350  D(48,47,50,63)          4.6847         estimate D2E/DX2                !
 ! D351  D(45,48,62,61)          5.2065         estimate D2E/DX2                !
 ! D352  D(45,48,62,63)        147.7727         estimate D2E/DX2                !
 ! D353  D(47,48,62,61)       -138.7269         estimate D2E/DX2                !
 ! D354  D(47,48,62,63)          3.8394         estimate D2E/DX2                !
 ! D355  D(31,49,50,47)          1.0856         estimate D2E/DX2                !
 ! D356  D(31,49,50,63)        141.2145         estimate D2E/DX2                !
 ! D357  D(54,49,50,47)       -138.8999         estimate D2E/DX2                !
 ! D358  D(54,49,50,63)          1.229          estimate D2E/DX2                !
 ! D359  D(31,49,54,51)          1.9115         estimate D2E/DX2                !
 ! D360  D(31,49,54,56)       -140.0852         estimate D2E/DX2                !
 ! D361  D(50,49,54,51)        145.4489         estimate D2E/DX2                !
 ! D362  D(50,49,54,56)          3.4522         estimate D2E/DX2                !
 ! D363  D(47,50,63,62)         -2.3035         estimate D2E/DX2                !
 ! D364  D(47,50,63,64)        139.3751         estimate D2E/DX2                !
 ! D365  D(49,50,63,62)       -146.5374         estimate D2E/DX2                !
 ! D366  D(49,50,63,64)         -4.8589         estimate D2E/DX2                !
 ! D367  D(34,51,52,36)         -0.8294         estimate D2E/DX2                !
 ! D368  D(34,51,52,53)       -136.5098         estimate D2E/DX2                !
 ! D369  D(54,51,52,36)        135.9864         estimate D2E/DX2                !
 ! D370  D(54,51,52,53)          0.306          estimate D2E/DX2                !
 ! D371  D(34,51,54,49)          3.1253         estimate D2E/DX2                !
 ! D372  D(34,51,54,56)        145.0178         estimate D2E/DX2                !
 ! D373  D(52,51,54,49)       -138.4795         estimate D2E/DX2                !
 ! D374  D(52,51,54,56)          3.413          estimate D2E/DX2                !
 ! D375  D(36,52,53,37)         -3.2172         estimate D2E/DX2                !
 ! D376  D(36,52,53,55)       -143.6413         estimate D2E/DX2                !
 ! D377  D(51,52,53,37)        136.6446         estimate D2E/DX2                !
 ! D378  D(51,52,53,55)         -3.7794         estimate D2E/DX2                !
 ! D379  D(37,53,55,56)       -132.0935         estimate D2E/DX2                !
 ! D380  D(37,53,55,60)          5.7557         estimate D2E/DX2                !
 ! D381  D(52,53,55,56)          3.5248         estimate D2E/DX2                !
 ! D382  D(52,53,55,60)        141.374          estimate D2E/DX2                !
 ! D383  D(49,54,56,55)        133.7773         estimate D2E/DX2                !
 ! D384  D(49,54,56,64)         -4.5015         estimate D2E/DX2                !
 ! D385  D(51,54,56,55)         -3.6603         estimate D2E/DX2                !
 ! D386  D(51,54,56,64)       -141.9392         estimate D2E/DX2                !
 ! D387  D(53,55,56,54)          0.1713         estimate D2E/DX2                !
 ! D388  D(53,55,56,64)        142.9036         estimate D2E/DX2                !
 ! D389  D(60,55,56,54)       -142.1336         estimate D2E/DX2                !
 ! D390  D(60,55,56,64)          0.5988         estimate D2E/DX2                !
 ! D391  D(53,55,60,57)         -1.5066         estimate D2E/DX2                !
 ! D392  D(53,55,60,66)       -144.5124         estimate D2E/DX2                !
 ! D393  D(56,55,60,57)        140.7624         estimate D2E/DX2                !
 ! D394  D(56,55,60,66)         -2.2434         estimate D2E/DX2                !
 ! D395  D(54,56,64,63)          0.8427         estimate D2E/DX2                !
 ! D396  D(54,56,64,66)        144.0816         estimate D2E/DX2                !
 ! D397  D(55,56,64,63)       -141.9772         estimate D2E/DX2                !
 ! D398  D(55,56,64,66)          1.2616         estimate D2E/DX2                !
 ! D399  D(39,57,58,42)         -0.1647         estimate D2E/DX2                !
 ! D400  D(39,57,58,59)       -141.7637         estimate D2E/DX2                !
 ! D401  D(60,57,58,42)        141.085          estimate D2E/DX2                !
 ! D402  D(60,57,58,59)         -0.514          estimate D2E/DX2                !
 ! D403  D(39,57,60,55)         -3.9715         estimate D2E/DX2                !
 ! D404  D(39,57,60,66)        134.8507         estimate D2E/DX2                !
 ! D405  D(58,57,60,55)       -140.7948         estimate D2E/DX2                !
 ! D406  D(58,57,60,66)         -1.9726         estimate D2E/DX2                !
 ! D407  D(42,58,59,43)          2.4875         estimate D2E/DX2                !
 ! D408  D(42,58,59,65)       -134.6019         estimate D2E/DX2                !
 ! D409  D(57,58,59,43)        139.5951         estimate D2E/DX2                !
 ! D410  D(57,58,59,65)          2.5057         estimate D2E/DX2                !
 ! D411  D(43,59,65,61)         -1.9513         estimate D2E/DX2                !
 ! D412  D(43,59,65,66)       -144.2232         estimate D2E/DX2                !
 ! D413  D(58,59,65,61)        140.2649         estimate D2E/DX2                !
 ! D414  D(58,59,65,66)         -2.007          estimate D2E/DX2                !
 ! D415  D(55,60,66,64)          3.0222         estimate D2E/DX2                !
 ! D416  D(55,60,66,65)        145.6106         estimate D2E/DX2                !
 ! D417  D(57,60,66,64)       -140.1249         estimate D2E/DX2                !
 ! D418  D(57,60,66,65)          2.4635         estimate D2E/DX2                !
 ! D419  D(46,61,62,48)         -2.0079         estimate D2E/DX2                !
 ! D420  D(46,61,62,63)       -140.2635         estimate D2E/DX2                !
 ! D421  D(65,61,62,48)        135.3772         estimate D2E/DX2                !
 ! D422  D(65,61,62,63)         -2.8784         estimate D2E/DX2                !
 ! D423  D(46,61,65,59)          1.9201         estimate D2E/DX2                !
 ! D424  D(46,61,65,66)        144.2575         estimate D2E/DX2                !
 ! D425  D(62,61,65,59)       -139.5945         estimate D2E/DX2                !
 ! D426  D(62,61,65,66)          2.7429         estimate D2E/DX2                !
 ! D427  D(48,62,63,50)         -1.0129         estimate D2E/DX2                !
 ! D428  D(48,62,63,64)       -142.2516         estimate D2E/DX2                !
 ! D429  D(61,62,63,50)        141.9151         estimate D2E/DX2                !
 ! D430  D(61,62,63,64)          0.6764         estimate D2E/DX2                !
 ! D431  D(50,63,64,56)          3.8334         estimate D2E/DX2                !
 ! D432  D(50,63,64,66)       -135.042          estimate D2E/DX2                !
 ! D433  D(62,63,64,56)        140.5433         estimate D2E/DX2                !
 ! D434  D(62,63,64,66)          1.6679         estimate D2E/DX2                !
 ! D435  D(56,64,66,60)         -2.6383         estimate D2E/DX2                !
 ! D436  D(56,64,66,65)       -145.3083         estimate D2E/DX2                !
 ! D437  D(63,64,66,60)        140.8718         estimate D2E/DX2                !
[...]
              Bcc     0.0773    10.367     3.699     3.458  0.4405  0.3278  0.8357
 
              Baa    -0.1182   -15.856    -5.658    -5.289  0.4761  0.7492  0.4604
    13 C(13)  Bbb     0.0479     6.424     2.292     2.143 -0.5202  0.6621 -0.5395
              Bcc     0.0703     9.432     3.366     3.146  0.7090 -0.0174 -0.7050
 
              Baa    -0.0729    -9.785    -3.492    -3.264  0.3708  0.0987  0.9235
    14 C(13)  Bbb     0.0356     4.781     1.706     1.595 -0.5578  0.8187  0.1365
              Bcc     0.0373     5.005     1.786     1.669  0.7426  0.5657 -0.3586
 
              Baa    -0.0041    -0.552    -0.197    -0.184 -0.4081  0.1271  0.9041
    15 C(13)  Bbb    -0.0015    -0.199    -0.071    -0.066  0.7460  0.6172  0.2500
              Bcc     0.0056     0.751     0.268     0.250 -0.5262  0.7764 -0.3467
 
              Baa    -0.0020    -0.269    -0.096    -0.090  0.9689  0.2473  0.0099
    16 C(13)  Bbb    -0.0012    -0.159    -0.057    -0.053 -0.1574  0.5848  0.7957
              Bcc     0.0032     0.429     0.153     0.143 -0.1910  0.7725 -0.6055
 
              Baa    -0.0037    -0.502    -0.179    -0.168  0.4923 -0.0699  0.8676
    17 C(13)  Bbb    -0.0027    -0.365    -0.130    -0.122  0.7849  0.4665 -0.4078
              Bcc     0.0065     0.867     0.310     0.289 -0.3762  0.8818  0.2845
 
              Baa    -0.0072    -0.965    -0.344    -0.322  0.7121 -0.7003  0.0497
    18 C(13)  Bbb     0.0032     0.432     0.154     0.144  0.0509  0.1221  0.9912
              Bcc     0.0040     0.533     0.190     0.178  0.7003  0.7033 -0.1226
 
              Baa    -0.0090    -1.209    -0.431    -0.403 -0.2841  0.7258  0.6265
    19 C(13)  Bbb     0.0043     0.576     0.205     0.192  0.6459 -0.3379  0.6845
              Bcc     0.0047     0.633     0.226     0.211  0.7085  0.5991 -0.3728
 
              Baa    -0.0110    -1.479    -0.528    -0.493 -0.3988  0.2121  0.8922
    20 C(13)  Bbb     0.0048     0.643     0.229     0.214  0.7235 -0.5250  0.4482
              Bcc     0.0062     0.836     0.298     0.279  0.5635  0.8242  0.0559
 
              Baa    -0.0084    -1.131    -0.403    -0.377  0.5474 -0.5694  0.6133
    21 C(13)  Bbb    -0.0078    -1.040    -0.371    -0.347  0.8064  0.5548 -0.2047
              Bcc     0.0162     2.171     0.774     0.724 -0.2237  0.6066  0.7629
 
              Baa    -0.0404    -5.424    -1.935    -1.809 -0.3448 -0.4242  0.8373
    22 C(13)  Bbb     0.0195     2.612     0.932     0.871 -0.1588  0.9056  0.3934
              Bcc     0.0210     2.812     1.003     0.938  0.9252 -0.0027  0.3796
 
              Baa    -0.0060    -0.799    -0.285    -0.266 -0.4348  0.8825 -0.1792
    23 C(13)  Bbb    -0.0055    -0.743    -0.265    -0.248  0.8595  0.4661  0.2098
              Bcc     0.0115     1.542     0.550     0.514 -0.2687  0.0628  0.9612
 
              Baa    -0.0490    -6.575    -2.346    -2.193  0.6824 -0.6001 -0.4175
    24 C(13)  Bbb    -0.0456    -6.124    -2.185    -2.043  0.7287  0.5128  0.4539
              Bcc     0.0946    12.699     4.531     4.236 -0.0583 -0.6139  0.7872
 
              Baa    -0.0942   -12.641    -4.511    -4.217  0.8812 -0.3542 -0.3132
    25 C(13)  Bbb    -0.0865   -11.605    -4.141    -3.871  0.3165 -0.0501  0.9473
              Bcc     0.1807    24.246     8.652     8.088  0.3512  0.9338 -0.0680
 
              Baa    -0.0284    -3.815    -1.361    -1.272 -0.0205  0.8361 -0.5482
    26 C(13)  Bbb     0.0064     0.865     0.309     0.288  0.8081 -0.3090 -0.5015
              Bcc     0.0220     2.950     1.053     0.984  0.5887  0.4533  0.6693
 
              Baa    -0.1560   -20.932    -7.469    -6.982  0.9449 -0.3242  0.0462
    27 C(13)  Bbb    -0.1533   -20.571    -7.340    -6.862 -0.2379 -0.5825  0.7772
              Bcc     0.3093    41.503    14.809    13.844  0.2251  0.7453  0.6275
 
              Baa    -0.0078    -1.049    -0.374    -0.350  0.5068  0.7576  0.4113
    28 C(13)  Bbb     0.0019     0.255     0.091     0.085 -0.5747 -0.0586  0.8162
              Bcc     0.0059     0.794     0.283     0.265 -0.6425  0.6501 -0.4057
 
              Baa    -0.0425    -5.697    -2.033    -1.900  0.9618  0.0377 -0.2711
    29 C(13)  Bbb    -0.0403    -5.403    -1.928    -1.802 -0.1011  0.9693 -0.2242
              Bcc     0.0827    11.100     3.961     3.703  0.2543  0.2431  0.9361
 
              Baa    -0.0634    -8.513    -3.038    -2.840  0.1401  0.5171  0.8444
    30 C(13)  Bbb     0.0260     3.494     1.247     1.166  0.6753 -0.6736  0.3005
              Bcc     0.0374     5.019     1.791     1.674  0.7241  0.5281 -0.4435
 
              Baa    -0.0918   -12.322    -4.397    -4.110  0.1050  0.0823  0.9911
    31 C(13)  Bbb     0.0443     5.944     2.121     1.983  0.7100 -0.7040 -0.0167
              Bcc     0.0475     6.378     2.276     2.128  0.6963  0.7054 -0.1323
 
              Baa    -0.0243    -3.257    -1.162    -1.086  0.3586 -0.5944  0.7198
    32 C(13)  Bbb     0.0116     1.555     0.555     0.519  0.2849  0.8040  0.5219
              Bcc     0.0127     1.702     0.607     0.568  0.8889 -0.0179 -0.4577
 
              Baa    -0.0033    -0.439    -0.157    -0.146  0.3175  0.4327  0.8438
    33 C(13)  Bbb    -0.0022    -0.295    -0.105    -0.098  0.8916  0.1666 -0.4210
              Bcc     0.0055     0.734     0.262     0.245 -0.3227  0.8860 -0.3329
 
              Baa    -0.0086    -1.158    -0.413    -0.386 -0.3447  0.8502  0.3978
    34 C(13)  Bbb    -0.0066    -0.883    -0.315    -0.295  0.9325  0.3589  0.0410
              Bcc     0.0152     2.042     0.728     0.681  0.1079 -0.3851  0.9165
 
              Baa    -0.0033    -0.437    -0.156    -0.146  0.1703 -0.2904  0.9416
    35 C(13)  Bbb    -0.0029    -0.390    -0.139    -0.130  0.9798  0.1515 -0.1305
              Bcc     0.0062     0.827     0.295     0.276 -0.1048  0.9448  0.3103
 
              Baa    -0.0108    -1.452    -0.518    -0.484 -0.1443  0.9884 -0.0466
    36 C(13)  Bbb     0.0053     0.714     0.255     0.238 -0.0917  0.0335  0.9952
              Bcc     0.0055     0.739     0.264     0.246  0.9853  0.1479  0.0858
 
              Baa    -0.0087    -1.172    -0.418    -0.391  0.2536  0.9002  0.3540
    37 C(13)  Bbb     0.0042     0.569     0.203     0.190  0.7956 -0.4023  0.4530
              Bcc     0.0045     0.603     0.215     0.201 -0.5502 -0.1668  0.8182
 
              Baa    -0.0111    -1.491    -0.532    -0.497 -0.0015  0.5757  0.8177
    38 C(13)  Bbb     0.0050     0.677     0.242     0.226 -0.1144  0.8122 -0.5720
              Bcc     0.0061     0.814     0.290     0.272  0.9934  0.0944 -0.0647
 
              Baa    -0.0060    -0.801    -0.286    -0.267 -0.4123  0.6824 -0.6036
    39 C(13)  Bbb    -0.0056    -0.753    -0.269    -0.251  0.8515  0.0530 -0.5216
              Bcc     0.0116     1.555     0.555     0.519  0.3239  0.7291  0.6029
 
              Baa    -0.0012    -0.161    -0.058    -0.054 -0.3691 -0.4123  0.8329
    40 C(13)  Bbb    -0.0003    -0.042    -0.015    -0.014 -0.6146  0.7805  0.1140
              Bcc     0.0015     0.203     0.073     0.068  0.6971  0.4698  0.5415
 
              Baa    -0.0113    -1.518    -0.542    -0.506  0.3465 -0.5906  0.7288
    41 C(13)  Bbb     0.0041     0.547     0.195     0.183 -0.2587  0.6867  0.6794
              Bcc     0.0072     0.970     0.346     0.324  0.9017  0.4239 -0.0852
 
              Baa    -0.0019    -0.261    -0.093    -0.087  0.6400 -0.4482  0.6241
    42 C(13)  Bbb    -0.0001    -0.014    -0.005    -0.005  0.6367  0.7640 -0.1043
              Bcc     0.0020     0.274     0.098     0.092 -0.4301  0.4642  0.7743
 
              Baa    -0.0261    -3.497    -1.248    -1.166 -0.5766  0.2968  0.7612
    43 C(13)  Bbb    -0.0244    -3.275    -1.169    -1.092  0.5571  0.8243  0.1005
              Bcc     0.0505     6.772     2.416     2.259  0.5976 -0.4820  0.6407
 
              Baa    -0.0123    -1.652    -0.589    -0.551 -0.6594 -0.0662  0.7489
    44 C(13)  Bbb    -0.0083    -1.111    -0.396    -0.371  0.6979  0.3166  0.6425
              Bcc     0.0206     2.763     0.986     0.922 -0.2796  0.9463 -0.1625
 
              Baa    -0.0262    -3.520    -1.256    -1.174 -0.1010 -0.2381  0.9660
    45 C(13)  Bbb    -0.0205    -2.755    -0.983    -0.919  0.9888  0.0835  0.1240
              Bcc     0.0468     6.275     2.239     2.093 -0.1102  0.9676  0.2270
 
              Baa    -0.0038    -0.513    -0.183    -0.171 -0.1885  0.9805 -0.0550
    46 C(13)  Bbb    -0.0002    -0.025    -0.009    -0.008 -0.6549 -0.0838  0.7511
              Bcc     0.0040     0.538     0.192     0.180  0.7318  0.1776  0.6579
 
              Baa    -0.0880   -11.803    -4.212    -3.937  0.7684 -0.4940  0.4070
    47 C(13)  Bbb    -0.0845   -11.337    -4.045    -3.782  0.6363  0.6582 -0.4024
              Bcc     0.1724    23.140     8.257     7.719 -0.0691  0.5681  0.8200
 
              Baa    -0.0264    -3.549    -1.266    -1.184 -0.2527  0.7748  0.5795
    48 C(13)  Bbb     0.0114     1.534     0.547     0.512  0.9543  0.2985  0.0170
              Bcc     0.0150     2.015     0.719     0.672  0.1598 -0.5573  0.8148
 
              Baa    -0.0527    -7.071    -2.523    -2.359  0.8707 -0.4296  0.2397
    49 C(13)  Bbb    -0.0468    -6.276    -2.239    -2.093  0.4087  0.9029  0.1337
              Bcc     0.0995    13.347     4.763     4.452 -0.2738 -0.0184  0.9616
 
              Baa    -0.0523    -7.023    -2.506    -2.343 -0.3936  0.3049  0.8673
    50 C(13)  Bbb     0.0215     2.879     1.027     0.960  0.8102 -0.3307  0.4839
              Bcc     0.0309     4.144     1.479     1.382  0.4343  0.8931 -0.1169
 
              Baa    -0.0009    -0.125    -0.045    -0.042 -0.4157  0.8723  0.2574
    51 C(13)  Bbb    -0.0004    -0.052    -0.019    -0.017  0.9022  0.3598  0.2377
              Bcc     0.0013     0.177     0.063     0.059 -0.1148 -0.3311  0.9366
 
              Baa    -0.0040    -0.540    -0.193    -0.180  0.3664  0.8320 -0.4165
    52 C(13)  Bbb     0.0017     0.232     0.083     0.077 -0.5188  0.5543  0.6509
              Bcc     0.0023     0.308     0.110     0.103  0.7724 -0.0224  0.6347
 
              Baa    -0.0080    -1.076    -0.384    -0.359  0.8417 -0.3855  0.3781
    53 C(13)  Bbb    -0.0079    -1.059    -0.378    -0.353 -0.3239  0.1999  0.9247
              Bcc     0.0159     2.135     0.762     0.712  0.4321  0.9008 -0.0434
 
              Baa    -0.0319    -4.281    -1.527    -1.428 -0.5385 -0.2943  0.7896
    54 C(13)  Bbb     0.0142     1.910     0.681     0.637 -0.6372  0.7554 -0.1530
              Bcc     0.0177     2.371     0.846     0.791  0.5514  0.5855  0.5942
 
              Baa    -0.0092    -1.237    -0.441    -0.412  0.7955  0.5874 -0.1484
    55 C(13)  Bbb     0.0040     0.531     0.189     0.177 -0.5703  0.6434 -0.5107
              Bcc     0.0053     0.706     0.252     0.235 -0.2045  0.4909  0.8469
 
              Baa    -0.0315    -4.227    -1.508    -1.410  0.6507 -0.5218  0.5517
    56 C(13)  Bbb    -0.0294    -3.948    -1.409    -1.317  0.0350  0.7463  0.6647
              Bcc     0.0609     8.175     2.917     2.727  0.7586  0.4132 -0.5038
 
              Baa    -0.0101    -1.359    -0.485    -0.453  0.7292  0.4833  0.4844
    57 C(13)  Bbb     0.0043     0.571     0.204     0.191 -0.5530  0.8332  0.0012
              Bcc     0.0059     0.788     0.281     0.263 -0.4030 -0.2687  0.8748
 
              Baa    -0.0134    -1.799    -0.642    -0.600 -0.6388  0.6654  0.3863
    58 C(13)  Bbb    -0.0124    -1.659    -0.592    -0.553  0.3976  0.7153 -0.5746
              Bcc     0.0258     3.458     1.234     1.153  0.6586  0.2135  0.7215
 
              Baa    -0.0098    -1.312    -0.468    -0.438  0.7298 -0.2238  0.6460
    59 C(13)  Bbb     0.0036     0.477     0.170     0.159 -0.5943  0.2592  0.7613
              Bcc     0.0062     0.835     0.298     0.279  0.3378  0.9395 -0.0562
 
              Baa    -0.0162    -2.175    -0.776    -0.725 -0.4860  0.7687  0.4157
    60 C(13)  Bbb    -0.0157    -2.112    -0.753    -0.704  0.0478 -0.4516  0.8910
              Bcc     0.0319     4.286     1.529     1.430  0.8726  0.4529  0.1827
 
              Baa    -0.0023    -0.313    -0.112    -0.104 -0.2906  0.9251 -0.2446
    61 C(13)  Bbb     0.0001     0.012     0.004     0.004  0.1431  0.2948  0.9448
              Bcc     0.0022     0.301     0.107     0.100  0.9461  0.2395 -0.2180
 
              Baa    -0.0032    -0.428    -0.153    -0.143  0.0444  0.1786  0.9829
    62 C(13)  Bbb    -0.0017    -0.226    -0.081    -0.075  0.5671  0.8055 -0.1720
              Bcc     0.0049     0.654     0.234     0.218  0.8225 -0.5650  0.0655
 
              Baa    -0.0147    -1.978    -0.706    -0.660  0.5702 -0.0279  0.8210
    63 C(13)  Bbb    -0.0135    -1.807    -0.645    -0.603  0.1706  0.9816 -0.0852
              Bcc     0.0282     3.785     1.351     1.263  0.8036 -0.1887 -0.5645
 
              Baa    -0.0188    -2.526    -0.901    -0.843  0.8653  0.0953 -0.4921
    64 C(13)  Bbb     0.0084     1.131     0.403     0.377  0.4863  0.0787  0.8703
              Bcc     0.0104     1.395     0.498     0.465 -0.1217  0.9923 -0.0218
 
              Baa    -0.0031    -0.421    -0.150    -0.140  0.8755 -0.4831 -0.0015
    65 C(13)  Bbb     0.0011     0.154     0.055     0.051 -0.1308 -0.2401  0.9619
              Bcc     0.0020     0.267     0.095     0.089  0.4651  0.8420  0.2734
 
              Baa    -0.0029    -0.395    -0.141    -0.132  0.9590  0.2810 -0.0361
    66 C(13)  Bbb     0.0006     0.082     0.029     0.027  0.0836 -0.1590  0.9837
              Bcc     0.0023     0.313     0.112     0.105 -0.2707  0.9465  0.1760
 
              Baa    -0.0253    -1.324    -0.473    -0.442  0.9387  0.3446  0.0033
    67 Cl(35) Bbb    -0.0056    -0.293    -0.104    -0.098 -0.3340  0.9122 -0.2374
              Bcc     0.0309     1.617     0.577     0.539 -0.0849  0.2218  0.9714
 
              Baa    -0.2094   -10.958    -3.910    -3.655 -0.0884  0.9871  0.1333
    68 Cl(35) Bbb    -0.1879    -9.834    -3.509    -3.280  0.0636 -0.1280  0.9897
              Bcc     0.3973    20.793     7.419     6.936  0.9940  0.0960 -0.0515
 
              Baa    -0.0164    -0.856    -0.306    -0.286  0.2629  0.8758  0.4047
    69 Cl(35) Bbb     0.0065     0.341     0.122     0.114 -0.6748 -0.1329  0.7260
              Bcc     0.0099     0.516     0.184     0.172  0.6896 -0.4639  0.5560
 
              Baa    -0.0637    -3.332    -1.189    -1.111  0.6753 -0.4486  0.5854
    70 Cl(35) Bbb     0.0294     1.537     0.548     0.513  0.5517  0.8340  0.0026
              Bcc     0.0343     1.795     0.640     0.599 -0.4894  0.3212  0.8108
 
              Baa    -0.0027    -0.144    -0.051    -0.048 -0.5510  0.7312  0.4020
    71 Cl(35) Bbb     0.0003     0.015     0.005     0.005  0.4852 -0.1113  0.8673
              Bcc     0.0025     0.129     0.046     0.043  0.6790  0.6730 -0.2935
 
              Baa    -0.0106    -0.556    -0.198    -0.185  0.7299  0.0982  0.6765
    72 Cl(35) Bbb    -0.0092    -0.480    -0.171    -0.160  0.4438  0.6846 -0.5783
              Bcc     0.0198     1.035     0.369     0.345 -0.5199  0.7223  0.4561
 
              Baa    -0.2856   -14.948    -5.334    -4.986  0.9793 -0.1935  0.0588
    73 Cl(35) Bbb    -0.2740   -14.338    -5.116    -4.783 -0.1042 -0.2339  0.9666
              Bcc     0.5596    29.286    10.450     9.769  0.1733  0.9528  0.2493
 

 ---------------------------------------------------------------------------------

 No NMR shielding tensors so no spin-rotation constants.
 Leave Link  601 at Fri Jul 15 19:04:29 2022, MaxMem=  1342177280 cpu:             102.7 elap:               2.4
 (Enter /home/mkliu/g16/l9999.exe)
 1\1\GINC-NODE01\FOpt\UB3LYP\6-311G(d,p)\C66Cl7(2)\MKLIU\15-Jul-2022\0\
 \#P opt b3lyp/6-311G(d, p) empiricaldispersion=GD3\\force\\0,2\C,-1.34
 02860411,1.8766687701,-3.9320937196\C,0.2186085367,2.2288442609,-3.989
 9119985\C,0.9583321457,0.8556060244,-4.2691485492\C,-1.5030379535,0.34
 23068699,-4.2814655123\C,-0.1124765262,-0.1716708532,-4.1340168471\C,-
 2.5001167072,-0.2575730113,-3.1680679583\C,-1.8489239277,1.9459681987,
 -2.52872777\C,-2.581043304,0.8473437151,-2.1674733797\C,-1.3922141512,
 2.8855794083,-1.5542294548\C,0.7800509906,2.6444653241,-2.6539445398\C
 ,0.0194791579,3.2430586628,-1.6021343391\C,1.9160703109,0.6862285825,-
 3.1007260148\C,1.9060513932,1.8599332055,-2.2910452847\C,2.2600903081,
 -0.5251553994,-2.5618665575\C,0.1567317158,-1.3569656108,-3.6013884271
 \C,1.5611034384,-1.7561163787,-3.145549414\C,-2.0155509444,-1.50562911
 52,-2.4325548707\C,-0.8381544167,-2.11096853,-2.8485755724\C,-2.512403
 8903,-1.7883989282,-1.1008887826\C,-3.0492353262,0.6436076443,-0.83706
 78981\C,-3.1148375969,-0.7045563413,-0.296799155\C,-2.0453471173,2.846
 5974302,-0.3215716743\C,-2.9256072156,1.7489884304,0.0220254287\C,-1.3
 975057571,3.2780875842,0.8872254005\C,0.6735088732,3.4946267004,-0.397
 3122584\C,-0.0299567329,3.5568051463,0.8365479137\C,2.4719074176,1.871
 8807765,-1.0103723036\C,2.1092113649,3.0516282333,-0.1362514218\C,2.88
 5160793,-0.57472093,-1.2565124198\C,3.0332251642,0.666335603,-0.488052
 3227\C,2.913700004,-1.8046548003,-0.5577359481\C,1.2628380344,-2.78942
 09269,-2.0937562447\C,-0.1437247486,-3.0490304285,-2.0288489303\C,2.02
 21414361,-2.9051213814,-0.9665025648\C,-1.9390917122,-2.8761147762,-0.
 396378364\C,-0.7262973791,-3.5010056509,-0.8527291931\C,-1.923009917,-
 2.941709076,1.0476209469\C,-3.1528060202,-0.8316825446,1.1051365569\C,
 -2.5303072546,-1.9488625664,1.7867911931\C,-2.8956712618,1.5863578258,
 1.4465132531\C,-1.9353846941,2.5259775872,1.9956674721\C,-3.0209163068
 ,0.3172980127,1.980002065\C,-1.1186384411,2.1376064701,3.0512945132\C,
 0.8338274817,3.1205338381,1.9152742732\C,2.0758036078,2.7077704442,1.3
 338579774\C,0.3008277571,2.449488442,3.017405421\C,3.2604954416,0.5784
 520724,0.91562697\C,2.7163404673,1.5990498057,1.821495355\C,3.00551170
 87,-1.846809884,0.8573831013\C,3.1942411935,-0.6660681127,1.5869151946
 \C,1.4646345546,-3.4907578533,0.2303991416\C,0.1031853187,-3.807387262
 ,0.2869772043\C,-0.6514826168,-3.4982660124,1.4768799084\C,2.107044971
 1,-2.874662275,1.3666807293\C,-0.0155688306,-2.9714300526,2.5996689822
 \C,1.3993818404,-2.6555704722,2.5429556974\C,-1.9207561611,-1.46786804
 03,3.0101162411\C,-2.2261590614,-0.0627151965,3.1325820665\C,-1.273832
 223,0.823265973,3.6416746871\C,-0.66714344,-1.9494735671,3.3926941875\
 C,1.0156647389,1.3330336557,3.5831311553\C,2.2155198535,0.9247946246,2
 .9982974821\C,2.5165400051,-0.4819940293,2.8625426011\C,1.6174616181,-
 1.4395092919,3.3140639478\C,0.0456633772,0.3336068232,3.9962731592\C,0
 .3421810443,-1.0214082277,3.8662237274\Cl,-2.4007824143,2.9705491029,-
 4.9099160969\Cl,0.6360658698,3.5551774656,-5.1473742842\Cl,1.831322185
 ,0.7382516998,-5.8590706137\Cl,2.5365052604,-2.5252290438,-4.513348946
 5\Cl,-1.9936266835,0.0134111128,-5.9923167741\Cl,-4.1807466905,-0.6155
 735322,-3.8253652913\Cl,3.3245667689,4.4533614094,-0.454886243\\Versio
 n=ES64L-G16RevA.03\State=2-A\HF=-5736.9852246\S2=0.802832\S2-1=0.\S2A=
 0.752124\RMSD=8.207e-09\RMSF=5.717e-05\Dipole=-0.2532384,-0.7041212,2.
 1261457\Quadrupole=-0.2518726,2.2603202,-2.0084476,-3.8183267,-1.69824
 75,-0.5362042\PG=C01 [X(C66Cl7)]\\@


      HUMANKIND PERIODICALLY GOES THROUGH A SPEEDUP OF ITS AFFAIRS, 
      THEREBY EXPERIENCING THE RACE BETWEEN THE RENEWABLE VITALITY
      OF THE LIVING, AND THE BECKONING VITIATION OF DECADENCE.
      IN THIS PERIODIC RACE, ANY PAUSE BECOMES A LUXURY.
      ONLY THEN CAN ONE REFLECT THAT ALL IS PERMITTED;
      ALL IS POSSIBLE.

                              -- THE APOCRYPHA OF MUAD'DIB
                                 CHILDREN OF DUNE, BY FRANK HERBERT
 Job cpu time:       4 days 22 hours 44 minutes 44.8 seconds.
 Elapsed time:       0 days  2 hours 28 minutes 39.6 seconds.
 File lengths (MBytes):  RWF=   2038 Int=      0 D2E=      0 Chk=    183 Scr=      1
 Normal termination of Gaussian 16 at Fri Jul 15 19:04:30 2022.
