 Entering Gaussian System, Link 0=g16
 Input=dqwuc3nk3tnnk_addon_7.gjf
 Output=dqwuc3nk3tnnk_addon_7.log
 Initial command:
 /home/mkliu/g16/l1.exe "/data/scratch/Gau-31178.inp" -scrdir="/data/scratch/"
 Entering Link 1 = /home/mkliu/g16/l1.exe PID=     31179.
  
 Copyright (c) 1988,1990,1992,1993,1995,1998,2003,2009,2016,
            Gaussian, Inc.  All Rights Reserved.
  
 This is part of the Gaussian(R) 16 program.  It is based on
 the Gaussian(R) 09 system (copyright 2009, Gaussian, Inc.),
 the Gaussian(R) 03 system (copyright 2003, Gaussian, Inc.),
 the Gaussian(R) 98 system (copyright 1998, Gaussian, Inc.),
 the Gaussian(R) 94 system (copyright 1995, Gaussian, Inc.),
 the Gaussian 92(TM) system (copyright 1992, Gaussian, Inc.),
 the Gaussian 90(TM) system (copyright 1990, Gaussian, Inc.),
 the Gaussian 88(TM) system (copyright 1988, Gaussian, Inc.),
 the Gaussian 86(TM) system (copyright 1986, Carnegie Mellon
 University), and the Gaussian 82(TM) system (copyright 1983,
 Carnegie Mellon University). Gaussian is a federally registered
 trademark of Gaussian, Inc.
  
 This software contains proprietary and confidential information,
 including trade secrets, belonging to Gaussian, Inc.
  
 This software is provided under written license and may be
 used, copied, transmitted, or stored only in accord with that
 written license.
  
 The following legend is applicable only to US Government
 contracts under FAR:
  
                    RESTRICTED RIGHTS LEGEND
  
 Use, reproduction and disclosure by the US Government is
 subject to restrictions as set forth in subparagraphs (a)
 and (c) of the Commercial Computer Software - Restricted
 Rights clause in FAR 52.227-19.
  
 Gaussian, Inc.
 340 Quinnipiac St., Bldg. 40, Wallingford CT 06492
  
  
 ---------------------------------------------------------------
 Warning -- This program may not be used in any manner that
 competes with the business of Gaussian, Inc. or will provide
 assistance to any competitor of Gaussian, Inc.  The licensee
 of this program is prohibited from giving any competitor of
 Gaussian, Inc. access to this program.  By using this program,
 the user acknowledges that Gaussian, Inc. is engaged in the
 business of creating and licensing software in the field of
 computational chemistry and represents and warrants to the
 licensee that it is not a competitor of Gaussian, Inc. and that
 it will not use this program in any manner prohibited above.
 ---------------------------------------------------------------
  

 Cite this work as:
 Gaussian 16, Revision A.03,
 M. J. Frisch, G. W. Trucks, H. B. Schlegel, G. E. Scuseria, 
 M. A. Robb, J. R. Cheeseman, G. Scalmani, V. Barone, 
 G. A. Petersson, H. Nakatsuji, X. Li, M. Caricato, A. V. Marenich, 
 J. Bloino, B. G. Janesko, R. Gomperts, B. Mennucci, H. P. Hratchian, 
 J. V. Ortiz, A. F. Izmaylov, J. L. Sonnenberg, D. Williams-Young, 
 F. Ding, F. Lipparini, F. Egidi, J. Goings, B. Peng, A. Petrone, 
 T. Henderson, D. Ranasinghe, V. G. Zakrzewski, J. Gao, N. Rega, 
 G. Zheng, W. Liang, M. Hada, M. Ehara, K. Toyota, R. Fukuda, 
 J. Hasegawa, M. Ishida, T. Nakajima, Y. Honda, O. Kitao, H. Nakai, 
 T. Vreven, K. Throssell, J. A. Montgomery, Jr., J. E. Peralta, 
 F. Ogliaro, M. J. Bearpark, J. J. Heyd, E. N. Brothers, K. N. Kudin, 
 V. N. Staroverov, T. A. Keith, R. Kobayashi, J. Normand, 
 K. Raghavachari, A. P. Rendell, J. C. Burant, S. S. Iyengar, 
 J. Tomasi, M. Cossi, J. M. Millam, M. Klene, C. Adamo, R. Cammi, 
 J. W. Ochterski, R. L. Martin, K. Morokuma, O. Farkas, 
 J. B. Foresman, and D. J. Fox, Gaussian, Inc., Wallingford CT, 2016.
 
 ******************************************
 Gaussian 16:  ES64L-G16RevA.03 25-Dec-2016
                16-Jul-2022 
 ******************************************
 %mem=10GB
 %chk=dqwuc3nk3tnnk_addon_7.chk
 %nprocshared=48
 Will use up to   48 processors via shared memory.
 -------------------------------------------------
 #P opt b3lyp/6-311G(d, p) empiricaldispersion=GD3
 -------------------------------------------------
 1/18=20,19=15,26=3,38=1/1,3;
 2/9=110,12=2,17=6,18=5,40=1/2;
 3/5=4,6=6,7=101,11=2,25=1,30=1,71=1,74=-5,124=31/1,2,3;
 4//1;
 5/5=2,38=5/2;
 6/7=2,8=2,9=2,10=2,28=1/1;
 7//1,2,3,16;
 1/18=20,19=15,26=3/3(2);
 2/9=110/2;
 99//99;
 2/9=110/2;
 3/5=4,6=6,7=101,11=2,25=1,30=1,71=1,74=-5,124=31/1,2,3;
 4/5=5,16=3,69=1/1;
 5/5=2,38=5/2;
 7//1,2,3,16;
 1/18=20,19=15,26=3/3(-5);
 2/9=110/2;
 6/7=2,8=2,9=2,10=2,19=2,28=1/1;
 99/9=1/99;
 Leave Link    1 at Sat Jul 16 02:18:53 2022, MaxMem=  1342177280 cpu:               2.2 elap:               0.1
 (Enter /home/mkliu/g16/l101.exe)
 -----
 force
 -----
 Symbolic Z-matrix:
 Charge =  0 Multiplicity = 2
 C                    -1.33863   1.89015  -3.96593 
 C                     0.18845   2.22192  -3.98481 
 C                     0.99231   0.91235  -4.30686 
 C                    -1.24888   0.42366  -3.84037 
 C                    -0.04276  -0.13837  -4.12405 
 C                    -2.09525  -0.09215  -2.86257 
 C                    -2.20554   2.28965  -2.7355 
 C                    -2.67465   0.95832  -2.13392 
 C                    -1.4943    2.89818  -1.55673 
 C                     0.66252   2.48577  -2.61205 
 C                    -0.07259   3.09891  -1.59374 
 C                     1.91401   0.66874  -3.12549 
 C                     1.81842   1.7928   -2.26781 
 C                     2.26365  -0.54481  -2.58842 
 C                     0.23393  -1.38402  -3.59438 
 C                     1.633    -1.79771  -3.17122 
 C                    -1.87717  -1.35349  -2.31975 
 C                    -0.72447  -2.02491  -2.79919 
 C                    -2.43524  -1.64553  -1.03602 
 C                    -3.08372   0.73564  -0.83389 
 C                    -3.03256  -0.5841   -0.31153 
 C                    -2.09505   2.85614  -0.32951 
 C                    -3.24562   1.94268   0.05231 
 C                    -1.38076   3.21272   0.86943 
 C                     0.62885   3.33108  -0.40495 
 C                    -0.03695   3.49965   0.83239 
 C                     2.4209    1.79336  -0.99927 
 C                     1.89563   2.7415   -0.12702 
 C                     2.91113  -0.61315  -1.2828 
 C                     3.04389   0.59171  -0.51432 
 C                     2.92251  -1.83119  -0.57934 
 C                     1.31507  -2.81306  -2.11466 
 C                    -0.08375  -3.01628  -2.00619 
 C                     2.05196  -2.92492  -0.97451 
 C                    -1.90213  -2.81073  -0.38224 
 C                    -0.71505  -3.4301   -0.83831 
 C                    -1.91204  -2.88261   1.06148 
 C                    -3.36953  -0.83237   1.14489 
 C                    -2.52805  -1.90111   1.78526 
 C                    -2.91591   1.61878   1.47877 
 C                    -1.90906   2.49511   1.98292 
 C                    -3.01016   0.36282   1.98313 
 C                    -1.06569   2.11041   3.01568 
 C                     0.84257   3.08132   1.88928 
 C                     2.05191   2.60872   1.27712 
 C                     0.34071   2.41025   2.97864 
 C                     3.2561    0.5226    0.87883 
 C                     2.74551   1.52406   1.7754 
 C                     3.02225  -1.88089   0.84135 
 C                     3.21978  -0.72263   1.57096 
 C                     1.46817  -3.48631   0.2163 
 C                     0.11274  -3.76297   0.29294 
 C                    -0.64458  -3.43826   1.46251 
 C                     2.12287  -2.88847   1.34444 
 C                     0.00815  -2.93257   2.57052 
 C                     1.4191   -2.64702   2.51304 
 C                    -1.87991  -1.4271    2.95943 
 C                    -2.16735  -0.03162   3.07078 
 C                    -1.20697   0.81702   3.58969 
 C                    -0.63208  -1.91605   3.3406 
 C                     1.07916   1.30116   3.53297 
 C                     2.27069   0.88423   2.96762 
 C                     2.56274  -0.51991   2.83671 
 C                     1.65128  -1.45327   3.27989 
 C                     0.10229   0.32775   3.93641 
 C                     0.38185  -1.02111   3.8116 
 Cl                   -2.07585   2.35762  -5.52979 
 Cl                    0.52216   3.64569  -5.01121 
 Cl                    1.82157   0.81575  -5.86494 
 Cl                    2.65852  -2.41992  -4.51039 
 Cl                   -3.6033    3.32949  -3.14327 
 Cl                   -4.89511   2.62829  -0.1335 
 Cl                   -5.15277  -1.20453   1.19143 
 
 ITRead=  0  0  0  0  0  0  0  0  0  0  0  0  0  0  0  0  0  0  0  0
 ITRead=  0  0  0  0  0  0  0  0  0  0  0  0  0  0  0  0  0  0  0  0
 ITRead=  0  0  0  0  0  0  0  0  0  0  0  0  0  0  0  0  0  0  0  0
 ITRead=  0  0  0  0  0  0  0  0  0  0  0  0  0
 MicOpt= -1 -1 -1 -1 -1 -1 -1 -1 -1 -1 -1 -1 -1 -1 -1 -1 -1 -1 -1 -1
 MicOpt= -1 -1 -1 -1 -1 -1 -1 -1 -1 -1 -1 -1 -1 -1 -1 -1 -1 -1 -1 -1
 MicOpt= -1 -1 -1 -1 -1 -1 -1 -1 -1 -1 -1 -1 -1 -1 -1 -1 -1 -1 -1 -1
 MicOpt= -1 -1 -1 -1 -1 -1 -1 -1 -1 -1 -1 -1 -1
 NAtoms=     73 NQM=       73 NQMF=       0 NMMI=      0 NMMIF=      0
                NMic=       0 NMicF=      0.
                    Isotopes and Nuclear Properties:
 (Nuclear quadrupole moments (NQMom) in fm**2, nuclear magnetic moments (NMagM)
  in nuclear magnetons)

  Atom         1           2           3           4           5           6           7           8           9          10
 IAtWgt=          12          12          12          12          12          12          12          12          12          12
 AtmWgt=  12.0000000  12.0000000  12.0000000  12.0000000  12.0000000  12.0000000  12.0000000  12.0000000  12.0000000  12.0000000
 NucSpn=           0           0           0           0           0           0           0           0           0           0
 AtZEff=  -0.0000000  -0.0000000  -0.0000000  -0.0000000  -0.0000000  -0.0000000  -0.0000000  -0.0000000  -0.0000000  -0.0000000
 NQMom=    0.0000000   0.0000000   0.0000000   0.0000000   0.0000000   0.0000000   0.0000000   0.0000000   0.0000000   0.0000000
 NMagM=    0.0000000   0.0000000   0.0000000   0.0000000   0.0000000   0.0000000   0.0000000   0.0000000   0.0000000   0.0000000
 AtZNuc=   6.0000000   6.0000000   6.0000000   6.0000000   6.0000000   6.0000000   6.0000000   6.0000000   6.0000000   6.0000000

  Atom        11          12          13          14          15          16          17          18          19          20
 IAtWgt=          12          12          12          12          12          12          12          12          12          12
 AtmWgt=  12.0000000  12.0000000  12.0000000  12.0000000  12.0000000  12.0000000  12.0000000  12.0000000  12.0000000  12.0000000
 NucSpn=           0           0           0           0           0           0           0           0           0           0
 AtZEff=  -0.0000000  -0.0000000  -0.0000000  -0.0000000  -0.0000000  -0.0000000  -0.0000000  -0.0000000  -0.0000000  -0.0000000
 NQMom=    0.0000000   0.0000000   0.0000000   0.0000000   0.0000000   0.0000000   0.0000000   0.0000000   0.0000000   0.0000000
 NMagM=    0.0000000   0.0000000   0.0000000   0.0000000   0.0000000   0.0000000   0.0000000   0.0000000   0.0000000   0.0000000
 AtZNuc=   6.0000000   6.0000000   6.0000000   6.0000000   6.0000000   6.0000000   6.0000000   6.0000000   6.0000000   6.0000000

  Atom        21          22          23          24          25          26          27          28          29          30
 IAtWgt=          12          12          12          12          12          12          12          12          12          12
 AtmWgt=  12.0000000  12.0000000  12.0000000  12.0000000  12.0000000  12.0000000  12.0000000  12.0000000  12.0000000  12.0000000
 NucSpn=           0           0           0           0           0           0           0           0           0           0
 AtZEff=  -0.0000000  -0.0000000  -0.0000000  -0.0000000  -0.0000000  -0.0000000  -0.0000000  -0.0000000  -0.0000000  -0.0000000
 NQMom=    0.0000000   0.0000000   0.0000000   0.0000000   0.0000000   0.0000000   0.0000000   0.0000000   0.0000000   0.0000000
 NMagM=    0.0000000   0.0000000   0.0000000   0.0000000   0.0000000   0.0000000   0.0000000   0.0000000   0.0000000   0.0000000
 AtZNuc=   6.0000000   6.0000000   6.0000000   6.0000000   6.0000000   6.0000000   6.0000000   6.0000000   6.0000000   6.0000000

  Atom        31          32          33          34          35          36          37          38          39          40
 IAtWgt=          12          12          12          12          12          12          12          12          12          12
 AtmWgt=  12.0000000  12.0000000  12.0000000  12.0000000  12.0000000  12.0000000  12.0000000  12.0000000  12.0000000  12.0000000
 NucSpn=           0           0           0           0           0           0           0           0           0           0
 AtZEff=  -0.0000000  -0.0000000  -0.0000000  -0.0000000  -0.0000000  -0.0000000  -0.0000000  -0.0000000  -0.0000000  -0.0000000
 NQMom=    0.0000000   0.0000000   0.0000000   0.0000000   0.0000000   0.0000000   0.0000000   0.0000000   0.0000000   0.0000000
 NMagM=    0.0000000   0.0000000   0.0000000   0.0000000   0.0000000   0.0000000   0.0000000   0.0000000   0.0000000   0.0000000
 AtZNuc=   6.0000000   6.0000000   6.0000000   6.0000000   6.0000000   6.0000000   6.0000000   6.0000000   6.0000000   6.0000000

  Atom        41          42          43          44          45          46          47          48          49          50
 IAtWgt=          12          12          12          12          12          12          12          12          12          12
 AtmWgt=  12.0000000  12.0000000  12.0000000  12.0000000  12.0000000  12.0000000  12.0000000  12.0000000  12.0000000  12.0000000
 NucSpn=           0           0           0           0           0           0           0           0           0           0
 AtZEff=  -0.0000000  -0.0000000  -0.0000000  -0.0000000  -0.0000000  -0.0000000  -0.0000000  -0.0000000  -0.0000000  -0.0000000
 NQMom=    0.0000000   0.0000000   0.0000000   0.0000000   0.0000000   0.0000000   0.0000000   0.0000000   0.0000000   0.0000000
 NMagM=    0.0000000   0.0000000   0.0000000   0.0000000   0.0000000   0.0000000   0.0000000   0.0000000   0.0000000   0.0000000
 AtZNuc=   6.0000000   6.0000000   6.0000000   6.0000000   6.0000000   6.0000000   6.0000000   6.0000000   6.0000000   6.0000000

  Atom        51          52          53          54          55          56          57          58          59          60
 IAtWgt=          12          12          12          12          12          12          12          12          12          12
 AtmWgt=  12.0000000  12.0000000  12.0000000  12.0000000  12.0000000  12.0000000  12.0000000  12.0000000  12.0000000  12.0000000
 NucSpn=           0           0           0           0           0           0           0           0           0           0
 AtZEff=  -0.0000000  -0.0000000  -0.0000000  -0.0000000  -0.0000000  -0.0000000  -0.0000000  -0.0000000  -0.0000000  -0.0000000
 NQMom=    0.0000000   0.0000000   0.0000000   0.0000000   0.0000000   0.0000000   0.0000000   0.0000000   0.0000000   0.0000000
 NMagM=    0.0000000   0.0000000   0.0000000   0.0000000   0.0000000   0.0000000   0.0000000   0.0000000   0.0000000   0.0000000
 AtZNuc=   6.0000000   6.0000000   6.0000000   6.0000000   6.0000000   6.0000000   6.0000000   6.0000000   6.0000000   6.0000000

  Atom        61          62          63          64          65          66          67          68          69          70
 IAtWgt=          12          12          12          12          12          12          35          35          35          35
 AtmWgt=  12.0000000  12.0000000  12.0000000  12.0000000  12.0000000  12.0000000  34.9688527  34.9688527  34.9688527  34.9688527
 NucSpn=           0           0           0           0           0           0           3           3           3           3
 AtZEff=  -0.0000000  -0.0000000  -0.0000000  -0.0000000  -0.0000000  -0.0000000  -0.0000000  -0.0000000  -0.0000000  -0.0000000
 NQMom=    0.0000000   0.0000000   0.0000000   0.0000000   0.0000000   0.0000000  -8.1650000  -8.1650000  -8.1650000  -8.1650000
 NMagM=    0.0000000   0.0000000   0.0000000   0.0000000   0.0000000   0.0000000   0.8218740   0.8218740   0.8218740   0.8218740
 AtZNuc=   6.0000000   6.0000000   6.0000000   6.0000000   6.0000000   6.0000000  17.0000000  17.0000000  17.0000000  17.0000000

  Atom        71          72          73
 IAtWgt=          35          35          35
 AtmWgt=  34.9688527  34.9688527  34.9688527
 NucSpn=           3           3           3
 AtZEff=  -0.0000000  -0.0000000  -0.0000000
 NQMom=   -8.1650000  -8.1650000  -8.1650000
 NMagM=    0.8218740   0.8218740   0.8218740
 AtZNuc=  17.0000000  17.0000000  17.0000000
 Leave Link  101 at Sat Jul 16 02:18:53 2022, MaxMem=  1342177280 cpu:              12.9 elap:               0.3
 (Enter /home/mkliu/g16/l103.exe)

 GradGradGradGradGradGradGradGradGradGradGradGradGradGradGradGradGradGrad
 Berny optimization.
 Initialization pass.
                           ----------------------------
                           !    Initial Parameters    !
                           ! (Angstroms and Degrees)  !
 --------------------------                            --------------------------
 ! Name  Definition              Value          Derivative Info.                !
 --------------------------------------------------------------------------------
 ! R1    R(1,2)                  1.5628         estimate D2E/DX2                !
 ! R2    R(1,4)                  1.4746         estimate D2E/DX2                !
 ! R3    R(1,7)                  1.5573         estimate D2E/DX2                !
 ! R4    R(1,67)                 1.791          estimate D2E/DX2                !
 ! R5    R(2,3)                  1.57           estimate D2E/DX2                !
 ! R6    R(2,10)                 1.4761         estimate D2E/DX2                !
 ! R7    R(2,68)                 1.7866         estimate D2E/DX2                !
 ! R8    R(3,5)                  1.4862         estimate D2E/DX2                !
 ! R9    R(3,12)                 1.5181         estimate D2E/DX2                !
 ! R10   R(3,69)                 1.7677         estimate D2E/DX2                !
 ! R11   R(4,5)                  1.3605         estimate D2E/DX2                !
 ! R12   R(4,6)                  1.3923         estimate D2E/DX2                !
 ! R13   R(5,15)                 1.3816         estimate D2E/DX2                !
 ! R14   R(6,8)                  1.4036         estimate D2E/DX2                !
 ! R15   R(6,17)                 1.3904         estimate D2E/DX2                !
 ! R16   R(7,8)                  1.5344         estimate D2E/DX2                !
 ! R17   R(7,9)                  1.5052         estimate D2E/DX2                !
 ! R18   R(7,71)                 1.7892         estimate D2E/DX2                !
 ! R19   R(8,20)                 1.3809         estimate D2E/DX2                !
 ! R20   R(9,11)                 1.4363         estimate D2E/DX2                !
 ! R21   R(9,22)                 1.367          estimate D2E/DX2                !
 ! R22   R(10,11)                1.3976         estimate D2E/DX2                !
 ! R23   R(10,13)                1.391          estimate D2E/DX2                !
 ! R24   R(11,25)                1.3997         estimate D2E/DX2                !
 ! R25   R(12,13)                1.4171         estimate D2E/DX2                !
 ! R26   R(12,14)                1.3724         estimate D2E/DX2                !
 ! R27   R(13,27)                1.4043         estimate D2E/DX2                !
 ! R28   R(14,16)                1.5189         estimate D2E/DX2                !
 ! R29   R(14,29)                1.459          estimate D2E/DX2                !
 ! R30   R(15,16)                1.5191         estimate D2E/DX2                !
 ! R31   R(15,18)                1.4006         estimate D2E/DX2                !
 ! R32   R(16,32)                1.4994         estimate D2E/DX2                !
 ! R33   R(16,70)                1.7978         estimate D2E/DX2                !
 ! R34   R(17,18)                1.4175         estimate D2E/DX2                !
 ! R35   R(17,19)                1.4299         estimate D2E/DX2                !
 ! R36   R(18,33)                1.422          estimate D2E/DX2                !
 ! R37   R(19,21)                1.4171         estimate D2E/DX2                !
 ! R38   R(19,35)                1.4385         estimate D2E/DX2                !
 ! R39   R(20,21)                1.4203         estimate D2E/DX2                !
 ! R40   R(20,23)                1.5062         estimate D2E/DX2                !
 ! R41   R(21,38)                1.5154         estimate D2E/DX2                !
 ! R42   R(22,23)                1.5179         estimate D2E/DX2                !
 ! R43   R(22,24)                1.4404         estimate D2E/DX2                !
 ! R44   R(23,40)                1.4995         estimate D2E/DX2                !
 ! R45   R(23,72)                1.7959         estimate D2E/DX2                !
 ! R46   R(24,26)                1.3746         estimate D2E/DX2                !
 ! R47   R(24,41)                1.4262         estimate D2E/DX2                !
 ! R48   R(25,26)                1.4152         estimate D2E/DX2                !
 ! R49   R(25,28)                1.4246         estimate D2E/DX2                !
 ! R50   R(26,44)                1.4372         estimate D2E/DX2                !
 ! R51   R(27,28)                1.3913         estimate D2E/DX2                !
 ! R52   R(27,30)                1.4378         estimate D2E/DX2                !
 ! R53   R(28,45)                1.419          estimate D2E/DX2                !
 ! R54   R(29,30)                1.4352         estimate D2E/DX2                !
 ! R55   R(29,31)                1.4066         estimate D2E/DX2                !
 ! R56   R(30,47)                1.4109         estimate D2E/DX2                !
 ! R57   R(31,34)                1.4527         estimate D2E/DX2                !
 ! R58   R(31,49)                1.4251         estimate D2E/DX2                !
 ! R59   R(32,33)                1.4177         estimate D2E/DX2                !
 ! R60   R(32,34)                1.3622         estimate D2E/DX2                !
 ! R61   R(33,36)                1.3906         estimate D2E/DX2                !
 ! R62   R(34,51)                1.4401         estimate D2E/DX2                !
 ! R63   R(35,36)                1.4145         estimate D2E/DX2                !
 ! R64   R(35,37)                1.4455         estimate D2E/DX2                !
 ! R65   R(36,52)                1.4407         estimate D2E/DX2                !
 ! R66   R(37,39)                1.3663         estimate D2E/DX2                !
 ! R67   R(37,53)                1.4408         estimate D2E/DX2                !
 ! R68   R(38,39)                1.5034         estimate D2E/DX2                !
 ! R69   R(38,42)                1.5034         estimate D2E/DX2                !
 ! R70   R(38,73)                1.8223         estimate D2E/DX2                !
 ! R71   R(39,57)                1.4225         estimate D2E/DX2                !
 ! R72   R(40,41)                1.4268         estimate D2E/DX2                !
 ! R73   R(40,42)                1.3567         estimate D2E/DX2                !
 ! R74   R(41,43)                1.3878         estimate D2E/DX2                !
 ! R75   R(42,58)                1.4314         estimate D2E/DX2                !
 ! R76   R(43,46)                1.4385         estimate D2E/DX2                !
 ! R77   R(43,59)                1.4221         estimate D2E/DX2                !
 ! R78   R(44,45)                1.4355         estimate D2E/DX2                !
 ! R79   R(44,46)                1.3744         estimate D2E/DX2                !
 ! R80   R(45,48)                1.3805         estimate D2E/DX2                !
 ! R81   R(46,61)                1.4431         estimate D2E/DX2                !
 ! R82   R(47,48)                1.4379         estimate D2E/DX2                !
 ! R83   R(47,50)                1.4251         estimate D2E/DX2                !
 ! R84   R(48,62)                1.4339         estimate D2E/DX2                !
 ! R85   R(49,50)                1.3831         estimate D2E/DX2                !
 ! R86   R(49,54)                1.4412         estimate D2E/DX2                !
 ! R87   R(50,63)                1.4405         estimate D2E/DX2                !
 ! R88   R(51,52)                1.3855         estimate D2E/DX2                !
 ! R89   R(51,54)                1.4348         estimate D2E/DX2                !
 ! R90   R(52,53)                1.4307         estimate D2E/DX2                !
 ! R91   R(53,55)                1.3818         estimate D2E/DX2                !
 ! R92   R(54,56)                1.3854         estimate D2E/DX2                !
 ! R93   R(55,56)                1.4407         estimate D2E/DX2                !
 ! R94   R(55,60)                1.427          estimate D2E/DX2                !
 ! R95   R(56,64)                1.4377         estimate D2E/DX2                !
 ! R96   R(57,58)                1.4291         estimate D2E/DX2                !
 ! R97   R(57,60)                1.3934         estimate D2E/DX2                !
 ! R98   R(58,59)                1.3827         estimate D2E/DX2                !
 ! R99   R(59,65)                1.4401         estimate D2E/DX2                !
 ! R100  R(60,66)                1.4321         estimate D2E/DX2                !
 ! R101  R(61,62)                1.3832         estimate D2E/DX2                !
 ! R102  R(61,65)                1.4369         estimate D2E/DX2                !
 ! R103  R(62,63)                1.4402         estimate D2E/DX2                !
 ! R104  R(63,64)                1.3778         estimate D2E/DX2                !
 ! R105  R(64,66)                1.4425         estimate D2E/DX2                !
 ! R106  R(65,66)                1.3832         estimate D2E/DX2                !
 ! A1    A(2,1,4)               98.782          estimate D2E/DX2                !
 ! A2    A(2,1,7)              119.9364         estimate D2E/DX2                !
 ! A3    A(2,1,67)             109.6488         estimate D2E/DX2                !
 ! A4    A(4,1,7)              102.8107         estimate D2E/DX2                !
 ! A5    A(4,1,67)             111.0381         estimate D2E/DX2                !
 ! A6    A(7,1,67)             113.1918         estimate D2E/DX2                !
 ! A7    A(1,2,3)              109.0083         estimate D2E/DX2                !
 ! A8    A(1,2,10)             109.9092         estimate D2E/DX2                !
 ! A9    A(1,2,68)             111.016          estimate D2E/DX2                !
 ! A10   A(3,2,10)             100.1036         estimate D2E/DX2                !
 ! A11   A(3,2,68)             116.8239         estimate D2E/DX2                !
 ! A12   A(10,2,68)            109.3804         estimate D2E/DX2                !
 ! A13   A(2,3,5)              101.9985         estimate D2E/DX2                !
 ! A14   A(2,3,12)             106.5646         estimate D2E/DX2                !
 ! A15   A(2,3,69)             117.8131         estimate D2E/DX2                !
 ! A16   A(5,3,12)             102.3386         estimate D2E/DX2                !
 ! A17   A(5,3,69)             113.3601         estimate D2E/DX2                !
 ! A18   A(12,3,69)            113.1            estimate D2E/DX2                !
 ! A19   A(1,4,5)              116.5533         estimate D2E/DX2                !
 ! A20   A(1,4,6)              113.0317         estimate D2E/DX2                !
 ! A21   A(5,4,6)              122.1604         estimate D2E/DX2                !
 ! A22   A(3,5,4)              110.5487         estimate D2E/DX2                !
 ! A23   A(3,5,15)             123.0313         estimate D2E/DX2                !
 ! A24   A(4,5,15)             118.0379         estimate D2E/DX2                !
 ! A25   A(4,6,8)              109.7702         estimate D2E/DX2                !
 ! A26   A(4,6,17)             120.9922         estimate D2E/DX2                !
 ! A27   A(8,6,17)             122.7527         estimate D2E/DX2                !
 ! A28   A(1,7,8)              104.9147         estimate D2E/DX2                !
 ! A29   A(1,7,9)              117.3506         estimate D2E/DX2                !
 ! A30   A(1,7,71)             113.8226         estimate D2E/DX2                !
 ! A31   A(8,7,9)              100.8484         estimate D2E/DX2                !
 ! A32   A(8,7,71)             110.7795         estimate D2E/DX2                !
 ! A33   A(9,7,71)             108.2195         estimate D2E/DX2                !
 ! A34   A(6,8,7)              108.6402         estimate D2E/DX2                !
 ! A35   A(6,8,20)             119.3611         estimate D2E/DX2                !
 ! A36   A(7,8,20)             126.8382         estimate D2E/DX2                !
 ! A37   A(7,9,11)             120.2678         estimate D2E/DX2                !
 ! A38   A(7,9,22)             118.8785         estimate D2E/DX2                !
 ! A39   A(11,9,22)            117.5439         estimate D2E/DX2                !
 ! A40   A(2,10,11)            125.9523         estimate D2E/DX2                !
 ! A41   A(2,10,13)            114.0787         estimate D2E/DX2                !
 ! A42   A(11,10,13)           118.3806         estimate D2E/DX2                !
 ! A43   A(9,11,10)            118.5616         estimate D2E/DX2                !
 ! A44   A(9,11,25)            119.8247         estimate D2E/DX2                !
 ! A45   A(10,11,25)           115.3415         estimate D2E/DX2                !
 ! A46   A(3,12,13)            107.623          estimate D2E/DX2                !
 ! A47   A(3,12,14)            126.9514         estimate D2E/DX2                !
 ! A48   A(13,12,14)           118.7984         estimate D2E/DX2                !
 ! A49   A(10,13,12)           107.5435         estimate D2E/DX2                !
 ! A50   A(10,13,27)           125.4407         estimate D2E/DX2                !
 ! A51   A(12,13,27)           121.2034         estimate D2E/DX2                !
 ! A52   A(12,14,16)           118.2595         estimate D2E/DX2                !
 ! A53   A(12,14,29)           120.3121         estimate D2E/DX2                !
 ! A54   A(16,14,29)           119.2741         estimate D2E/DX2                !
 ! A55   A(5,15,16)            122.4649         estimate D2E/DX2                !
 ! A56   A(5,15,18)            119.5506         estimate D2E/DX2                !
 ! A57   A(16,15,18)           110.3321         estimate D2E/DX2                !
 ! A58   A(14,16,15)           105.3459         estimate D2E/DX2                !
 ! A59   A(14,16,32)           112.1004         estimate D2E/DX2                !
 ! A60   A(14,16,70)           109.5389         estimate D2E/DX2                !
 ! A61   A(15,16,32)           100.6854         estimate D2E/DX2                !
 ! A62   A(15,16,70)           114.337          estimate D2E/DX2                !
 ! A63   A(32,16,70)           114.2962         estimate D2E/DX2                !
 ! A64   A(6,17,18)            115.1632         estimate D2E/DX2                !
 ! A65   A(6,17,19)            118.3306         estimate D2E/DX2                !
 ! A66   A(18,17,19)           121.6187         estimate D2E/DX2                !
 ! A67   A(15,18,17)           122.1228         estimate D2E/DX2                !
 ! A68   A(15,18,33)           109.1048         estimate D2E/DX2                !
 ! A69   A(17,18,33)           120.5304         estimate D2E/DX2                !
 ! A70   A(17,19,21)           118.0661         estimate D2E/DX2                !
 ! A71   A(17,19,35)           115.3921         estimate D2E/DX2                !
 ! A72   A(21,19,35)           122.0424         estimate D2E/DX2                !
 ! A73   A(8,20,21)            119.0388         estimate D2E/DX2                !
 ! A74   A(8,20,23)            117.1633         estimate D2E/DX2                !
 ! A75   A(21,20,23)           122.1505         estimate D2E/DX2                !
 ! A76   A(19,21,20)           121.5424         estimate D2E/DX2                !
 ! A77   A(19,21,38)           117.5393         estimate D2E/DX2                !
 ! A78   A(20,21,38)           119.8485         estimate D2E/DX2                !
 ! A79   A(9,22,23)            125.2708         estimate D2E/DX2                !
 ! A80   A(9,22,24)            121.4462         estimate D2E/DX2                !
 ! A81   A(23,22,24)           108.3901         estimate D2E/DX2                !
 ! A82   A(20,23,22)           104.6426         estimate D2E/DX2                !
 ! A83   A(20,23,40)           111.2839         estimate D2E/DX2                !
 ! A84   A(20,23,72)           110.108          estimate D2E/DX2                !
 ! A85   A(22,23,40)           101.6901         estimate D2E/DX2                !
 ! A86   A(22,23,72)           116.1316         estimate D2E/DX2                !
 ! A87   A(40,23,72)           112.5098         estimate D2E/DX2                !
 ! A88   A(22,24,26)           120.9323         estimate D2E/DX2                !
 ! A89   A(22,24,41)           109.9748         estimate D2E/DX2                !
 ! A90   A(26,24,41)           119.2233         estimate D2E/DX2                !
 ! A91   A(11,25,26)           121.7748         estimate D2E/DX2                !
 ! A92   A(11,25,28)           122.8648         estimate D2E/DX2                !
 ! A93   A(26,25,28)           107.2814         estimate D2E/DX2                !
 ! A94   A(24,26,25)           117.2988         estimate D2E/DX2                !
 ! A95   A(24,26,44)           121.1769         estimate D2E/DX2                !
 ! A96   A(25,26,44)           108.6863         estimate D2E/DX2                !
 ! A97   A(13,27,28)           113.8666         estimate D2E/DX2                !
 ! A98   A(13,27,30)           119.3552         estimate D2E/DX2                !
 ! A99   A(28,27,30)           121.4457         estimate D2E/DX2                !
 ! A100  A(25,28,27)           119.6979         estimate D2E/DX2                !
 ! A101  A(25,28,45)           109.2501         estimate D2E/DX2                !
 ! A102  A(27,28,45)           120.9978         estimate D2E/DX2                !
 ! A103  A(14,29,30)           118.7436         estimate D2E/DX2                !
 ! A104  A(14,29,31)           119.4523         estimate D2E/DX2                !
 ! A105  A(30,29,31)           117.2848         estimate D2E/DX2                !
 ! A106  A(27,30,29)           118.7468         estimate D2E/DX2                !
 ! A107  A(27,30,47)           116.0493         estimate D2E/DX2                !
 ! A108  A(29,30,47)           120.0988         estimate D2E/DX2                !
 ! A109  A(29,31,34)           120.7354         estimate D2E/DX2                !
 ! A110  A(29,31,49)           121.9611         estimate D2E/DX2                !
 ! A111  A(34,31,49)           106.6711         estimate D2E/DX2                !
 ! A112  A(16,32,33)           111.1121         estimate D2E/DX2                !
 ! A113  A(16,32,34)           122.0525         estimate D2E/DX2                !
 ! A114  A(33,32,34)           117.256          estimate D2E/DX2                !
 ! A115  A(18,33,32)           107.5766         estimate D2E/DX2                !
 ! A116  A(18,33,36)           118.1154         estimate D2E/DX2                !
 ! A117  A(32,33,36)           123.7017         estimate D2E/DX2                !
 ! A118  A(31,34,32)           119.3443         estimate D2E/DX2                !
 ! A119  A(31,34,51)           108.149          estimate D2E/DX2                !
 ! A120  A(32,34,51)           120.3197         estimate D2E/DX2                !
 ! A121  A(19,35,36)           121.276          estimate D2E/DX2                !
 ! A122  A(19,35,37)           119.4488         estimate D2E/DX2                !
 ! A123  A(36,35,37)           107.818          estimate D2E/DX2                !
 ! A124  A(33,36,35)           121.4314         estimate D2E/DX2                !
 ! A125  A(33,36,52)           117.8621         estimate D2E/DX2                !
 ! A126  A(35,36,52)           109.2805         estimate D2E/DX2                !
 ! A127  A(35,37,39)           119.7656         estimate D2E/DX2                !
 ! A128  A(35,37,53)           106.9258         estimate D2E/DX2                !
 ! A129  A(39,37,53)           121.7494         estimate D2E/DX2                !
 ! A130  A(21,38,39)           113.6639         estimate D2E/DX2                !
 ! A131  A(21,38,42)           110.6382         estimate D2E/DX2                !
 ! A132  A(21,38,73)           105.9985         estimate D2E/DX2                !
 ! A133  A(39,38,42)           101.178          estimate D2E/DX2                !
 ! A134  A(39,38,73)           113.0576         estimate D2E/DX2                !
 ! A135  A(42,38,73)           112.4596         estimate D2E/DX2                !
 ! A136  A(37,39,38)           122.5056         estimate D2E/DX2                !
 ! A137  A(37,39,57)           118.1144         estimate D2E/DX2                !
 ! A138  A(38,39,57)           111.6984         estimate D2E/DX2                !
 ! A139  A(23,40,41)           111.0157         estimate D2E/DX2                !
 ! A140  A(23,40,42)           122.5705         estimate D2E/DX2                !
 ! A141  A(41,40,42)           119.0932         estimate D2E/DX2                !
 ! A142  A(24,41,40)           107.132          estimate D2E/DX2                !
 ! A143  A(24,41,43)           119.6957         estimate D2E/DX2                !
 ! A144  A(40,41,43)           121.4357         estimate D2E/DX2                !
 ! A145  A(38,42,40)           123.0437         estimate D2E/DX2                !
 ! A146  A(38,42,58)           110.202          estimate D2E/DX2                !
 ! A147  A(40,42,58)           119.7796         estimate D2E/DX2                !
 ! A148  A(41,43,46)           121.1465         estimate D2E/DX2                !
 ! A149  A(41,43,59)           119.4807         estimate D2E/DX2                !
 ! A150  A(46,43,59)           107.2838         estimate D2E/DX2                !
 ! A151  A(26,44,45)           107.3244         estimate D2E/DX2                !
 ! A152  A(26,44,46)           120.1015         estimate D2E/DX2                !
 ! A153  A(45,44,46)           119.0056         estimate D2E/DX2                !
 ! A154  A(28,45,44)           107.361          estimate D2E/DX2                !
 ! A155  A(28,45,48)           119.0779         estimate D2E/DX2                !
 ! A156  A(44,45,48)           121.8713         estimate D2E/DX2                !
 ! A157  A(43,46,44)           118.6331         estimate D2E/DX2                !
 ! A158  A(43,46,61)           109.2809         estimate D2E/DX2                !
 ! A159  A(44,46,61)           119.5285         estimate D2E/DX2                !
 ! A160  A(30,47,48)           121.8815         estimate D2E/DX2                !
 ! A161  A(30,47,50)           121.2327         estimate D2E/DX2                !
 ! A162  A(48,47,50)           107.2589         estimate D2E/DX2                !
 ! A163  A(45,48,47)           120.0378         estimate D2E/DX2                !
 ! A164  A(45,48,62)           118.9669         estimate D2E/DX2                !
 ! A165  A(47,48,62)           108.9799         estimate D2E/DX2                !
 ! A166  A(31,49,50)           120.4438         estimate D2E/DX2                !
 ! A167  A(31,49,54)           109.1901         estimate D2E/DX2                !
 ! A168  A(50,49,54)           119.3699         estimate D2E/DX2                !
 ! A169  A(47,50,49)           118.632          estimate D2E/DX2                !
 ! A170  A(47,50,63)           108.3862         estimate D2E/DX2                !
 ! A171  A(49,50,63)           121.0811         estimate D2E/DX2                !
 ! A172  A(34,51,52)           121.3426         estimate D2E/DX2                !
 ! A173  A(34,51,54)           107.6224         estimate D2E/DX2                !
 ! A174  A(52,51,54)           119.0845         estimate D2E/DX2                !
 ! A175  A(36,52,51)           118.1978         estimate D2E/DX2                !
 ! A176  A(36,52,53)           106.5769         estimate D2E/DX2                !
 ! A177  A(51,52,53)           121.1812         estimate D2E/DX2                !
 ! A178  A(37,53,52)           109.0037         estimate D2E/DX2                !
 ! A179  A(37,53,55)           119.84           estimate D2E/DX2                !
 ! A180  A(52,53,55)           119.2429         estimate D2E/DX2                !
 ! A181  A(49,54,51)           107.5522         estimate D2E/DX2                !
 ! A182  A(49,54,56)           119.3155         estimate D2E/DX2                !
 ! A183  A(51,54,56)           120.2683         estimate D2E/DX2                !
 ! A184  A(53,55,56)           120.2089         estimate D2E/DX2                !
 ! A185  A(53,55,60)           118.7822         estimate D2E/DX2                !
 ! A186  A(56,55,60)           108.6468         estimate D2E/DX2                !
 ! A187  A(54,56,55)           119.7771         estimate D2E/DX2                !
 ! A188  A(54,56,64)           120.8369         estimate D2E/DX2                !
 ! A189  A(55,56,64)           107.5447         estimate D2E/DX2                !
 ! A190  A(39,57,58)           107.3413         estimate D2E/DX2                !
 ! A191  A(39,57,60)           121.1262         estimate D2E/DX2                !
 ! A192  A(58,57,60)           120.0967         estimate D2E/DX2                !
 ! A193  A(42,58,57)           109.1653         estimate D2E/DX2                !
 ! A194  A(42,58,59)           121.6689         estimate D2E/DX2                !
 ! A195  A(57,58,59)           119.2657         estimate D2E/DX2                !
 ! A196  A(43,59,58)           118.408          estimate D2E/DX2                !
 ! A197  A(43,59,65)           108.4138         estimate D2E/DX2                !
 ! A198  A(58,59,65)           120.8852         estimate D2E/DX2                !
 ! A199  A(55,60,57)           120.275          estimate D2E/DX2                !
 ! A200  A(55,60,66)           107.7586         estimate D2E/DX2                !
 ! A201  A(57,60,66)           120.3148         estimate D2E/DX2                !
 ! A202  A(46,61,62)           121.0276         estimate D2E/DX2                !
 ! A203  A(46,61,65)           106.2964         estimate D2E/DX2                !
 ! A204  A(62,61,65)           119.7501         estimate D2E/DX2                !
 ! A205  A(48,62,61)           119.3784         estimate D2E/DX2                !
 ! A206  A(48,62,63)           106.9969         estimate D2E/DX2                !
 ! A207  A(61,62,63)           120.3804         estimate D2E/DX2                !
 ! A208  A(50,63,62)           108.0341         estimate D2E/DX2                !
 ! A209  A(50,63,64)           119.279          estimate D2E/DX2                !
 ! A210  A(62,63,64)           119.8078         estimate D2E/DX2                !
 ! A211  A(56,64,63)           119.8509         estimate D2E/DX2                !
 ! A212  A(56,64,66)           107.6517         estimate D2E/DX2                !
 ! A213  A(63,64,66)           119.8526         estimate D2E/DX2                !
 ! A214  A(59,65,61)           108.6832         estimate D2E/DX2                !
 ! A215  A(59,65,66)           119.5622         estimate D2E/DX2                !
 ! A216  A(61,65,66)           119.8614         estimate D2E/DX2                !
 ! A217  A(60,66,64)           108.3375         estimate D2E/DX2                !
 ! A218  A(60,66,65)           119.7356         estimate D2E/DX2                !
 ! A219  A(64,66,65)           120.2166         estimate D2E/DX2                !
 ! D1    D(4,1,2,3)             17.123          estimate D2E/DX2                !
 ! D2    D(4,1,2,10)           -91.6675         estimate D2E/DX2                !
 ! D3    D(4,1,2,68)           147.1862         estimate D2E/DX2                !
 ! D4    D(7,1,2,3)            127.48           estimate D2E/DX2                !
 ! D5    D(7,1,2,10)            18.6895         estimate D2E/DX2                !
 ! D6    D(7,1,2,68)          -102.4568         estimate D2E/DX2                !
 ! D7    D(67,1,2,3)           -99.0361         estimate D2E/DX2                !
 ! D8    D(67,1,2,10)          152.1734         estimate D2E/DX2                !
 ! D9    D(67,1,2,68)           31.0271         estimate D2E/DX2                !
 ! D10   D(2,1,4,5)            -16.1144         estimate D2E/DX2                !
 ! D11   D(2,1,4,6)            133.0963         estimate D2E/DX2                !
 ! D12   D(7,1,4,5)           -139.6859         estimate D2E/DX2                !
 ! D13   D(7,1,4,6)              9.5247         estimate D2E/DX2                !
 ! D14   D(67,1,4,5)            98.9706         estimate D2E/DX2                !
 ! D15   D(67,1,4,6)          -111.8187         estimate D2E/DX2                !
 ! D16   D(2,1,7,8)           -115.4029         estimate D2E/DX2                !
 ! D17   D(2,1,7,9)             -4.4832         estimate D2E/DX2                !
 ! D18   D(2,1,7,71)           123.3361         estimate D2E/DX2                !
 ! D19   D(4,1,7,8)             -7.2456         estimate D2E/DX2                !
 ! D20   D(4,1,7,9)            103.6741         estimate D2E/DX2                !
 ! D21   D(4,1,7,71)          -128.5066         estimate D2E/DX2                !
 ! D22   D(67,1,7,8)           112.6182         estimate D2E/DX2                !
 ! D23   D(67,1,7,9)          -136.4621         estimate D2E/DX2                !
 ! D24   D(67,1,7,71)           -8.6428         estimate D2E/DX2                !
 ! D25   D(1,2,3,5)            -13.3542         estimate D2E/DX2                !
 ! D26   D(1,2,3,12)          -120.2801         estimate D2E/DX2                !
 ! D27   D(1,2,3,69)           111.4258         estimate D2E/DX2                !
 ! D28   D(10,2,3,5)           101.9377         estimate D2E/DX2                !
 ! D29   D(10,2,3,12)           -4.9882         estimate D2E/DX2                !
 ! D30   D(10,2,3,69)         -133.2823         estimate D2E/DX2                !
 ! D31   D(68,2,3,5)          -140.1699         estimate D2E/DX2                !
 ! D32   D(68,2,3,12)          112.9042         estimate D2E/DX2                !
 ! D33   D(68,2,3,69)          -15.3899         estimate D2E/DX2                !
 ! D34   D(1,2,10,11)          -34.195          estimate D2E/DX2                !
 ! D35   D(1,2,10,13)          131.1008         estimate D2E/DX2                !
 ! D36   D(3,2,10,11)         -148.8027         estimate D2E/DX2                !
 ! D37   D(3,2,10,13)           16.493          estimate D2E/DX2                !
 ! D38   D(68,2,10,11)          87.9281         estimate D2E/DX2                !
 ! D39   D(68,2,10,13)        -106.7761         estimate D2E/DX2                !
 ! D40   D(2,3,5,4)              3.4992         estimate D2E/DX2                !
 ! D41   D(2,3,5,15)          -143.9057         estimate D2E/DX2                !
 ! D42   D(12,3,5,4)           113.6715         estimate D2E/DX2                !
 ! D43   D(12,3,5,15)          -33.7334         estimate D2E/DX2                !
 ! D44   D(69,3,5,4)          -124.1913         estimate D2E/DX2                !
 ! D45   D(69,3,5,15)           88.4039         estimate D2E/DX2                !
 ! D46   D(2,3,12,13)           -7.0453         estimate D2E/DX2                !
 ! D47   D(2,3,12,14)          143.5813         estimate D2E/DX2                !
 ! D48   D(5,3,12,13)         -113.7284         estimate D2E/DX2                !
 ! D49   D(5,3,12,14)           36.8981         estimate D2E/DX2                !
 ! D50   D(69,3,12,13)         123.9572         estimate D2E/DX2                !
 ! D51   D(69,3,12,14)         -85.4162         estimate D2E/DX2                !
 ! D52   D(1,4,5,3)              8.6458         estimate D2E/DX2                !
 ! D53   D(1,4,5,15)           157.8698         estimate D2E/DX2                !
 ! D54   D(6,4,5,3)           -137.5427         estimate D2E/DX2                !
 ! D55   D(6,4,5,15)            11.6813         estimate D2E/DX2                !
 ! D56   D(1,4,6,8)             -8.031          estimate D2E/DX2                !
 ! D57   D(1,4,6,17)          -160.4734         estimate D2E/DX2                !
 ! D58   D(5,4,6,8)            139.2253         estimate D2E/DX2                !
 ! D59   D(5,4,6,17)           -13.217          estimate D2E/DX2                !
 ! D60   D(3,5,15,16)           -1.0164         estimate D2E/DX2                !
 ! D61   D(3,5,15,18)          145.5047         estimate D2E/DX2                !
 ! D62   D(4,5,15,16)         -146.1618         estimate D2E/DX2                !
 ! D63   D(4,5,15,18)            0.3594         estimate D2E/DX2                !
 ! D64   D(4,6,8,7)              2.6426         estimate D2E/DX2                !
 ! D65   D(4,6,8,20)          -153.6733         estimate D2E/DX2                !
 ! D66   D(17,6,8,7)           154.5067         estimate D2E/DX2                !
 ! D67   D(17,6,8,20)           -1.8092         estimate D2E/DX2                !
 ! D68   D(4,6,17,18)            2.1939         estimate D2E/DX2                !
 ! D69   D(4,6,17,19)          157.8832         estimate D2E/DX2                !
 ! D70   D(8,6,17,18)         -146.6298         estimate D2E/DX2                !
 ! D71   D(8,6,17,19)            9.0595         estimate D2E/DX2                !
 ! D72   D(1,7,8,6)              3.1615         estimate D2E/DX2                !
 ! D73   D(1,7,8,20)           157.221          estimate D2E/DX2                !
 ! D74   D(9,7,8,6)           -119.1923         estimate D2E/DX2                !
 ! D75   D(9,7,8,20)            34.8672         estimate D2E/DX2                !
 ! D76   D(71,7,8,6)           126.4009         estimate D2E/DX2                !
 ! D77   D(71,7,8,20)          -79.5396         estimate D2E/DX2                !
 ! D78   D(1,7,9,11)             0.3506         estimate D2E/DX2                !
 ! D79   D(1,7,9,22)          -158.6098         estimate D2E/DX2                !
 ! D80   D(8,7,9,11)           113.565          estimate D2E/DX2                !
 ! D81   D(8,7,9,22)           -45.3954         estimate D2E/DX2                !
 ! D82   D(71,7,9,11)         -130.1158         estimate D2E/DX2                !
 ! D83   D(71,7,9,22)           70.9238         estimate D2E/DX2                !
 ! D84   D(6,8,20,21)           -6.3136         estimate D2E/DX2                !
 ! D85   D(6,8,20,23)          159.3809         estimate D2E/DX2                !
 ! D86   D(7,8,20,21)         -157.9164         estimate D2E/DX2                !
 ! D87   D(7,8,20,23)            7.778          estimate D2E/DX2                !
 ! D88   D(7,9,11,10)          -12.5627         estimate D2E/DX2                !
 ! D89   D(7,9,11,25)         -163.4638         estimate D2E/DX2                !
 ! D90   D(22,9,11,10)         146.6711         estimate D2E/DX2                !
 ! D91   D(22,9,11,25)          -4.2299         estimate D2E/DX2                !
 ! D92   D(7,9,22,23)           17.0868         estimate D2E/DX2                !
 ! D93   D(7,9,22,24)          169.3935         estimate D2E/DX2                !
 ! D94   D(11,9,22,23)        -142.4437         estimate D2E/DX2                !
 ! D95   D(11,9,22,24)           9.8631         estimate D2E/DX2                !
 ! D96   D(2,10,11,9)           32.5036         estimate D2E/DX2                !
 ! D97   D(2,10,11,25)        -175.3251         estimate D2E/DX2                !
 ! D98   D(13,10,11,9)        -132.2245         estimate D2E/DX2                !
 ! D99   D(13,10,11,25)         19.9469         estimate D2E/DX2                !
 ! D100  D(2,10,13,12)         -22.2048         estimate D2E/DX2                !
 ! D101  D(2,10,13,27)        -175.3204         estimate D2E/DX2                !
 ! D102  D(11,10,13,12)        144.2892         estimate D2E/DX2                !
 ! D103  D(11,10,13,27)         -8.8264         estimate D2E/DX2                !
 ! D104  D(9,11,25,26)          -6.0092         estimate D2E/DX2                !
 ! D105  D(9,11,25,28)         138.6969         estimate D2E/DX2                !
 ! D106  D(10,11,25,26)       -157.8051         estimate D2E/DX2                !
 ! D107  D(10,11,25,28)        -13.099          estimate D2E/DX2                !
 ! D108  D(3,12,13,10)          17.148          estimate D2E/DX2                !
 ! D109  D(3,12,13,27)         171.6349         estimate D2E/DX2                !
 ! D110  D(14,12,13,10)       -136.2812         estimate D2E/DX2                !
 ! D111  D(14,12,13,27)         18.2057         estimate D2E/DX2                !
 ! D112  D(3,12,14,16)          -3.0026         estimate D2E/DX2                !
 ! D113  D(3,12,14,29)        -166.205          estimate D2E/DX2                !
 ! D114  D(13,12,14,16)        144.758          estimate D2E/DX2                !
 ! D115  D(13,12,14,29)        -18.4444         estimate D2E/DX2                !
 ! D116  D(10,13,27,28)        -10.4439         estimate D2E/DX2                !
 ! D117  D(10,13,27,30)        144.1594         estimate D2E/DX2                !
 ! D118  D(12,13,27,28)       -160.1734         estimate D2E/DX2                !
 ! D119  D(12,13,27,30)         -5.5701         estimate D2E/DX2                !
 ! D120  D(12,14,16,15)        -33.3209         estimate D2E/DX2                !
 ! D121  D(12,14,16,32)       -141.9207         estimate D2E/DX2                !
 ! D122  D(12,14,16,70)         90.104          estimate D2E/DX2                !
 ! D123  D(29,14,16,15)        130.06           estimate D2E/DX2                !
 ! D124  D(29,14,16,32)         21.4602         estimate D2E/DX2                !
 ! D125  D(29,14,16,70)       -106.5152         estimate D2E/DX2                !
 ! D126  D(12,14,29,30)          6.5729         estimate D2E/DX2                !
 ! D127  D(12,14,29,31)        162.0981         estimate D2E/DX2                !
 ! D128  D(16,14,29,30)       -156.4605         estimate D2E/DX2                !
 ! D129  D(16,14,29,31)         -0.9353         estimate D2E/DX2                !
 ! D130  D(5,15,16,14)          36.3264         estimate D2E/DX2                !
 ! D131  D(5,15,16,32)         152.9935         estimate D2E/DX2                !
 ! D132  D(5,15,16,70)         -83.9891         estimate D2E/DX2                !
 ! D133  D(18,15,16,14)       -112.8925         estimate D2E/DX2                !
 ! D134  D(18,15,16,32)          3.7746         estimate D2E/DX2                !
 ! D135  D(18,15,16,70)        126.792          estimate D2E/DX2                !
 ! D136  D(5,15,18,17)         -11.2853         estimate D2E/DX2                !
 ! D137  D(5,15,18,33)        -159.7434         estimate D2E/DX2                !
 ! D138  D(16,15,18,17)        138.9561         estimate D2E/DX2                !
 ! D139  D(16,15,18,33)         -9.502          estimate D2E/DX2                !
 ! D140  D(14,16,32,33)        114.8361         estimate D2E/DX2                !
 ! D141  D(14,16,32,34)        -30.3463         estimate D2E/DX2                !
 ! D142  D(15,16,32,33)          3.2873         estimate D2E/DX2                !
 ! D143  D(15,16,32,34)       -141.8951         estimate D2E/DX2                !
 ! D144  D(70,16,32,33)       -119.7585         estimate D2E/DX2                !
 ! D145  D(70,16,32,34)         95.0591         estimate D2E/DX2                !
 ! D146  D(6,17,18,15)           9.7179         estimate D2E/DX2                !
 ! D147  D(6,17,18,33)         154.6972         estimate D2E/DX2                !
 ! D148  D(19,17,18,15)       -145.0969         estimate D2E/DX2                !
 ! D149  D(19,17,18,33)         -0.1176         estimate D2E/DX2                !
 ! D150  D(6,17,19,21)          -7.9402         estimate D2E/DX2                !
 ! D151  D(6,17,19,35)        -164.6672         estimate D2E/DX2                !
 ! D152  D(18,17,19,21)        146.1107         estimate D2E/DX2                !
 ! D153  D(18,17,19,35)        -10.6162         estimate D2E/DX2                !
 ! D154  D(15,18,33,32)         11.3878         estimate D2E/DX2                !
 ! D155  D(15,18,33,36)        157.4004         estimate D2E/DX2                !
 ! D156  D(17,18,33,32)       -137.6584         estimate D2E/DX2                !
 ! D157  D(17,18,33,36)          8.3542         estimate D2E/DX2                !
 ! D158  D(17,19,21,20)          0.0711         estimate D2E/DX2                !
 ! D159  D(17,19,21,38)       -168.0779         estimate D2E/DX2                !
 ! D160  D(35,19,21,20)        155.1675         estimate D2E/DX2                !
 ! D161  D(35,19,21,38)        -12.9816         estimate D2E/DX2                !
 ! D162  D(17,19,35,36)         13.6873         estimate D2E/DX2                !
 ! D163  D(17,19,35,37)        152.6341         estimate D2E/DX2                !
 ! D164  D(21,19,35,36)       -142.0255         estimate D2E/DX2                !
 ! D165  D(21,19,35,37)         -3.0787         estimate D2E/DX2                !
 ! D166  D(8,20,21,19)           7.172          estimate D2E/DX2                !
 ! D167  D(8,20,21,38)         175.0527         estimate D2E/DX2                !
 ! D168  D(23,20,21,19)       -157.7782         estimate D2E/DX2                !
 ! D169  D(23,20,21,38)         10.1025         estimate D2E/DX2                !
 ! D170  D(8,20,23,22)         -38.4878         estimate D2E/DX2                !
 ! D171  D(8,20,23,40)        -147.5462         estimate D2E/DX2                !
 ! D172  D(8,20,23,72)          86.9924         estimate D2E/DX2                !
 ! D173  D(21,20,23,22)        126.7292         estimate D2E/DX2                !
 ! D174  D(21,20,23,40)         17.6708         estimate D2E/DX2                !
 ! D175  D(21,20,23,72)       -107.7906         estimate D2E/DX2                !
 ! D176  D(19,21,38,39)         24.9804         estimate D2E/DX2                !
 ! D177  D(19,21,38,42)        138.0107         estimate D2E/DX2                !
 ! D178  D(19,21,38,73)        -99.8036         estimate D2E/DX2                !
 ! D179  D(20,21,38,39)       -143.3778         estimate D2E/DX2                !
 ! D180  D(20,21,38,42)        -30.3475         estimate D2E/DX2                !
 ! D181  D(20,21,38,73)         91.8382         estimate D2E/DX2                !
 ! D182  D(9,22,23,20)          28.1039         estimate D2E/DX2                !
 ! D183  D(9,22,23,40)         144.0281         estimate D2E/DX2                !
 ! D184  D(9,22,23,72)         -93.4945         estimate D2E/DX2                !
 ! D185  D(24,22,23,20)       -127.1991         estimate D2E/DX2                !
 ! D186  D(24,22,23,40)        -11.2749         estimate D2E/DX2                !
 ! D187  D(24,22,23,72)        111.2024         estimate D2E/DX2                !
 ! D188  D(9,22,24,26)          -5.5271         estimate D2E/DX2                !
 ! D189  D(9,22,24,41)        -150.9543         estimate D2E/DX2                !
 ! D190  D(23,22,24,26)        150.9044         estimate D2E/DX2                !
 ! D191  D(23,22,24,41)          5.4771         estimate D2E/DX2                !
 ! D192  D(20,23,40,41)        124.612          estimate D2E/DX2                !
 ! D193  D(20,23,40,42)        -25.1            estimate D2E/DX2                !
 ! D194  D(22,23,40,41)         13.6564         estimate D2E/DX2                !
 ! D195  D(22,23,40,42)       -136.0556         estimate D2E/DX2                !
 ! D196  D(72,23,40,41)       -111.2753         estimate D2E/DX2                !
 ! D197  D(72,23,40,42)         99.0127         estimate D2E/DX2                !
 ! D198  D(22,24,26,25)         -4.6886         estimate D2E/DX2                !
 ! D199  D(22,24,26,44)       -141.8849         estimate D2E/DX2                !
 ! D200  D(41,24,26,25)        137.6428         estimate D2E/DX2                !
 ! D201  D(41,24,26,44)          0.4464         estimate D2E/DX2                !
 ! D202  D(22,24,41,40)          3.2548         estimate D2E/DX2                !
 ! D203  D(22,24,41,43)        146.7746         estimate D2E/DX2                !
 ! D204  D(26,24,41,40)       -142.846          estimate D2E/DX2                !
 ! D205  D(26,24,41,43)          0.6737         estimate D2E/DX2                !
 ! D206  D(11,25,26,24)         10.3483         estimate D2E/DX2                !
 ! D207  D(11,25,26,44)        152.4906         estimate D2E/DX2                !
 ! D208  D(28,25,26,24)       -139.1048         estimate D2E/DX2                !
 ! D209  D(28,25,26,44)          3.0376         estimate D2E/DX2                !
 ! D210  D(11,25,28,27)         -6.345          estimate D2E/DX2                !
 ! D211  D(11,25,28,45)       -152.1536         estimate D2E/DX2                !
 ! D212  D(26,25,28,27)        142.6977         estimate D2E/DX2                !
 ! D213  D(26,25,28,45)         -3.1109         estimate D2E/DX2                !
 ! D214  D(24,26,44,45)        138.552          estimate D2E/DX2                !
 ! D215  D(24,26,44,46)         -1.6181         estimate D2E/DX2                !
 ! D216  D(25,26,44,45)         -1.849          estimate D2E/DX2                !
 ! D217  D(25,26,44,46)       -142.0191         estimate D2E/DX2                !
 ! D218  D(13,27,28,25)         17.4074         estimate D2E/DX2                !
 ! D219  D(13,27,28,45)        159.1693         estimate D2E/DX2                !
 ! D220  D(30,27,28,25)       -136.6058         estimate D2E/DX2                !
 ! D221  D(30,27,28,45)          5.1561         estimate D2E/DX2                !
 ! D222  D(13,27,30,29)         -6.3762         estimate D2E/DX2                !
 ! D223  D(13,27,30,47)       -161.1715         estimate D2E/DX2                !
 ! D224  D(28,27,30,29)        146.2543         estimate D2E/DX2                !
 ! D225  D(28,27,30,47)         -8.541          estimate D2E/DX2                !
 ! D226  D(25,28,45,44)          1.9689         estimate D2E/DX2                !
 ! D227  D(25,28,45,48)        145.7582         estimate D2E/DX2                !
 ! D228  D(27,28,45,44)       -143.3176         estimate D2E/DX2                !
 ! D229  D(27,28,45,48)          0.4717         estimate D2E/DX2                !
 ! D230  D(14,29,30,27)          5.9617         estimate D2E/DX2                !
 ! D231  D(14,29,30,47)        159.716          estimate D2E/DX2                !
 ! D232  D(31,29,30,27)       -150.0898         estimate D2E/DX2                !
 ! D233  D(31,29,30,47)          3.6645         estimate D2E/DX2                !
 ! D234  D(14,29,31,34)        -14.2515         estimate D2E/DX2                !
 ! D235  D(14,29,31,49)       -154.1029         estimate D2E/DX2                !
 ! D236  D(30,29,31,34)        141.6242         estimate D2E/DX2                !
 ! D237  D(30,29,31,49)          1.7727         estimate D2E/DX2                !
 ! D238  D(27,30,47,48)          6.7509         estimate D2E/DX2                !
 ! D239  D(27,30,47,50)        148.5459         estimate D2E/DX2                !
 ! D240  D(29,30,47,48)       -147.6826         estimate D2E/DX2                !
 ! D241  D(29,30,47,50)         -5.8875         estimate D2E/DX2                !
 ! D242  D(29,31,34,32)          6.429          estimate D2E/DX2                !
 ! D243  D(29,31,34,51)       -136.1072         estimate D2E/DX2                !
 ! D244  D(49,31,34,32)        151.6068         estimate D2E/DX2                !
 ! D245  D(49,31,34,51)          9.0706         estimate D2E/DX2                !
 ! D246  D(29,31,49,50)         -5.2101         estimate D2E/DX2                !
 ! D247  D(29,31,49,54)        138.5844         estimate D2E/DX2                !
 ! D248  D(34,31,49,50)       -149.8635         estimate D2E/DX2                !
 ! D249  D(34,31,49,54)         -6.0689         estimate D2E/DX2                !
 ! D250  D(16,32,33,18)         -9.0513         estimate D2E/DX2                !
 ! D251  D(16,32,33,36)       -152.7061         estimate D2E/DX2                !
 ! D252  D(34,32,33,18)        137.967          estimate D2E/DX2                !
 ! D253  D(34,32,33,36)         -5.6878         estimate D2E/DX2                !
 ! D254  D(16,32,34,31)         17.3256         estimate D2E/DX2                !
 ! D255  D(16,32,34,51)        155.2907         estimate D2E/DX2                !
 ! D256  D(33,32,34,31)       -125.8641         estimate D2E/DX2                !
 ! D257  D(33,32,34,51)         12.101          estimate D2E/DX2                !
 ! D258  D(18,33,36,35)         -5.3164         estimate D2E/DX2                !
 ! D259  D(18,33,36,52)       -144.8504         estimate D2E/DX2                !
 ! D260  D(32,33,36,35)        134.8494         estimate D2E/DX2                !
 ! D261  D(32,33,36,52)         -4.6846         estimate D2E/DX2                !
 ! D262  D(31,34,51,52)        133.5864         estimate D2E/DX2                !
 ! D263  D(31,34,51,54)         -8.6587         estimate D2E/DX2                !
 ! D264  D(32,34,51,52)         -8.5177         estimate D2E/DX2                !
 ! D265  D(32,34,51,54)       -150.7628         estimate D2E/DX2                !
 ! D266  D(19,35,36,33)         -6.0335         estimate D2E/DX2                !
 ! D267  D(19,35,36,52)        136.5319         estimate D2E/DX2                !
 ! D268  D(37,35,36,33)       -149.1123         estimate D2E/DX2                !
 ! D269  D(37,35,36,52)         -6.5468         estimate D2E/DX2                !
 ! D270  D(19,35,37,39)          5.5969         estimate D2E/DX2                !
 ! D271  D(19,35,37,53)       -138.272          estimate D2E/DX2                !
 ! D272  D(36,35,37,39)        149.4685         estimate D2E/DX2                !
 ! D273  D(36,35,37,53)          5.5996         estimate D2E/DX2                !
 ! D274  D(33,36,52,51)          8.3777         estimate D2E/DX2                !
 ! D275  D(33,36,52,53)        148.9601         estimate D2E/DX2                !
 ! D276  D(35,36,52,51)       -135.7012         estimate D2E/DX2                !
 ! D277  D(35,36,52,53)          4.8812         estimate D2E/DX2                !
 ! D278  D(35,37,39,38)          8.6768         estimate D2E/DX2                !
 ! D279  D(35,37,39,57)       -138.1994         estimate D2E/DX2                !
 ! D280  D(53,37,39,38)        147.1202         estimate D2E/DX2                !
 ! D281  D(53,37,39,57)          0.244          estimate D2E/DX2                !
 ! D282  D(35,37,53,52)         -2.6108         estimate D2E/DX2                !
 ! D283  D(35,37,53,55)        139.8752         estimate D2E/DX2                !
 ! D284  D(39,37,53,52)       -145.6039         estimate D2E/DX2                !
 ! D285  D(39,37,53,55)         -3.1179         estimate D2E/DX2                !
 ! D286  D(21,38,39,37)        -23.679          estimate D2E/DX2                !
 ! D287  D(21,38,39,57)        125.0739         estimate D2E/DX2                !
 ! D288  D(42,38,39,37)       -142.29           estimate D2E/DX2                !
 ! D289  D(42,38,39,57)          6.463          estimate D2E/DX2                !
 ! D290  D(73,38,39,37)         97.223          estimate D2E/DX2                !
 ! D291  D(73,38,39,57)       -114.024          estimate D2E/DX2                !
 ! D292  D(21,38,42,40)         24.0084         estimate D2E/DX2                !
 ! D293  D(21,38,42,58)       -126.5315         estimate D2E/DX2                !
 ! D294  D(39,38,42,40)        144.7798         estimate D2E/DX2                !
 ! D295  D(39,38,42,58)         -5.7601         estimate D2E/DX2                !
 ! D296  D(73,38,42,40)        -94.3107         estimate D2E/DX2                !
 ! D297  D(73,38,42,58)        115.1494         estimate D2E/DX2                !
 ! D298  D(37,39,57,58)        145.3957         estimate D2E/DX2                !
 ! D299  D(37,39,57,60)          2.0499         estimate D2E/DX2                !
 ! D300  D(38,39,57,58)         -4.8695         estimate D2E/DX2                !
 ! D301  D(38,39,57,60)       -148.2152         estimate D2E/DX2                !
 ! D302  D(23,40,41,24)        -11.0169         estimate D2E/DX2                !
 ! D303  D(23,40,41,43)       -153.766          estimate D2E/DX2                !
 ! D304  D(42,40,41,24)        139.8791         estimate D2E/DX2                !
 ! D305  D(42,40,41,43)         -2.87           estimate D2E/DX2                !
 ! D306  D(23,40,42,38)          3.9021         estimate D2E/DX2                !
 ! D307  D(23,40,42,58)        151.7757         estimate D2E/DX2                !
 ! D308  D(41,40,42,38)       -143.4975         estimate D2E/DX2                !
 ! D309  D(41,40,42,58)          4.3761         estimate D2E/DX2                !
 ! D310  D(24,41,43,46)         -0.6675         estimate D2E/DX2                !
 ! D311  D(24,41,43,59)       -138.4359         estimate D2E/DX2                !
 ! D312  D(40,41,43,46)        137.5809         estimate D2E/DX2                !
 ! D313  D(40,41,43,59)         -0.1875         estimate D2E/DX2                !
 ! D314  D(38,42,58,57)          3.2846         estimate D2E/DX2                !
 ! D315  D(38,42,58,59)        148.6194         estimate D2E/DX2                !
 ! D316  D(40,42,58,57)       -148.3564         estimate D2E/DX2                !
 ! D317  D(40,42,58,59)         -3.0216         estimate D2E/DX2                !
 ! D318  D(41,43,46,44)         -0.4846         estimate D2E/DX2                !
 ! D319  D(41,43,46,61)       -142.2873         estimate D2E/DX2                !
 ! D320  D(59,43,46,44)        141.7252         estimate D2E/DX2                !
 ! D321  D(59,43,46,61)         -0.0775         estimate D2E/DX2                !
 ! D322  D(41,43,59,58)          1.5939         estimate D2E/DX2                !
 ! D323  D(41,43,59,65)        144.2641         estimate D2E/DX2                !
 ! D324  D(46,43,59,58)       -141.3611         estimate D2E/DX2                !
 ! D325  D(46,43,59,65)          1.3091         estimate D2E/DX2                !
 ! D326  D(26,44,45,28)         -0.0769         estimate D2E/DX2                !
 ! D327  D(26,44,45,48)       -142.6351         estimate D2E/DX2                !
 ! D328  D(46,44,45,28)        140.6068         estimate D2E/DX2                !
 ! D329  D(46,44,45,48)         -1.9514         estimate D2E/DX2                !
 ! D330  D(26,44,46,43)          1.5962         estimate D2E/DX2                !
 ! D331  D(26,44,46,61)        139.4658         estimate D2E/DX2                !
 ! D332  D(45,44,46,43)       -134.0453         estimate D2E/DX2                !
 ! D333  D(45,44,46,61)          3.8242         estimate D2E/DX2                !
 ! D334  D(28,45,48,47)         -2.261          estimate D2E/DX2                !
 ! D335  D(28,45,48,62)       -140.8076         estimate D2E/DX2                !
 ! D336  D(44,45,48,47)        136.1378         estimate D2E/DX2                !
 ! D337  D(44,45,48,62)         -2.4088         estimate D2E/DX2                !
 ! D338  D(43,46,61,62)        140.0108         estimate D2E/DX2                !
 ! D339  D(43,46,61,65)         -1.1735         estimate D2E/DX2                !
 ! D340  D(44,46,61,62)         -1.3972         estimate D2E/DX2                !
 ! D341  D(44,46,61,65)       -142.5815         estimate D2E/DX2                !
 ! D342  D(30,47,48,45)         -1.5469         estimate D2E/DX2                !
 ! D343  D(30,47,48,62)        140.6831         estimate D2E/DX2                !
 ! D344  D(50,47,48,45)       -147.9206         estimate D2E/DX2                !
 ! D345  D(50,47,48,62)         -5.6906         estimate D2E/DX2                !
 ! D346  D(30,47,50,49)          2.4753         estimate D2E/DX2                !
 ! D347  D(30,47,50,63)       -140.7772         estimate D2E/DX2                !
 ! D348  D(48,47,50,49)        149.1127         estimate D2E/DX2                !
 ! D349  D(48,47,50,63)          5.8602         estimate D2E/DX2                !
 ! D350  D(45,48,62,61)          4.8218         estimate D2E/DX2                !
 ! D351  D(45,48,62,63)        145.9879         estimate D2E/DX2                !
 ! D352  D(47,48,62,61)       -137.8739         estimate D2E/DX2                !
 ! D353  D(47,48,62,63)          3.2923         estimate D2E/DX2                !
 ! D354  D(31,49,50,47)          2.9934         estimate D2E/DX2                !
 ! D355  D(31,49,50,63)        141.4706         estimate D2E/DX2                !
 ! D356  D(54,49,50,47)       -137.2047         estimate D2E/DX2                !
 ! D357  D(54,49,50,63)          1.2726         estimate D2E/DX2                !
 ! D358  D(31,49,54,51)          0.7964         estimate D2E/DX2                !
 ! D359  D(31,49,54,56)       -140.8246         estimate D2E/DX2                !
 ! D360  D(50,49,54,51)        145.0394         estimate D2E/DX2                !
 ! D361  D(50,49,54,56)          3.4184         estimate D2E/DX2                !
 ! D362  D(47,50,63,62)         -3.8855         estimate D2E/DX2                !
 ! D363  D(47,50,63,64)        137.5485         estimate D2E/DX2                !
 ! D364  D(49,50,63,62)       -146.0676         estimate D2E/DX2                !
 ! D365  D(49,50,63,64)         -4.6336         estimate D2E/DX2                !
 ! D366  D(34,51,52,36)         -2.1566         estimate D2E/DX2                !
 ! D367  D(34,51,52,53)       -136.8124         estimate D2E/DX2                !
 ! D368  D(54,51,52,36)        135.9495         estimate D2E/DX2                !
 ! D369  D(54,51,52,53)          1.2936         estimate D2E/DX2                !
 ! D370  D(34,51,54,49)          4.8739         estimate D2E/DX2                !
 ! D371  D(34,51,54,56)        146.0595         estimate D2E/DX2                !
 ! D372  D(52,51,54,49)       -138.3713         estimate D2E/DX2                !
 ! D373  D(52,51,54,56)          2.8142         estimate D2E/DX2                !
 ! D374  D(36,52,53,37)         -1.3127         estimate D2E/DX2                !
 ! D375  D(36,52,53,55)       -144.0573         estimate D2E/DX2                !
 ! D376  D(51,52,53,37)        137.8353         estimate D2E/DX2                !
 ! D377  D(51,52,53,55)         -4.9092         estimate D2E/DX2                !
 ! D378  D(37,53,55,56)       -134.3057         estimate D2E/DX2                !
 ! D379  D(37,53,55,60)          3.5941         estimate D2E/DX2                !
 ! D380  D(52,53,55,56)          4.405          estimate D2E/DX2                !
 ! D381  D(52,53,55,60)        142.3048         estimate D2E/DX2                !
 ! D382  D(49,54,56,55)        133.45           estimate D2E/DX2                !
 ! D383  D(49,54,56,64)         -4.8013         estimate D2E/DX2                !
 ! D384  D(51,54,56,55)         -3.2836         estimate D2E/DX2                !
 ! D385  D(51,54,56,64)       -141.5349         estimate D2E/DX2                !
 ! D386  D(53,55,56,54)         -0.3785         estimate D2E/DX2                !
 ! D387  D(53,55,56,64)        142.7785         estimate D2E/DX2                !
 ! D388  D(60,55,56,54)       -142.051          estimate D2E/DX2                !
 ! D389  D(60,55,56,64)          1.106          estimate D2E/DX2                !
 ! D390  D(53,55,60,57)         -1.3616         estimate D2E/DX2                !
 ! D391  D(53,55,60,66)       -144.5555         estimate D2E/DX2                !
 ! D392  D(56,55,60,57)        140.9418         estimate D2E/DX2                !
 ! D393  D(56,55,60,66)         -2.2521         estimate D2E/DX2                !
 ! D394  D(54,56,64,63)          1.4406         estimate D2E/DX2                !
 ! D395  D(54,56,64,66)        143.151          estimate D2E/DX2                !
 ! D396  D(55,56,64,63)       -141.2482         estimate D2E/DX2                !
 ! D397  D(55,56,64,66)          0.4622         estimate D2E/DX2                !
 ! D398  D(39,57,58,42)          0.9384         estimate D2E/DX2                !
 ! D399  D(39,57,58,59)       -145.3567         estimate D2E/DX2                !
 ! D400  D(60,57,58,42)        144.7337         estimate D2E/DX2                !
 ! D401  D(60,57,58,59)         -1.5614         estimate D2E/DX2                !
 ! D402  D(39,57,60,55)         -1.5201         estimate D2E/DX2                !
 ! D403  D(39,57,60,66)        137.1088         estimate D2E/DX2                !
 ! D404  D(58,57,60,55)       -140.3232         estimate D2E/DX2                !
 ! D405  D(58,57,60,66)         -1.6943         estimate D2E/DX2                !
 ! D406  D(42,58,59,43)         -0.0531         estimate D2E/DX2                !
 ! D407  D(42,58,59,65)       -137.9534         estimate D2E/DX2                !
 ! D408  D(57,58,59,43)        141.9322         estimate D2E/DX2                !
 ! D409  D(57,58,59,65)          4.0319         estimate D2E/DX2                !
 ! D410  D(43,59,65,61)         -2.0706         estimate D2E/DX2                !
 ! D411  D(43,59,65,66)       -144.8269         estimate D2E/DX2                !
 ! D412  D(58,59,65,61)        139.5027         estimate D2E/DX2                !
 ! D413  D(58,59,65,66)         -3.2536         estimate D2E/DX2                !
 ! D414  D(55,60,66,64)          2.535          estimate D2E/DX2                !
 ! D415  D(55,60,66,65)        145.6575         estimate D2E/DX2                !
 ! D416  D(57,60,66,64)       -140.6415         estimate D2E/DX2                !
 ! D417  D(57,60,66,65)          2.481          estimate D2E/DX2                !
 ! D418  D(46,61,62,48)         -2.984          estimate D2E/DX2                !
 ! D419  D(46,61,62,63)       -138.947          estimate D2E/DX2                !
 ! D420  D(65,61,62,48)        133.1504         estimate D2E/DX2                !
 ! D421  D(65,61,62,63)         -2.8125         estimate D2E/DX2                !
 ! D422  D(46,61,65,59)          1.9741         estimate D2E/DX2                !
 ! D423  D(46,61,65,66)        144.6002         estimate D2E/DX2                !
 ! D424  D(62,61,65,59)       -139.8065         estimate D2E/DX2                !
 ! D425  D(62,61,65,66)          2.8196         estimate D2E/DX2                !
 ! D426  D(48,62,63,50)          0.3506         estimate D2E/DX2                !
 ! D427  D(48,62,63,64)       -140.8434         estimate D2E/DX2                !
 ! D428  D(61,62,63,50)        141.0494         estimate D2E/DX2                !
 ! D429  D(61,62,63,64)         -0.1445         estimate D2E/DX2                !
 ! D430  D(50,63,64,56)          3.2532         estimate D2E/DX2                !
 ! D431  D(50,63,64,66)       -133.8408         estimate D2E/DX2                !
 ! D432  D(62,63,64,56)        140.1609         estimate D2E/DX2                !
 ! D433  D(62,63,64,66)          3.067          estimate D2E/DX2                !
 ! D434  D(56,64,66,60)         -1.8538         estimate D2E/DX2                !
 ! D435  D(56,64,66,65)       -144.7674         estimate D2E/DX2                !
 ! D436  D(63,64,66,60)        139.8558         estimate D2E/DX2                !
 ! D437  D(63,64,66,65)         -3.0578         estimate D2E/DX2                !
[...]
              Baa    -0.0037    -0.503    -0.179    -0.168  0.7470  0.2716  0.6068
    11 C(13)  Bbb     0.0015     0.206     0.074     0.069 -0.5530  0.7605  0.3403
              Bcc     0.0022     0.297     0.106     0.099 -0.3691 -0.5897  0.7183
 
              Baa    -0.0103    -1.389    -0.496    -0.463  0.8054  0.3831 -0.4523
    12 C(13)  Bbb    -0.0065    -0.879    -0.314    -0.293  0.1211  0.6406  0.7582
              Bcc     0.0169     2.267     0.809     0.756 -0.5802  0.6655 -0.4696
 
              Baa    -0.0062    -0.831    -0.296    -0.277  0.7610 -0.2923  0.5791
    13 C(13)  Bbb     0.0025     0.340     0.121     0.114 -0.2391  0.7034  0.6693
              Bcc     0.0037     0.490     0.175     0.164  0.6030  0.6479 -0.4654
 
              Baa    -0.0141    -1.887    -0.673    -0.629 -0.5057  0.8627  0.0060
    14 C(13)  Bbb     0.0044     0.591     0.211     0.197  0.8268  0.4826  0.2889
              Bcc     0.0097     1.296     0.462     0.432 -0.2463 -0.1511  0.9573
 
              Baa    -0.1164   -15.620    -5.574    -5.210  0.7756  0.0988  0.6234
    15 C(13)  Bbb    -0.1122   -15.052    -5.371    -5.021  0.1700  0.9185 -0.3570
              Bcc     0.2286    30.672    10.945    10.231 -0.6079  0.3829  0.6956
 
              Baa    -0.0029    -0.393    -0.140    -0.131  0.9572  0.0146 -0.2891
    16 C(13)  Bbb    -0.0019    -0.261    -0.093    -0.087  0.2664  0.3457  0.8997
              Bcc     0.0049     0.655     0.234     0.218 -0.1131  0.9382 -0.3270
 
              Baa    -0.0276    -3.702    -1.321    -1.235 -0.2866  0.9442  0.1621
    17 C(13)  Bbb    -0.0238    -3.197    -1.141    -1.067  0.9241  0.2278  0.3069
              Bcc     0.0514     6.899     2.462     2.301 -0.2529 -0.2378  0.9378
 
              Baa    -0.0886   -11.887    -4.242    -3.965 -0.4570  0.0843  0.8855
    18 C(13)  Bbb     0.0400     5.372     1.917     1.792  0.2669  0.9626  0.0461
              Bcc     0.0486     6.516     2.325     2.173  0.8485 -0.2575  0.4624
 
              Baa    -0.1032   -13.844    -4.940    -4.618 -0.0601 -0.4415  0.8952
    19 C(13)  Bbb     0.0452     6.059     2.162     2.021  0.9164 -0.3801 -0.1259
              Bcc     0.0580     7.785     2.778     2.597  0.3958  0.8128  0.4275
 
              Baa    -0.1089   -14.615    -5.215    -4.875  0.1484  0.7675 -0.6236
    20 C(13)  Bbb     0.0467     6.272     2.238     2.092 -0.3376  0.6320  0.6975
              Bcc     0.0622     8.343     2.977     2.783  0.9295  0.1071  0.3529
 
              Baa    -0.1413   -18.957    -6.764    -6.323 -0.0224  0.7574  0.6525
    21 C(13)  Bbb    -0.1344   -18.033    -6.435    -6.015  0.9978 -0.0234  0.0614
              Bcc     0.2757    36.990    13.199    12.338 -0.0618 -0.6525  0.7553
 
              Baa    -0.0059    -0.789    -0.281    -0.263  0.4584 -0.5499  0.6982
    22 C(13)  Bbb    -0.0020    -0.264    -0.094    -0.088  0.8004 -0.0860 -0.5933
              Bcc     0.0078     1.053     0.376     0.351  0.3863  0.8308  0.4007
 
              Baa    -0.0015    -0.203    -0.072    -0.068  0.2322 -0.4511  0.8617
    23 C(13)  Bbb    -0.0004    -0.058    -0.021    -0.019  0.9372  0.3407 -0.0742
              Bcc     0.0019     0.260     0.093     0.087 -0.2602  0.8249  0.5019
 
              Baa    -0.0016    -0.208    -0.074    -0.070  0.3718  0.8717 -0.3194
    24 C(13)  Bbb    -0.0009    -0.115    -0.041    -0.038  0.9194 -0.2981  0.2565
              Bcc     0.0024     0.323     0.115     0.108 -0.1284  0.3890  0.9123
 
              Baa    -0.0058    -0.781    -0.279    -0.261 -0.0998  0.9856 -0.1365
    25 C(13)  Bbb    -0.0046    -0.619    -0.221    -0.206  0.7259 -0.0217 -0.6875
              Bcc     0.0104     1.400     0.500     0.467  0.6805  0.1677  0.7133
 
              Baa    -0.0053    -0.707    -0.252    -0.236 -0.6299  0.6398 -0.4404
    26 C(13)  Bbb    -0.0052    -0.695    -0.248    -0.232  0.7684  0.4307 -0.4733
              Bcc     0.0104     1.402     0.500     0.468  0.1131  0.6366  0.7629
 
              Baa    -0.0056    -0.756    -0.270    -0.252  0.6043  0.7811  0.1573
    27 C(13)  Bbb    -0.0052    -0.691    -0.247    -0.231  0.6685 -0.3895 -0.6336
              Bcc     0.0108     1.447     0.516     0.483  0.4336 -0.4880  0.7575
 
              Baa    -0.0060    -0.802    -0.286    -0.267  0.2797 -0.1800  0.9430
    28 C(13)  Bbb     0.0019     0.258     0.092     0.086 -0.0269  0.9804  0.1951
              Bcc     0.0041     0.544     0.194     0.181  0.9597  0.0800 -0.2694
 
              Baa    -0.0216    -2.894    -1.033    -0.965  0.6963  0.5739  0.4311
    29 C(13)  Bbb    -0.0205    -2.745    -0.979    -0.916 -0.5564  0.0521  0.8293
              Bcc     0.0420     5.639     2.012     1.881 -0.4534  0.8173 -0.3556
 
              Baa    -0.0112    -1.502    -0.536    -0.501 -0.3669  0.7087 -0.6026
    30 C(13)  Bbb     0.0045     0.604     0.216     0.201  0.7698  0.5950  0.2310
              Bcc     0.0067     0.898     0.321     0.300 -0.5222  0.3792  0.7639
 
              Baa    -0.0281    -3.777    -1.348    -1.260 -0.2294  0.9614 -0.1520
    31 C(13)  Bbb     0.0128     1.722     0.614     0.574  0.8798  0.1380 -0.4549
              Bcc     0.0153     2.055     0.733     0.685  0.4164  0.2381  0.8775
 
              Baa    -0.0595    -7.981    -2.848    -2.662 -0.2361  0.7349  0.6357
    32 C(13)  Bbb     0.0255     3.428     1.223     1.143  0.7989 -0.2256  0.5575
              Bcc     0.0339     4.554     1.625     1.519  0.5532  0.6395 -0.5339
 
              Baa    -0.0766   -10.281    -3.668    -3.429  0.8243  0.5659  0.0173
    33 C(13)  Bbb    -0.0748   -10.031    -3.579    -3.346 -0.4949  0.7351 -0.4633
              Bcc     0.1514    20.312     7.248     6.775 -0.2749  0.3733  0.8861
 
              Baa    -0.0559    -7.498    -2.676    -2.501  0.8572  0.1476 -0.4933
    34 C(13)  Bbb    -0.0540    -7.243    -2.585    -2.416  0.5133 -0.1681  0.8416
              Bcc     0.1099    14.742     5.260     4.917 -0.0412  0.9747  0.2199
 
              Baa    -0.1885   -25.300    -9.028    -8.439  0.7381  0.6644  0.1176
    35 C(13)  Bbb    -0.1837   -24.650    -8.796    -8.222 -0.6745  0.7222  0.1533
              Bcc     0.3722    49.949    17.823    16.661  0.0169 -0.1925  0.9811
 
              Baa    -0.0866   -11.619    -4.146    -3.876  0.0440  0.2125  0.9762
    36 C(13)  Bbb     0.0350     4.692     1.674     1.565  0.9198  0.3728 -0.1226
              Bcc     0.0516     6.926     2.472     2.310 -0.3900  0.9032 -0.1791
 
              Baa    -0.0553    -7.427    -2.650    -2.477  0.2915 -0.1687  0.9416
    37 C(13)  Bbb     0.0200     2.687     0.959     0.896  0.2385  0.9661  0.0992
              Bcc     0.0353     4.740     1.691     1.581  0.9264 -0.1956 -0.3219
 
              Baa    -0.0078    -1.047    -0.373    -0.349  0.1967 -0.2678  0.9432
    38 C(13)  Bbb     0.0035     0.467     0.167     0.156  0.6684  0.7404  0.0709
              Bcc     0.0043     0.580     0.207     0.193  0.7173 -0.6165 -0.3247
 
              Baa    -0.0661    -8.876    -3.167    -2.961 -0.0957  0.8079  0.5815
    39 C(13)  Bbb    -0.0604    -8.108    -2.893    -2.705  0.8408  0.3783 -0.3872
              Bcc     0.1266    16.985     6.061     5.665  0.5329 -0.4518  0.7155
 
              Baa    -0.0032    -0.435    -0.155    -0.145  0.8703  0.3447 -0.3517
    40 C(13)  Bbb    -0.0008    -0.112    -0.040    -0.037  0.4063 -0.0992  0.9083
              Bcc     0.0041     0.548     0.195     0.183 -0.2782  0.9335  0.2264
 
              Baa    -0.0015    -0.198    -0.071    -0.066  0.9645  0.1766  0.1965
    41 C(13)  Bbb    -0.0004    -0.056    -0.020    -0.019 -0.1117 -0.4017  0.9089
              Bcc     0.0019     0.255     0.091     0.085 -0.2395  0.8986  0.3677
 
              Baa    -0.0057    -0.765    -0.273    -0.255  0.5871 -0.1572  0.7941
    42 C(13)  Bbb    -0.0046    -0.621    -0.222    -0.207  0.6666  0.6505 -0.3640
              Bcc     0.0103     1.386     0.495     0.462 -0.4593  0.7431  0.4867
 
              Baa    -0.0006    -0.078    -0.028    -0.026 -0.2147  0.9024  0.3735
    43 C(13)  Bbb    -0.0001    -0.019    -0.007    -0.006  0.9404  0.0878  0.3285
              Bcc     0.0007     0.097     0.035     0.033 -0.2637 -0.4218  0.8675
 
              Baa    -0.0071    -0.956    -0.341    -0.319 -0.0313  0.2847  0.9581
    44 C(13)  Bbb     0.0030     0.399     0.142     0.133  0.9075  0.4099 -0.0921
              Bcc     0.0042     0.557     0.199     0.186 -0.4190  0.8666 -0.2712
 
              Baa    -0.0211    -2.832    -1.011    -0.945  0.4910  0.8665  0.0902
    45 C(13)  Bbb    -0.0205    -2.752    -0.982    -0.918  0.8705 -0.4840 -0.0889
              Bcc     0.0416     5.584     1.993     1.863  0.0334 -0.1222  0.9919
 
              Baa    -0.0055    -0.736    -0.263    -0.246  0.6230  0.7783  0.0781
    46 C(13)  Bbb    -0.0048    -0.648    -0.231    -0.216  0.6186 -0.5513  0.5598
              Bcc     0.0103     1.384     0.494     0.462 -0.4787  0.3004  0.8250
 
              Baa    -0.0122    -1.640    -0.585    -0.547  0.9704  0.2002  0.1354
    47 C(13)  Bbb    -0.0117    -1.575    -0.562    -0.525 -0.2369  0.6764  0.6974
              Bcc     0.0240     3.215     1.147     1.073 -0.0481  0.7088 -0.7038
 
              Baa    -0.0153    -2.057    -0.734    -0.686 -0.0839 -0.4038  0.9110
    48 C(13)  Bbb     0.0070     0.939     0.335     0.313  0.8256 -0.5401 -0.1633
              Bcc     0.0083     1.117     0.399     0.373  0.5580  0.7384  0.3787
 
              Baa    -0.0079    -1.058    -0.378    -0.353  0.9815 -0.0885  0.1698
    49 C(13)  Bbb    -0.0068    -0.909    -0.324    -0.303 -0.1376  0.2904  0.9470
              Bcc     0.0147     1.968     0.702     0.656  0.1331  0.9528 -0.2728
 
              Baa    -0.0109    -1.469    -0.524    -0.490  0.1694  0.8566 -0.4873
    50 C(13)  Bbb     0.0050     0.671     0.240     0.224  0.9495 -0.2743 -0.1521
              Bcc     0.0059     0.797     0.285     0.266  0.2640  0.4370  0.8599
 
              Baa    -0.0286    -3.842    -1.371    -1.281  0.1604  0.8409  0.5168
    51 C(13)  Bbb     0.0124     1.664     0.594     0.555 -0.6376 -0.3114  0.7046
              Bcc     0.0162     2.178     0.777     0.727  0.7535 -0.4425  0.4863
 
              Baa    -0.0330    -4.426    -1.579    -1.476  0.6507  0.4020 -0.6442
    52 C(13)  Bbb    -0.0306    -4.104    -1.464    -1.369  0.6891 -0.6689  0.2787
              Bcc     0.0636     8.530     3.044     2.845  0.3189  0.6253  0.7123
 
              Baa    -0.0159    -2.127    -0.759    -0.709 -0.0132  0.9651 -0.2617
    53 C(13)  Bbb    -0.0151    -2.023    -0.722    -0.675 -0.6523  0.1901  0.7337
              Bcc     0.0309     4.149     1.481     1.384  0.7579  0.1804  0.6270
 
              Baa    -0.0016    -0.214    -0.076    -0.071 -0.1388  0.8882  0.4379
    54 C(13)  Bbb     0.0006     0.083     0.030     0.028  0.4253 -0.3459  0.8364
              Bcc     0.0010     0.131     0.047     0.044  0.8944  0.3023 -0.3297
 
              Baa    -0.0146    -1.957    -0.698    -0.653  0.8555  0.1085  0.5062
    55 C(13)  Bbb     0.0064     0.861     0.307     0.287 -0.3196 -0.6585  0.6813
              Bcc     0.0082     1.096     0.391     0.366 -0.4073  0.7447  0.5287
 
              Baa    -0.0101    -1.354    -0.483    -0.452  0.7781  0.5990  0.1891
    56 C(13)  Bbb     0.0048     0.647     0.231     0.216 -0.4050  0.7085 -0.5779
              Bcc     0.0053     0.707     0.252     0.236 -0.4801  0.3731  0.7939
 
              Baa    -0.0262    -3.520    -1.256    -1.174  0.7751 -0.3750  0.5086
    57 C(13)  Bbb     0.0094     1.262     0.450     0.421  0.0635  0.8471  0.5276
              Bcc     0.0168     2.258     0.806     0.753 -0.6287 -0.3766  0.6804
 
              Baa    -0.0114    -1.533    -0.547    -0.512  0.5591  0.7570  0.3382
    58 C(13)  Bbb    -0.0094    -1.256    -0.448    -0.419 -0.3158 -0.1827  0.9311
              Bcc     0.0208     2.790     0.996     0.931  0.7666 -0.6273  0.1369
 
              Baa    -0.0105    -1.407    -0.502    -0.469  0.8368 -0.5262 -0.1511
    59 C(13)  Bbb     0.0042     0.565     0.202     0.189  0.5040  0.6325  0.5881
              Bcc     0.0063     0.841     0.300     0.281 -0.2139 -0.5683  0.7946
 
              Baa    -0.0308    -4.132    -1.474    -1.378 -0.0151  0.9874  0.1577
    60 C(13)  Bbb    -0.0290    -3.889    -1.388    -1.297 -0.2434 -0.1566  0.9572
              Bcc     0.0598     8.020     2.862     2.675  0.9698 -0.0239  0.2427
 
              Baa    -0.0136    -1.827    -0.652    -0.609 -0.7026  0.0430  0.7103
    61 C(13)  Bbb     0.0061     0.820     0.293     0.274  0.3696  0.8750  0.3126
              Bcc     0.0075     1.006     0.359     0.336  0.6081 -0.4822  0.6307
 
              Baa    -0.0099    -1.334    -0.476    -0.445 -0.2303  0.9434  0.2386
    62 C(13)  Bbb    -0.0093    -1.244    -0.444    -0.415  0.8305  0.0628  0.5535
              Bcc     0.0192     2.578     0.920     0.860 -0.5072 -0.3257  0.7979
 
              Baa    -0.0102    -1.371    -0.489    -0.457  0.6217  0.5763 -0.5304
    63 C(13)  Bbb     0.0047     0.635     0.227     0.212  0.7151 -0.6939  0.0842
              Bcc     0.0055     0.736     0.263     0.245  0.3195  0.4317  0.8435
 
              Baa    -0.0039    -0.518    -0.185    -0.173  0.0863  0.5228  0.8481
    64 C(13)  Bbb    -0.0036    -0.489    -0.174    -0.163 -0.5976  0.7083 -0.3758
              Bcc     0.0075     1.007     0.359     0.336  0.7971  0.4744 -0.3736
 
              Baa    -0.0169    -2.266    -0.808    -0.756  0.2881  0.9057  0.3108
    65 C(13)  Bbb    -0.0159    -2.128    -0.759    -0.710  0.3155 -0.3963  0.8622
              Bcc     0.0327     4.394     1.568     1.466  0.9041 -0.1504 -0.3999
 
              Baa    -0.0161    -2.160    -0.771    -0.720  0.9933  0.0410 -0.1082
    66 C(13)  Bbb     0.0068     0.914     0.326     0.305 -0.0489  0.9963 -0.0712
              Bcc     0.0093     1.246     0.444     0.416  0.1049  0.0760  0.9916
 
              Baa    -0.0735    -3.846    -1.372    -1.283 -0.4745  0.3440  0.8102
    67 Cl(35) Bbb    -0.0666    -3.485    -1.243    -1.162 -0.4528  0.6940 -0.5598
              Bcc     0.1401     7.331     2.616     2.445  0.7548  0.6325  0.1736
 
              Baa    -0.0205    -1.072    -0.382    -0.357  0.0291  0.9606  0.2763
    68 Cl(35) Bbb    -0.0140    -0.731    -0.261    -0.244 -0.4926 -0.2268  0.8402
              Bcc     0.0344     1.802     0.643     0.601  0.8698 -0.1605  0.4666
 
              Baa    -0.0367    -1.919    -0.685    -0.640  0.7608 -0.4706  0.4469
    69 Cl(35) Bbb     0.0181     0.947     0.338     0.316  0.6001  0.7722 -0.2086
              Bcc     0.0186     0.972     0.347     0.324 -0.2469  0.4269  0.8700
 
              Baa    -0.0501    -2.621    -0.935    -0.874  0.9825  0.0070 -0.1860
    70 Cl(35) Bbb    -0.0220    -1.153    -0.411    -0.384  0.1848  0.0836  0.9792
              Bcc     0.0721     3.774     1.347     1.259 -0.0224  0.9965 -0.0808
 
              Baa    -0.0531    -2.777    -0.991    -0.926  0.1214 -0.6427  0.7564
    71 Cl(35) Bbb    -0.0442    -2.313    -0.825    -0.771  0.7199 -0.4676 -0.5129
              Bcc     0.0973     5.090     1.816     1.698  0.6834  0.6068  0.4059
 
              Baa    -0.0568    -2.972    -1.060    -0.991 -0.0573  0.9709  0.2325
    72 Cl(35) Bbb     0.0245     1.280     0.457     0.427  0.9054 -0.0476  0.4220
              Bcc     0.0323     1.691     0.603     0.564 -0.4208 -0.2347  0.8763
 
              Baa    -0.1677    -8.778    -3.132    -2.928 -0.3551  0.3702  0.8584
    73 Cl(35) Bbb    -0.1529    -8.005    -2.856    -2.670  0.8371  0.5347  0.1156
              Bcc     0.3207    16.782     5.988     5.598 -0.4162  0.7596 -0.4998
 

 ---------------------------------------------------------------------------------

 No NMR shielding tensors so no spin-rotation constants.
 Leave Link  601 at Sat Jul 16 04:41:59 2022, MaxMem=  1342177280 cpu:             122.1 elap:               2.8
 (Enter /home/mkliu/g16/l9999.exe)
 1\1\GINC-NODE03\FOpt\UB3LYP\6-311G(d,p)\C66Cl7(2)\MKLIU\16-Jul-2022\0\
 \#P opt b3lyp/6-311G(d, p) empiricaldispersion=GD3\\force\\0,2\C,-1.33
 06469972,1.8895827484,-3.9967549041\C,0.206131266,2.2463450086,-3.9904
 193224\C,0.986421837,0.8730561313,-4.3338090051\C,-1.2882236849,0.4093
 828818,-3.8944638641\C,-0.0760157259,-0.167831018,-4.1853831657\C,-2.1
 55950822,-0.1171944159,-2.9283972555\C,-2.2167149108,2.2961120197,-2.7
 053989333\C,-2.7038361847,0.9328085248,-2.1649773391\C,-1.4650070364,2
 .9511694852,-1.550796067\C,0.7190548631,2.5558367878,-2.6231565205\C,-
 0.0376848152,3.1708396978,-1.5996388287\C,1.9278970174,0.6677344666,-3
 .1455526832\C,1.8706529311,1.8297011184,-2.3088579081\C,2.2718500497,-
 0.545099025,-2.6051363605\C,0.2030059134,-1.4178279368,-3.6611645701\C
 ,1.6075141575,-1.8033993316,-3.1986231626\C,-1.9281158812,-1.405531679
 3,-2.3908250458\C,-0.7612616131,-2.0794163156,-2.8744130132\C,-2.44613
 85874,-1.6955406586,-1.0763138623\C,-3.0949666584,0.6952735501,-0.8499
 328077\C,-3.0449740245,-0.6231920873,-0.320371557\C,-2.0796779057,2.90
 76458473,-0.3162501469\C,-3.214210753,1.9257661706,0.0441218046\C,-1.3
 770911147,3.247107532,0.8810311882\C,0.6633505002,3.4193353765,-0.3983
 13024\C,-0.0229470272,3.5634936649,0.8494311563\C,2.4501752266,1.84571
 11201,-1.0124461568\C,1.9402297164,2.8150119661,-0.1282470158\C,2.9024
 569298,-0.5982281513,-1.280104606\C,3.061084159,0.6326013058,-0.505909
 3975\C,2.9308237696,-1.8235378164,-0.5796274517\C,1.2997071674,-2.8277
 591891,-2.1249157412\C,-0.1046998471,-3.0498025316,-2.0454596501\C,2.0
 489038323,-2.9261219487,-0.9828027234\C,-1.92255835,-2.8462749954,-0.4
 02545299\C,-0.7121425258,-3.4668625428,-0.8651632568\C,-1.9093374509,-
 2.9131772282,1.0448155703\C,-3.3699376297,-0.8515614685,1.1550524318\C
 ,-2.5177086875,-1.936177052,1.7928798334\C,-2.9006356954,1.6066756559,
 1.4886242979\C,-1.9083980923,2.5026477945,1.9978918307\C,-3.0157536641
 ,0.353696613,2.0083688013\C,-1.0812088831,2.13089774,3.0580197058\C,0.
 8501231873,3.1235062404,1.916882295\C,2.0724489585,2.664059177,1.29570
 23522\C,0.3366262382,2.4429950524,3.014418641\C,3.271699901,0.55372279
 74,0.8942613696\C,2.7450187939,1.5630312625,1.7978254908\C,3.023049576
 5,-1.8647640257,0.8495367405\C,3.2221537814,-0.6999985263,1.5804246848
 \C,1.4776574484,-3.4963547754,0.2175262695\C,0.1113552838,-3.787328499
 6,0.2757261069\C,-0.6423733235,-3.4766516941,1.4660208942\C,2.12214873
 41,-2.8880952751,1.3579022105\C,-0.0004886642,-2.9726093911,2.59638888
 3\C,1.4188483825,-2.6690707517,2.5369976667\C,-1.8853570216,-1.4513925
 981,2.9766148794\C,-2.1841635825,-0.0444210062,3.1086715038\C,-1.23228
 6828,0.82628319,3.6414177401\C,-0.6410884463,-1.9520522766,3.382988191
 4\C,1.0587200273,1.3183193818,3.5723102683\C,2.2621563804,0.9025471353
 ,2.9907744479\C,2.5554598545,-0.5062079477,2.8563260554\C,1.646196063,
 -1.4580805078,3.3098527126\C,0.0877099946,0.3263550449,3.9890909937\C,
 0.3755925279,-1.029962346,3.8576301339\Cl,-2.1076912029,2.2976829288,-
 5.5840726976\Cl,0.6475234911,3.6667544218,-5.0199877264\Cl,1.861799298
 ,0.8249546585,-5.9091308385\Cl,2.6397377387,-2.5495168364,-4.532524318
 4\Cl,-3.6003754557,3.4025482096,-3.1398841891\Cl,-4.9090648391,2.64952
 94823,-0.043806718\Cl,-5.1836099324,-1.2769160795,1.2942656958\\Versio
 n=ES64L-G16RevA.03\State=2-A\HF=-5736.9954046\S2=0.799296\S2-1=0.\S2A=
 0.752251\RMSD=5.706e-09\RMSF=5.308e-05\Dipole=0.965779,-0.4227935,1.36
 60434\Quadrupole=-5.0221846,5.8769897,-0.8548052,3.8474763,6.5165038,2
 .8372057\PG=C01 [X(C66Cl7)]\\@


 FROM THE ASHES OF OUR DESPAIR GROW THE FLOWERS OF TOMORROW.
 Job cpu time:       4 days 17 hours 57 minutes 25.6 seconds.
 Elapsed time:       0 days  2 hours 22 minutes 40.6 seconds.
 File lengths (MBytes):  RWF=   2038 Int=      0 D2E=      0 Chk=    184 Scr=      1
 Normal termination of Gaussian 16 at Sat Jul 16 04:42:01 2022.
