 Entering Gaussian System, Link 0=g16
 Input=epy9j0kwwqv40_addon_8.gjf
 Output=epy9j0kwwqv40_addon_8.log
 Initial command:
 /home/mkliu/g16/l1.exe "/data/scratch/Gau-12467.inp" -scrdir="/data/scratch/"
 Entering Link 1 = /home/mkliu/g16/l1.exe PID=     12468.
  
 Copyright (c) 1988,1990,1992,1993,1995,1998,2003,2009,2016,
            Gaussian, Inc.  All Rights Reserved.
  
 This is part of the Gaussian(R) 16 program.  It is based on
 the Gaussian(R) 09 system (copyright 2009, Gaussian, Inc.),
 the Gaussian(R) 03 system (copyright 2003, Gaussian, Inc.),
 the Gaussian(R) 98 system (copyright 1998, Gaussian, Inc.),
 the Gaussian(R) 94 system (copyright 1995, Gaussian, Inc.),
 the Gaussian 92(TM) system (copyright 1992, Gaussian, Inc.),
 the Gaussian 90(TM) system (copyright 1990, Gaussian, Inc.),
 the Gaussian 88(TM) system (copyright 1988, Gaussian, Inc.),
 the Gaussian 86(TM) system (copyright 1986, Carnegie Mellon
 University), and the Gaussian 82(TM) system (copyright 1983,
 Carnegie Mellon University). Gaussian is a federally registered
 trademark of Gaussian, Inc.
  
 This software contains proprietary and confidential information,
 including trade secrets, belonging to Gaussian, Inc.
  
 This software is provided under written license and may be
 used, copied, transmitted, or stored only in accord with that
 written license.
  
 The following legend is applicable only to US Government
 contracts under FAR:
  
                    RESTRICTED RIGHTS LEGEND
  
 Use, reproduction and disclosure by the US Government is
 subject to restrictions as set forth in subparagraphs (a)
 and (c) of the Commercial Computer Software - Restricted
 Rights clause in FAR 52.227-19.
  
 Gaussian, Inc.
 340 Quinnipiac St., Bldg. 40, Wallingford CT 06492
  
  
 ---------------------------------------------------------------
 Warning -- This program may not be used in any manner that
 competes with the business of Gaussian, Inc. or will provide
 assistance to any competitor of Gaussian, Inc.  The licensee
 of this program is prohibited from giving any competitor of
 Gaussian, Inc. access to this program.  By using this program,
 the user acknowledges that Gaussian, Inc. is engaged in the
 business of creating and licensing software in the field of
 computational chemistry and represents and warrants to the
 licensee that it is not a competitor of Gaussian, Inc. and that
 it will not use this program in any manner prohibited above.
 ---------------------------------------------------------------
  

 Cite this work as:
 Gaussian 16, Revision A.03,
 M. J. Frisch, G. W. Trucks, H. B. Schlegel, G. E. Scuseria, 
 M. A. Robb, J. R. Cheeseman, G. Scalmani, V. Barone, 
 G. A. Petersson, H. Nakatsuji, X. Li, M. Caricato, A. V. Marenich, 
 J. Bloino, B. G. Janesko, R. Gomperts, B. Mennucci, H. P. Hratchian, 
 J. V. Ortiz, A. F. Izmaylov, J. L. Sonnenberg, D. Williams-Young, 
 F. Ding, F. Lipparini, F. Egidi, J. Goings, B. Peng, A. Petrone, 
 T. Henderson, D. Ranasinghe, V. G. Zakrzewski, J. Gao, N. Rega, 
 G. Zheng, W. Liang, M. Hada, M. Ehara, K. Toyota, R. Fukuda, 
 J. Hasegawa, M. Ishida, T. Nakajima, Y. Honda, O. Kitao, H. Nakai, 
 T. Vreven, K. Throssell, J. A. Montgomery, Jr., J. E. Peralta, 
 F. Ogliaro, M. J. Bearpark, J. J. Heyd, E. N. Brothers, K. N. Kudin, 
 V. N. Staroverov, T. A. Keith, R. Kobayashi, J. Normand, 
 K. Raghavachari, A. P. Rendell, J. C. Burant, S. S. Iyengar, 
 J. Tomasi, M. Cossi, J. M. Millam, M. Klene, C. Adamo, R. Cammi, 
 J. W. Ochterski, R. L. Martin, K. Morokuma, O. Farkas, 
 J. B. Foresman, and D. J. Fox, Gaussian, Inc., Wallingford CT, 2016.
 
 ******************************************
 Gaussian 16:  ES64L-G16RevA.03 25-Dec-2016
                15-Jul-2022 
 ******************************************
 %mem=10GB
 %chk=epy9j0kwwqv40_addon_8.chk
 %nprocshared=48
 Will use up to   48 processors via shared memory.
 -------------------------------------------------
 #P opt b3lyp/6-311G(d, p) empiricaldispersion=GD3
 -------------------------------------------------
 1/18=20,19=15,26=3,38=1/1,3;
 2/9=110,12=2,17=6,18=5,40=1/2;
 3/5=4,6=6,7=101,11=2,25=1,30=1,71=1,74=-5,124=31/1,2,3;
 4//1;
 5/5=2,38=5/2;
 6/7=2,8=2,9=2,10=2,28=1/1;
 7//1,2,3,16;
 1/18=20,19=15,26=3/3(2);
 2/9=110/2;
 99//99;
 2/9=110/2;
 3/5=4,6=6,7=101,11=2,25=1,30=1,71=1,74=-5,124=31/1,2,3;
 4/5=5,16=3,69=1/1;
 5/5=2,38=5/2;
 7//1,2,3,16;
 1/18=20,19=15,26=3/3(-5);
 2/9=110/2;
 6/7=2,8=2,9=2,10=2,19=2,28=1/1;
 99/9=1/99;
 Leave Link    1 at Fri Jul 15 21:04:48 2022, MaxMem=  1342177280 cpu:               2.2 elap:               0.1
 (Enter /home/mkliu/g16/l101.exe)
 -----
 force
 -----
 Symbolic Z-matrix:
 Charge =  0 Multiplicity = 1
 C                    -1.35342   1.92393  -4.01283 
 C                     0.1931    2.21353  -3.94985 
 C                     0.94226   0.88648  -4.22791 
 C                    -1.46342   0.368    -4.15013 
 C                    -0.08333  -0.17416  -4.0837 
 C                    -2.10985  -0.12761  -2.90124 
 C                    -2.14633   2.25831  -2.69301 
 C                    -2.54209   0.90851  -2.13809 
 C                    -1.42598   2.95589  -1.5685 
 C                     0.7152    2.59628  -2.61045 
 C                    -0.02077   3.21312  -1.5902 
 C                     1.88923   0.68827  -3.07091 
 C                     1.82696   1.8408   -2.23801 
 C                     2.23829  -0.51143  -2.53682 
 C                     0.19147  -1.3819   -3.60708 
 C                     1.57988  -1.74069  -3.12348 
 C                    -1.90903  -1.41657  -2.3624 
 C                    -0.88139  -2.2888   -3.04902 
 C                    -2.40708  -1.70578  -1.10203 
 C                    -2.97836   0.67509  -0.8224 
 C                    -2.98394  -0.65282  -0.30676 
 C                    -2.02793   2.88276  -0.32789 
 C                    -2.91946   1.78694   0.04224 
 C                    -1.36819   3.28412   0.88917 
 C                     0.65973   3.43552  -0.37747 
 C                    -0.0271    3.57621   0.86243 
 C                     2.43025   1.85882  -0.96992 
 C                     1.90854   2.81695  -0.09578 
 C                     2.91866  -0.56208  -1.24131 
 C                     3.04888   0.65195  -0.47952 
 C                     2.93096  -1.77348  -0.55119 
 C                     1.25369  -2.74241  -2.07461 
 C                    -0.1231   -3.0582   -2.02587 
 C                     2.02381  -2.84538  -0.95381 
 C                    -2.08863  -3.04367  -0.44925 
 C                    -0.70119  -3.4812   -0.86776 
 C                    -1.91779  -2.94679   1.03783 
 C                    -3.10471  -0.80366   1.10067 
 C                    -2.49385  -1.94431   1.76322 
 C                    -2.86385   1.60349   1.43639 
 C                    -1.91133   2.52997   1.98794 
 C                    -2.98548   0.31266   1.9609 
 C                    -1.09919   2.12906   3.02978 
 C                     0.83412   3.13571   1.92859 
 C                     2.04508   2.66595   1.3179 
 C                     0.30894   2.43909   2.9994 
 C                     3.25086   0.57086   0.91647 
 C                     2.72095   1.57029   1.81235 
 C                     3.03358  -1.83627   0.87007 
 C                     3.21257  -0.67676   1.60111 
 C                     1.47001  -3.4367    0.21746 
 C                     0.11286  -3.73052   0.26566 
 C                    -0.64492  -3.44737   1.44777 
 C                     2.12047  -2.84932   1.34976 
 C                     0.00399  -2.93483   2.56471 
 C                     1.40685  -2.62734   2.51442 
 C                    -1.88186  -1.46551   2.97367 
 C                    -2.19343  -0.06781   3.10493 
 C                    -1.24775   0.80998   3.60444 
 C                    -0.63734  -1.92969   3.35536 
 C                     1.02532   1.31818   3.54468 
 C                     2.23105   0.9127    2.98983 
 C                     2.53761  -0.4856    2.86104 
 C                     1.63279  -1.43115   3.29327 
 C                     0.06482   0.3303    3.95534 
 C                     0.36737  -1.01784   3.83144 
 Cl                   -2.06083   2.72473  -5.42901 
 Cl                    0.67499   3.54343  -5.04084 
 Cl                    1.74241   0.77278  -5.81601 
 Cl                    2.62623  -2.40549  -4.44791 
 Cl                   -2.33426  -0.21256  -5.59113 
 Cl                   -1.66075  -3.36404  -4.2602 
 Cl                   -3.64883   3.21886  -3.02063 
 Cl                   -3.38195  -4.21991  -0.93828 
 
 ITRead=  0  0  0  0  0  0  0  0  0  0  0  0  0  0  0  0  0  0  0  0
 ITRead=  0  0  0  0  0  0  0  0  0  0  0  0  0  0  0  0  0  0  0  0
 ITRead=  0  0  0  0  0  0  0  0  0  0  0  0  0  0  0  0  0  0  0  0
 ITRead=  0  0  0  0  0  0  0  0  0  0  0  0  0  0
 MicOpt= -1 -1 -1 -1 -1 -1 -1 -1 -1 -1 -1 -1 -1 -1 -1 -1 -1 -1 -1 -1
 MicOpt= -1 -1 -1 -1 -1 -1 -1 -1 -1 -1 -1 -1 -1 -1 -1 -1 -1 -1 -1 -1
 MicOpt= -1 -1 -1 -1 -1 -1 -1 -1 -1 -1 -1 -1 -1 -1 -1 -1 -1 -1 -1 -1
 MicOpt= -1 -1 -1 -1 -1 -1 -1 -1 -1 -1 -1 -1 -1 -1
 NAtoms=     74 NQM=       74 NQMF=       0 NMMI=      0 NMMIF=      0
                NMic=       0 NMicF=      0.
                    Isotopes and Nuclear Properties:
 (Nuclear quadrupole moments (NQMom) in fm**2, nuclear magnetic moments (NMagM)
  in nuclear magnetons)

  Atom         1           2           3           4           5           6           7           8           9          10
 IAtWgt=          12          12          12          12          12          12          12          12          12          12
 AtmWgt=  12.0000000  12.0000000  12.0000000  12.0000000  12.0000000  12.0000000  12.0000000  12.0000000  12.0000000  12.0000000
 NucSpn=           0           0           0           0           0           0           0           0           0           0
 AtZEff=  -0.0000000  -0.0000000  -0.0000000  -0.0000000  -0.0000000  -0.0000000  -0.0000000  -0.0000000  -0.0000000  -0.0000000
 NQMom=    0.0000000   0.0000000   0.0000000   0.0000000   0.0000000   0.0000000   0.0000000   0.0000000   0.0000000   0.0000000
 NMagM=    0.0000000   0.0000000   0.0000000   0.0000000   0.0000000   0.0000000   0.0000000   0.0000000   0.0000000   0.0000000
 AtZNuc=   6.0000000   6.0000000   6.0000000   6.0000000   6.0000000   6.0000000   6.0000000   6.0000000   6.0000000   6.0000000

  Atom        11          12          13          14          15          16          17          18          19          20
 IAtWgt=          12          12          12          12          12          12          12          12          12          12
 AtmWgt=  12.0000000  12.0000000  12.0000000  12.0000000  12.0000000  12.0000000  12.0000000  12.0000000  12.0000000  12.0000000
 NucSpn=           0           0           0           0           0           0           0           0           0           0
 AtZEff=  -0.0000000  -0.0000000  -0.0000000  -0.0000000  -0.0000000  -0.0000000  -0.0000000  -0.0000000  -0.0000000  -0.0000000
 NQMom=    0.0000000   0.0000000   0.0000000   0.0000000   0.0000000   0.0000000   0.0000000   0.0000000   0.0000000   0.0000000
 NMagM=    0.0000000   0.0000000   0.0000000   0.0000000   0.0000000   0.0000000   0.0000000   0.0000000   0.0000000   0.0000000
 AtZNuc=   6.0000000   6.0000000   6.0000000   6.0000000   6.0000000   6.0000000   6.0000000   6.0000000   6.0000000   6.0000000

  Atom        21          22          23          24          25          26          27          28          29          30
 IAtWgt=          12          12          12          12          12          12          12          12          12          12
 AtmWgt=  12.0000000  12.0000000  12.0000000  12.0000000  12.0000000  12.0000000  12.0000000  12.0000000  12.0000000  12.0000000
 NucSpn=           0           0           0           0           0           0           0           0           0           0
 AtZEff=  -0.0000000  -0.0000000  -0.0000000  -0.0000000  -0.0000000  -0.0000000  -0.0000000  -0.0000000  -0.0000000  -0.0000000
 NQMom=    0.0000000   0.0000000   0.0000000   0.0000000   0.0000000   0.0000000   0.0000000   0.0000000   0.0000000   0.0000000
 NMagM=    0.0000000   0.0000000   0.0000000   0.0000000   0.0000000   0.0000000   0.0000000   0.0000000   0.0000000   0.0000000
 AtZNuc=   6.0000000   6.0000000   6.0000000   6.0000000   6.0000000   6.0000000   6.0000000   6.0000000   6.0000000   6.0000000

  Atom        31          32          33          34          35          36          37          38          39          40
 IAtWgt=          12          12          12          12          12          12          12          12          12          12
 AtmWgt=  12.0000000  12.0000000  12.0000000  12.0000000  12.0000000  12.0000000  12.0000000  12.0000000  12.0000000  12.0000000
 NucSpn=           0           0           0           0           0           0           0           0           0           0
 AtZEff=  -0.0000000  -0.0000000  -0.0000000  -0.0000000  -0.0000000  -0.0000000  -0.0000000  -0.0000000  -0.0000000  -0.0000000
 NQMom=    0.0000000   0.0000000   0.0000000   0.0000000   0.0000000   0.0000000   0.0000000   0.0000000   0.0000000   0.0000000
 NMagM=    0.0000000   0.0000000   0.0000000   0.0000000   0.0000000   0.0000000   0.0000000   0.0000000   0.0000000   0.0000000
 AtZNuc=   6.0000000   6.0000000   6.0000000   6.0000000   6.0000000   6.0000000   6.0000000   6.0000000   6.0000000   6.0000000

  Atom        41          42          43          44          45          46          47          48          49          50
 IAtWgt=          12          12          12          12          12          12          12          12          12          12
 AtmWgt=  12.0000000  12.0000000  12.0000000  12.0000000  12.0000000  12.0000000  12.0000000  12.0000000  12.0000000  12.0000000
 NucSpn=           0           0           0           0           0           0           0           0           0           0
 AtZEff=  -0.0000000  -0.0000000  -0.0000000  -0.0000000  -0.0000000  -0.0000000  -0.0000000  -0.0000000  -0.0000000  -0.0000000
 NQMom=    0.0000000   0.0000000   0.0000000   0.0000000   0.0000000   0.0000000   0.0000000   0.0000000   0.0000000   0.0000000
 NMagM=    0.0000000   0.0000000   0.0000000   0.0000000   0.0000000   0.0000000   0.0000000   0.0000000   0.0000000   0.0000000
 AtZNuc=   6.0000000   6.0000000   6.0000000   6.0000000   6.0000000   6.0000000   6.0000000   6.0000000   6.0000000   6.0000000

  Atom        51          52          53          54          55          56          57          58          59          60
 IAtWgt=          12          12          12          12          12          12          12          12          12          12
 AtmWgt=  12.0000000  12.0000000  12.0000000  12.0000000  12.0000000  12.0000000  12.0000000  12.0000000  12.0000000  12.0000000
 NucSpn=           0           0           0           0           0           0           0           0           0           0
 AtZEff=  -0.0000000  -0.0000000  -0.0000000  -0.0000000  -0.0000000  -0.0000000  -0.0000000  -0.0000000  -0.0000000  -0.0000000
 NQMom=    0.0000000   0.0000000   0.0000000   0.0000000   0.0000000   0.0000000   0.0000000   0.0000000   0.0000000   0.0000000
 NMagM=    0.0000000   0.0000000   0.0000000   0.0000000   0.0000000   0.0000000   0.0000000   0.0000000   0.0000000   0.0000000
 AtZNuc=   6.0000000   6.0000000   6.0000000   6.0000000   6.0000000   6.0000000   6.0000000   6.0000000   6.0000000   6.0000000

  Atom        61          62          63          64          65          66          67          68          69          70
 IAtWgt=          12          12          12          12          12          12          35          35          35          35
 AtmWgt=  12.0000000  12.0000000  12.0000000  12.0000000  12.0000000  12.0000000  34.9688527  34.9688527  34.9688527  34.9688527
 NucSpn=           0           0           0           0           0           0           3           3           3           3
 AtZEff=  -0.0000000  -0.0000000  -0.0000000  -0.0000000  -0.0000000  -0.0000000  -0.0000000  -0.0000000  -0.0000000  -0.0000000
 NQMom=    0.0000000   0.0000000   0.0000000   0.0000000   0.0000000   0.0000000  -8.1650000  -8.1650000  -8.1650000  -8.1650000
 NMagM=    0.0000000   0.0000000   0.0000000   0.0000000   0.0000000   0.0000000   0.8218740   0.8218740   0.8218740   0.8218740
 AtZNuc=   6.0000000   6.0000000   6.0000000   6.0000000   6.0000000   6.0000000  17.0000000  17.0000000  17.0000000  17.0000000

  Atom        71          72          73          74
 IAtWgt=          35          35          35          35
 AtmWgt=  34.9688527  34.9688527  34.9688527  34.9688527
 NucSpn=           3           3           3           3
 AtZEff=  -0.0000000  -0.0000000  -0.0000000  -0.0000000
 NQMom=   -8.1650000  -8.1650000  -8.1650000  -8.1650000
 NMagM=    0.8218740   0.8218740   0.8218740   0.8218740
 AtZNuc=  17.0000000  17.0000000  17.0000000  17.0000000
 Leave Link  101 at Fri Jul 15 21:04:49 2022, MaxMem=  1342177280 cpu:              13.5 elap:               0.3
 (Enter /home/mkliu/g16/l103.exe)

 GradGradGradGradGradGradGradGradGradGradGradGradGradGradGradGradGradGrad
 Berny optimization.
 Initialization pass.
                           ----------------------------
                           !    Initial Parameters    !
                           ! (Angstroms and Degrees)  !
 --------------------------                            --------------------------
 ! Name  Definition              Value          Derivative Info.                !
 --------------------------------------------------------------------------------
 ! R1    R(1,2)                  1.5747         estimate D2E/DX2                !
 ! R2    R(1,4)                  1.5658         estimate D2E/DX2                !
 ! R3    R(1,7)                  1.5756         estimate D2E/DX2                !
 ! R4    R(1,67)                 1.7741         estimate D2E/DX2                !
 ! R5    R(2,3)                  1.5491         estimate D2E/DX2                !
 ! R6    R(2,10)                 1.4876         estimate D2E/DX2                !
 ! R7    R(2,68)                 1.7864         estimate D2E/DX2                !
 ! R8    R(3,5)                  1.4824         estimate D2E/DX2                !
 ! R9    R(3,12)                 1.5082         estimate D2E/DX2                !
 ! R10   R(3,69)                 1.7819         estimate D2E/DX2                !
 ! R11   R(4,5)                  1.4843         estimate D2E/DX2                !
 ! R12   R(4,6)                  1.491          estimate D2E/DX2                !
 ! R13   R(4,71)                 1.781          estimate D2E/DX2                !
 ! R14   R(5,15)                 1.3271         estimate D2E/DX2                !
 ! R15   R(6,8)                  1.3575         estimate D2E/DX2                !
 ! R16   R(6,17)                 1.4114         estimate D2E/DX2                !
 ! R17   R(7,8)                  1.5121         estimate D2E/DX2                !
 ! R18   R(7,9)                  1.5067         estimate D2E/DX2                !
 ! R19   R(7,73)                 1.8131         estimate D2E/DX2                !
 ! R20   R(8,20)                 1.4057         estimate D2E/DX2                !
 ! R21   R(9,11)                 1.4287         estimate D2E/DX2                !
 ! R22   R(9,22)                 1.3809         estimate D2E/DX2                !
 ! R23   R(10,11)                1.4011         estimate D2E/DX2                !
 ! R24   R(10,13)                1.3948         estimate D2E/DX2                !
 ! R25   R(11,25)                1.4083         estimate D2E/DX2                !
 ! R26   R(12,13)                1.4234         estimate D2E/DX2                !
 ! R27   R(12,14)                1.3588         estimate D2E/DX2                !
 ! R28   R(13,27)                1.4044         estimate D2E/DX2                !
 ! R29   R(14,16)                1.5129         estimate D2E/DX2                !
 ! R30   R(14,29)                1.4642         estimate D2E/DX2                !
 ! R31   R(15,16)                1.5134         estimate D2E/DX2                !
 ! R32   R(15,18)                1.5116         estimate D2E/DX2                !
 ! R33   R(16,32)                1.4866         estimate D2E/DX2                !
 ! R34   R(16,70)                1.8141         estimate D2E/DX2                !
 ! R35   R(17,18)                1.5127         estimate D2E/DX2                !
 ! R36   R(17,19)                1.3857         estimate D2E/DX2                !
 ! R37   R(18,33)                1.4879         estimate D2E/DX2                !
 ! R38   R(18,72)                1.7974         estimate D2E/DX2                !
 ! R39   R(19,21)                1.4401         estimate D2E/DX2                !
 ! R40   R(19,35)                1.5223         estimate D2E/DX2                !
 ! R41   R(20,21)                1.4245         estimate D2E/DX2                !
 ! R42   R(20,23)                1.4097         estimate D2E/DX2                !
 ! R43   R(21,38)                1.4206         estimate D2E/DX2                !
 ! R44   R(22,23)                1.4604         estimate D2E/DX2                !
 ! R45   R(22,24)                1.4414         estimate D2E/DX2                !
 ! R46   R(23,40)                1.4073         estimate D2E/DX2                !
 ! R47   R(24,26)                1.3728         estimate D2E/DX2                !
 ! R48   R(24,41)                1.4391         estimate D2E/DX2                !
 ! R49   R(25,26)                1.4244         estimate D2E/DX2                !
 ! R50   R(25,28)                1.4218         estimate D2E/DX2                !
 ! R51   R(26,44)                1.4396         estimate D2E/DX2                !
 ! R52   R(27,28)                1.398          estimate D2E/DX2                !
 ! R53   R(27,30)                1.4421         estimate D2E/DX2                !
 ! R54   R(28,45)                1.4283         estimate D2E/DX2                !
 ! R55   R(29,30)                1.4392         estimate D2E/DX2                !
 ! R56   R(29,31)                1.3942         estimate D2E/DX2                !
 ! R57   R(30,47)                1.4129         estimate D2E/DX2                !
 ! R58   R(31,34)                1.4608         estimate D2E/DX2                !
 ! R59   R(31,49)                1.4263         estimate D2E/DX2                !
 ! R60   R(32,33)                1.4134         estimate D2E/DX2                !
 ! R61   R(32,34)                1.3638         estimate D2E/DX2                !
 ! R62   R(33,36)                1.3617         estimate D2E/DX2                !
 ! R63   R(34,51)                1.4242         estimate D2E/DX2                !
 ! R64   R(35,36)                1.5138         estimate D2E/DX2                !
 ! R65   R(35,37)                1.5            estimate D2E/DX2                !
 ! R66   R(35,74)                1.8153         estimate D2E/DX2                !
 ! R67   R(36,52)                1.4176         estimate D2E/DX2                !
 ! R68   R(37,39)                1.3649         estimate D2E/DX2                !
 ! R69   R(37,53)                1.4279         estimate D2E/DX2                !
 ! R70   R(38,39)                1.4537         estimate D2E/DX2                !
 ! R71   R(38,42)                1.4143         estimate D2E/DX2                !
 ! R72   R(39,57)                1.4384         estimate D2E/DX2                !
 ! R73   R(40,41)                1.4387         estimate D2E/DX2                !
 ! R74   R(40,42)                1.3986         estimate D2E/DX2                !
 ! R75   R(41,43)                1.3805         estimate D2E/DX2                !
 ! R76   R(42,58)                1.4425         estimate D2E/DX2                !
 ! R77   R(43,46)                1.4422         estimate D2E/DX2                !
 ! R78   R(43,59)                1.4465         estimate D2E/DX2                !
 ! R79   R(44,45)                1.4353         estimate D2E/DX2                !
 ! R80   R(44,46)                1.3812         estimate D2E/DX2                !
 ! R81   R(45,48)                1.379          estimate D2E/DX2                !
 ! R82   R(46,61)                1.4377         estimate D2E/DX2                !
 ! R83   R(47,48)                1.443          estimate D2E/DX2                !
 ! R84   R(47,50)                1.4236         estimate D2E/DX2                !
 ! R85   R(48,62)                1.4349         estimate D2E/DX2                !
 ! R86   R(49,50)                1.3824         estimate D2E/DX2                !
 ! R87   R(49,54)                1.4457         estimate D2E/DX2                !
 ! R88   R(50,63)                1.4421         estimate D2E/DX2                !
 ! R89   R(51,52)                1.3894         estimate D2E/DX2                !
 ! R90   R(51,54)                1.4319         estimate D2E/DX2                !
 ! R91   R(52,53)                1.4324         estimate D2E/DX2                !
 ! R92   R(53,55)                1.3897         estimate D2E/DX2                !
 ! R93   R(54,56)                1.3838         estimate D2E/DX2                !
 ! R94   R(55,56)                1.437          estimate D2E/DX2                !
 ! R95   R(55,60)                1.4306         estimate D2E/DX2                !
 ! R96   R(56,64)                1.4452         estimate D2E/DX2                !
 ! R97   R(57,58)                1.438          estimate D2E/DX2                !
 ! R98   R(57,60)                1.382          estimate D2E/DX2                !
 ! R99   R(58,59)                1.3836         estimate D2E/DX2                !
 ! R100  R(59,65)                1.4409         estimate D2E/DX2                !
 ! R101  R(60,66)                1.4379         estimate D2E/DX2                !
 ! R102  R(61,62)                1.3878         estimate D2E/DX2                !
 ! R103  R(61,65)                1.4377         estimate D2E/DX2                !
 ! R104  R(62,63)                1.4373         estimate D2E/DX2                !
 ! R105  R(63,64)                1.3783         estimate D2E/DX2                !
 ! R106  R(64,66)                1.4359         estimate D2E/DX2                !
 ! R107  R(65,66)                1.3872         estimate D2E/DX2                !
 ! A1    A(2,1,4)              104.7882         estimate D2E/DX2                !
 ! A2    A(2,1,7)              114.9436         estimate D2E/DX2                !
 ! A3    A(2,1,67)             109.9096         estimate D2E/DX2                !
 ! A4    A(4,1,7)              104.4172         estimate D2E/DX2                !
 ! A5    A(4,1,67)             110.5196         estimate D2E/DX2                !
 ! A6    A(7,1,67)             111.8526         estimate D2E/DX2                !
 ! A7    A(1,2,3)              108.0741         estimate D2E/DX2                !
 ! A8    A(1,2,10)             115.3417         estimate D2E/DX2                !
 ! A9    A(1,2,68)             112.1746         estimate D2E/DX2                !
 ! A10   A(3,2,10)             102.2568         estimate D2E/DX2                !
 ! A11   A(3,2,68)             113.433          estimate D2E/DX2                !
 ! A12   A(10,2,68)            105.2871         estimate D2E/DX2                !
 ! A13   A(2,3,5)              105.1226         estimate D2E/DX2                !
 ! A14   A(2,3,12)             106.1729         estimate D2E/DX2                !
 ! A15   A(2,3,69)             115.5824         estimate D2E/DX2                !
 ! A16   A(5,3,12)             105.4101         estimate D2E/DX2                !
 ! A17   A(5,3,69)             110.5916         estimate D2E/DX2                !
 ! A18   A(12,3,69)            113.1642         estimate D2E/DX2                !
 ! A19   A(1,4,5)              107.0811         estimate D2E/DX2                !
 ! A20   A(1,4,6)              106.6964         estimate D2E/DX2                !
 ! A21   A(1,4,71)             115.4174         estimate D2E/DX2                !
 ! A22   A(5,4,6)              104.1355         estimate D2E/DX2                !
 ! A23   A(5,4,71)             111.826          estimate D2E/DX2                !
 ! A24   A(6,4,71)             110.9378         estimate D2E/DX2                !
 ! A25   A(3,5,4)              112.1835         estimate D2E/DX2                !
 ! A26   A(3,5,15)             122.8737         estimate D2E/DX2                !
 ! A27   A(4,5,15)             122.7528         estimate D2E/DX2                !
 ! A28   A(4,6,8)              110.8068         estimate D2E/DX2                !
 ! A29   A(4,6,17)             124.1689         estimate D2E/DX2                !
 ! A30   A(8,6,17)             121.8516         estimate D2E/DX2                !
 ! A31   A(1,7,8)              104.4581         estimate D2E/DX2                !
 ! A32   A(1,7,9)              118.8717         estimate D2E/DX2                !
 ! A33   A(1,7,73)             112.2159         estimate D2E/DX2                !
 ! A34   A(8,7,9)              105.3391         estimate D2E/DX2                !
 ! A35   A(8,7,73)             108.8041         estimate D2E/DX2                !
 ! A36   A(9,7,73)             106.6053         estimate D2E/DX2                !
 ! A37   A(6,8,7)              113.0596         estimate D2E/DX2                !
 ! A38   A(6,8,20)             119.8864         estimate D2E/DX2                !
 ! A39   A(7,8,20)             124.9561         estimate D2E/DX2                !
 ! A40   A(7,9,11)             122.8382         estimate D2E/DX2                !
 ! A41   A(7,9,22)             115.9513         estimate D2E/DX2                !
 ! A42   A(11,9,22)            116.8671         estimate D2E/DX2                !
 ! A43   A(2,10,11)            125.7701         estimate D2E/DX2                !
 ! A44   A(2,10,13)            112.3831         estimate D2E/DX2                !
 ! A45   A(11,10,13)           117.5623         estimate D2E/DX2                !
 ! A46   A(9,11,10)            116.6433         estimate D2E/DX2                !
 ! A47   A(9,11,25)            119.3813         estimate D2E/DX2                !
 ! A48   A(10,11,25)           116.2805         estimate D2E/DX2                !
 ! A49   A(3,12,13)            108.362          estimate D2E/DX2                !
 ! A50   A(3,12,14)            125.3705         estimate D2E/DX2                !
 ! A51   A(13,12,14)           119.7451         estimate D2E/DX2                !
 ! A52   A(10,13,12)           108.4937         estimate D2E/DX2                !
 ! A53   A(10,13,27)           125.2087         estimate D2E/DX2                !
 ! A54   A(12,13,27)           121.3302         estimate D2E/DX2                !
 ! A55   A(12,14,16)           116.9469         estimate D2E/DX2                !
 ! A56   A(12,14,29)           119.8477         estimate D2E/DX2                !
 ! A57   A(16,14,29)           121.147          estimate D2E/DX2                !
 ! A58   A(5,15,16)            121.3639         estimate D2E/DX2                !
 ! A59   A(5,15,18)            122.1142         estimate D2E/DX2                !
 ! A60   A(16,15,18)           113.0129         estimate D2E/DX2                !
 ! A61   A(14,16,15)           109.3026         estimate D2E/DX2                !
 ! A62   A(14,16,32)           111.6791         estimate D2E/DX2                !
 ! A63   A(14,16,70)           109.2599         estimate D2E/DX2                !
 ! A64   A(15,16,32)           100.5974         estimate D2E/DX2                !
 ! A65   A(15,16,70)           112.5043         estimate D2E/DX2                !
 ! A66   A(32,16,70)           113.2491         estimate D2E/DX2                !
 ! A67   A(6,17,18)            116.7405         estimate D2E/DX2                !
 ! A68   A(6,17,19)            119.1231         estimate D2E/DX2                !
 ! A69   A(18,17,19)           122.4574         estimate D2E/DX2                !
 ! A70   A(15,18,17)           107.6856         estimate D2E/DX2                !
 ! A71   A(15,18,33)           101.6773         estimate D2E/DX2                !
 ! A72   A(15,18,72)           114.7019         estimate D2E/DX2                !
 ! A73   A(17,18,33)           109.406          estimate D2E/DX2                !
 ! A74   A(17,18,72)           110.8692         estimate D2E/DX2                !
 ! A75   A(33,18,72)           112.0258         estimate D2E/DX2                !
 ! A76   A(17,19,21)           119.5806         estimate D2E/DX2                !
 ! A77   A(17,19,35)           119.8837         estimate D2E/DX2                !
 ! A78   A(21,19,35)           119.3128         estimate D2E/DX2                !
 ! A79   A(8,20,21)            119.6576         estimate D2E/DX2                !
 ! A80   A(8,20,23)            115.4773         estimate D2E/DX2                !
 ! A81   A(21,20,23)           120.8888         estimate D2E/DX2                !
 ! A82   A(19,21,20)           118.693          estimate D2E/DX2                !
 ! A83   A(19,21,38)           120.2327         estimate D2E/DX2                !
 ! A84   A(20,21,38)           117.2525         estimate D2E/DX2                !
 ! A85   A(9,22,23)            122.2469         estimate D2E/DX2                !
 ! A86   A(9,22,24)            122.9789         estimate D2E/DX2                !
 ! A87   A(23,22,24)           105.9243         estimate D2E/DX2                !
 ! A88   A(20,23,22)           117.5088         estimate D2E/DX2                !
 ! A89   A(20,23,40)           120.4284         estimate D2E/DX2                !
 ! A90   A(22,23,40)           108.9525         estimate D2E/DX2                !
 ! A91   A(22,24,26)           119.337          estimate D2E/DX2                !
 ! A92   A(22,24,41)           109.0267         estimate D2E/DX2                !
 ! A93   A(26,24,41)           119.6746         estimate D2E/DX2                !
 ! A94   A(11,25,26)           122.1543         estimate D2E/DX2                !
 ! A95   A(11,25,28)           121.7577         estimate D2E/DX2                !
 ! A96   A(26,25,28)           107.0995         estimate D2E/DX2                !
 ! A97   A(24,26,25)           117.8395         estimate D2E/DX2                !
 ! A98   A(24,26,44)           120.3243         estimate D2E/DX2                !
 ! A99   A(25,26,44)           109.0255         estimate D2E/DX2                !
 ! A100  A(13,27,28)           114.3985         estimate D2E/DX2                !
 ! A101  A(13,27,30)           118.7238         estimate D2E/DX2                !
 ! A102  A(28,27,30)           121.4007         estimate D2E/DX2                !
 ! A103  A(25,28,27)           120.138          estimate D2E/DX2                !
 ! A104  A(25,28,45)           109.0302         estimate D2E/DX2                !
 ! A105  A(27,28,45)           120.7152         estimate D2E/DX2                !
 ! A106  A(14,29,30)           118.7649         estimate D2E/DX2                !
 ! A107  A(14,29,31)           118.1717         estimate D2E/DX2                !
 ! A108  A(30,29,31)           118.0436         estimate D2E/DX2                !
 ! A109  A(27,30,29)           119.1532         estimate D2E/DX2                !
 ! A110  A(27,30,47)           116.4461         estimate D2E/DX2                !
 ! A111  A(29,30,47)           119.1784         estimate D2E/DX2                !
 ! A112  A(29,31,34)           119.7123         estimate D2E/DX2                !
 ! A113  A(29,31,49)           122.1473         estimate D2E/DX2                !
 ! A114  A(34,31,49)           106.6783         estimate D2E/DX2                !
 ! A115  A(16,32,33)           112.8691         estimate D2E/DX2                !
 ! A116  A(16,32,34)           120.4523         estimate D2E/DX2                !
 ! A117  A(33,32,34)           120.3223         estimate D2E/DX2                !
 ! A118  A(18,33,32)           110.9278         estimate D2E/DX2                !
 ! A119  A(18,33,36)           121.9445         estimate D2E/DX2                !
 ! A120  A(32,33,36)           120.8149         estimate D2E/DX2                !
 ! A121  A(31,34,32)           121.4511         estimate D2E/DX2                !
 ! A122  A(31,34,51)           108.6314         estimate D2E/DX2                !
 ! A123  A(32,34,51)           119.1871         estimate D2E/DX2                !
 ! A124  A(19,35,36)           109.0985         estimate D2E/DX2                !
 ! A125  A(19,35,37)           113.0898         estimate D2E/DX2                !
 ! A126  A(19,35,74)           107.7519         estimate D2E/DX2                !
 ! A127  A(36,35,37)           100.8575         estimate D2E/DX2                !
 ! A128  A(36,35,74)           113.0306         estimate D2E/DX2                !
 ! A129  A(37,35,74)           112.9588         estimate D2E/DX2                !
 ! A130  A(33,36,35)           122.3053         estimate D2E/DX2                !
 ! A131  A(33,36,52)           119.3955         estimate D2E/DX2                !
 ! A132  A(35,36,52)           110.8618         estimate D2E/DX2                !
 ! A133  A(35,37,39)           121.7523         estimate D2E/DX2                !
 ! A134  A(35,37,53)           111.3162         estimate D2E/DX2                !
 ! A135  A(39,37,53)           118.7595         estimate D2E/DX2                !
 ! A136  A(21,38,39)           119.9418         estimate D2E/DX2                !
 ! A137  A(21,38,42)           120.77           estimate D2E/DX2                !
 ! A138  A(39,38,42)           107.8597         estimate D2E/DX2                !
 ! A139  A(37,39,38)           120.7595         estimate D2E/DX2                !
 ! A140  A(37,39,57)           120.807          estimate D2E/DX2                !
 ! A141  A(38,39,57)           107.5265         estimate D2E/DX2                !
 ! A142  A(23,40,41)           108.7842         estimate D2E/DX2                !
 ! A143  A(23,40,42)           119.235          estimate D2E/DX2                !
 ! A144  A(41,40,42)           120.541          estimate D2E/DX2                !
 ! A145  A(24,41,40)           107.1362         estimate D2E/DX2                !
 ! A146  A(24,41,43)           120.422          estimate D2E/DX2                !
 ! A147  A(40,41,43)           119.4588         estimate D2E/DX2                !
 ! A148  A(38,42,40)           120.5106         estimate D2E/DX2                !
 ! A149  A(38,42,58)           108.6916         estimate D2E/DX2                !
 ! A150  A(40,42,58)           119.5433         estimate D2E/DX2                !
 ! A151  A(41,43,46)           119.7409         estimate D2E/DX2                !
 ! A152  A(41,43,59)           120.2812         estimate D2E/DX2                !
 ! A153  A(46,43,59)           107.7395         estimate D2E/DX2                !
 ! A154  A(26,44,45)           106.8444         estimate D2E/DX2                !
 ! A155  A(26,44,46)           120.0676         estimate D2E/DX2                !
 ! A156  A(45,44,46)           119.0515         estimate D2E/DX2                !
 ! A157  A(28,45,44)           107.8108         estimate D2E/DX2                !
 ! A158  A(28,45,48)           119.0606         estimate D2E/DX2                !
 ! A159  A(44,45,48)           121.3983         estimate D2E/DX2                !
 ! A160  A(43,46,44)           119.7367         estimate D2E/DX2                !
 ! A161  A(43,46,61)           108.1149         estimate D2E/DX2                !
 ! A162  A(44,46,61)           119.8547         estimate D2E/DX2                !
 ! A163  A(30,47,48)           121.4112         estimate D2E/DX2                !
 ! A164  A(30,47,50)           121.441          estimate D2E/DX2                !
 ! A165  A(48,47,50)           107.3688         estimate D2E/DX2                !
 ! A166  A(45,48,47)           120.5082         estimate D2E/DX2                !
 ! A167  A(45,48,62)           119.4071         estimate D2E/DX2                !
 ! A168  A(47,48,62)           108.5082         estimate D2E/DX2                !
 ! A169  A(31,49,50)           119.9563         estimate D2E/DX2                !
 ! A170  A(31,49,54)           108.4224         estimate D2E/DX2                !
 ! A171  A(50,49,54)           119.6087         estimate D2E/DX2                !
 ! A172  A(47,50,49)           118.963          estimate D2E/DX2                !
 ! A173  A(47,50,63)           108.457          estimate D2E/DX2                !
 ! A174  A(49,50,63)           120.839          estimate D2E/DX2                !
 ! A175  A(34,51,52)           119.7461         estimate D2E/DX2                !
 ! A176  A(34,51,54)           107.6611         estimate D2E/DX2                !
 ! A177  A(52,51,54)           120.2017         estimate D2E/DX2                !
 ! A178  A(36,52,51)           119.7357         estimate D2E/DX2                !
 ! A179  A(36,52,53)           108.7402         estimate D2E/DX2                !
 ! A180  A(51,52,53)           120.2357         estimate D2E/DX2                !
 ! A181  A(37,53,52)           107.6956         estimate D2E/DX2                !
 ! A182  A(37,53,55)           121.1781         estimate D2E/DX2                !
 ! A183  A(52,53,55)           119.2849         estimate D2E/DX2                !
 ! A184  A(49,54,51)           108.1793         estimate D2E/DX2                !
 ! A185  A(49,54,56)           119.5078         estimate D2E/DX2                !
 ! A186  A(51,54,56)           119.8079         estimate D2E/DX2                !
 ! A187  A(53,55,56)           120.4392         estimate D2E/DX2                !
 ! A188  A(53,55,60)           119.602          estimate D2E/DX2                !
 ! A189  A(56,55,60)           107.8556         estimate D2E/DX2                !
 ! A190  A(54,56,55)           119.9034         estimate D2E/DX2                !
 ! A191  A(54,56,64)           120.3801         estimate D2E/DX2                !
 ! A192  A(55,56,64)           108.1119         estimate D2E/DX2                !
 ! A193  A(39,57,58)           107.9487         estimate D2E/DX2                !
 ! A194  A(39,57,60)           120.2488         estimate D2E/DX2                !
 ! A195  A(58,57,60)           119.759          estimate D2E/DX2                !
 ! A196  A(42,58,57)           107.6336         estimate D2E/DX2                !
 ! A197  A(42,58,59)           119.6221         estimate D2E/DX2                !
 ! A198  A(57,58,59)           120.0995         estimate D2E/DX2                !
 ! A199  A(43,59,58)           120.3525         estimate D2E/DX2                !
 ! A200  A(43,59,65)           107.8657         estimate D2E/DX2                !
 ! A201  A(58,59,65)           119.9575         estimate D2E/DX2                !
 ! A202  A(55,60,57)           119.1446         estimate D2E/DX2                !
 ! A203  A(55,60,66)           108.3786         estimate D2E/DX2                !
 ! A204  A(57,60,66)           120.5084         estimate D2E/DX2                !
 ! A205  A(46,61,62)           120.6013         estimate D2E/DX2                !
 ! A206  A(46,61,65)           108.1286         estimate D2E/DX2                !
 ! A207  A(62,61,65)           119.5943         estimate D2E/DX2                !
 ! A208  A(48,62,61)           119.3937         estimate D2E/DX2                !
 ! A209  A(48,62,63)           107.4277         estimate D2E/DX2                !
 ! A210  A(61,62,63)           120.3556         estimate D2E/DX2                !
 ! A211  A(50,63,62)           107.8833         estimate D2E/DX2                !
 ! A212  A(50,63,64)           119.3623         estimate D2E/DX2                !
 ! A213  A(62,63,64)           119.9547         estimate D2E/DX2                !
 ! A214  A(56,64,63)           120.0978         estimate D2E/DX2                !
 ! A215  A(56,64,66)           107.6057         estimate D2E/DX2                !
 ! A216  A(63,64,66)           119.9091         estimate D2E/DX2                !
 ! A217  A(59,65,61)           108.0759         estimate D2E/DX2                !
 ! A218  A(59,65,66)           120.0305         estimate D2E/DX2                !
 ! A219  A(61,65,66)           119.7709         estimate D2E/DX2                !
 ! A220  A(60,66,64)           108.0083         estimate D2E/DX2                !
 ! A221  A(60,66,65)           119.5691         estimate D2E/DX2                !
 ! A222  A(64,66,65)           120.3593         estimate D2E/DX2                !
 ! D1    D(4,1,2,3)              7.0562         estimate D2E/DX2                !
 ! D2    D(4,1,2,10)          -106.6249         estimate D2E/DX2                !
 ! D3    D(4,1,2,68)           132.8408         estimate D2E/DX2                !
 ! D4    D(7,1,2,3)            121.0593         estimate D2E/DX2                !
 ! D5    D(7,1,2,10)             7.3782         estimate D2E/DX2                !
 ! D6    D(7,1,2,68)          -113.156          estimate D2E/DX2                !
 ! D7    D(67,1,2,3)          -111.7074         estimate D2E/DX2                !
 ! D8    D(67,1,2,10)          134.6115         estimate D2E/DX2                !
 ! D9    D(67,1,2,68)           14.0773         estimate D2E/DX2                !
 ! D10   D(2,1,4,5)              3.1986         estimate D2E/DX2                !
 ! D11   D(2,1,4,6)            114.2311         estimate D2E/DX2                !
 ! D12   D(2,1,4,71)          -122.0166         estimate D2E/DX2                !
 ! D13   D(7,1,4,5)           -118.0144         estimate D2E/DX2                !
 ! D14   D(7,1,4,6)             -6.9819         estimate D2E/DX2                !
 ! D15   D(7,1,4,71)           116.7703         estimate D2E/DX2                !
 ! D16   D(67,1,4,5)           121.5495         estimate D2E/DX2                !
 ! D17   D(67,1,4,6)          -127.418          estimate D2E/DX2                !
 ! D18   D(67,1,4,71)           -3.6658         estimate D2E/DX2                !
 ! D19   D(2,1,7,8)           -110.0657         estimate D2E/DX2                !
 ! D20   D(2,1,7,9)              6.9431         estimate D2E/DX2                !
 ! D21   D(2,1,7,73)           132.2323         estimate D2E/DX2                !
 ! D22   D(4,1,7,8)              4.1534         estimate D2E/DX2                !
 ! D23   D(4,1,7,9)            121.1622         estimate D2E/DX2                !
 ! D24   D(4,1,7,73)          -113.5486         estimate D2E/DX2                !
 ! D25   D(67,1,7,8)           123.6942         estimate D2E/DX2                !
 ! D26   D(67,1,7,9)          -119.2971         estimate D2E/DX2                !
 ! D27   D(67,1,7,73)            5.9922         estimate D2E/DX2                !
 ! D28   D(1,2,3,5)            -14.6004         estimate D2E/DX2                !
 ! D29   D(1,2,3,12)          -126.0064         estimate D2E/DX2                !
 ! D30   D(1,2,3,69)           107.628          estimate D2E/DX2                !
 ! D31   D(10,2,3,5)           107.5154         estimate D2E/DX2                !
 ! D32   D(10,2,3,12)           -3.8905         estimate D2E/DX2                !
 ! D33   D(10,2,3,69)         -130.2562         estimate D2E/DX2                !
 ! D34   D(68,2,3,5)          -139.6409         estimate D2E/DX2                !
 ! D35   D(68,2,3,12)          108.9531         estimate D2E/DX2                !
 ! D36   D(68,2,3,69)          -17.4125         estimate D2E/DX2                !
 ! D37   D(1,2,10,11)          -26.5436         estimate D2E/DX2                !
 ! D38   D(1,2,10,13)          129.4421         estimate D2E/DX2                !
 ! D39   D(3,2,10,11)         -143.5553         estimate D2E/DX2                !
 ! D40   D(3,2,10,13)           12.4304         estimate D2E/DX2                !
 ! D41   D(68,2,10,11)          97.677          estimate D2E/DX2                !
 ! D42   D(68,2,10,13)        -106.3372         estimate D2E/DX2                !
 ! D43   D(2,3,5,4)             17.385          estimate D2E/DX2                !
 ! D44   D(2,3,5,15)          -146.189          estimate D2E/DX2                !
 ! D45   D(12,3,5,4)           129.3338         estimate D2E/DX2                !
 ! D46   D(12,3,5,15)          -34.2403         estimate D2E/DX2                !
 ! D47   D(69,3,5,4)          -108.0204         estimate D2E/DX2                !
 ! D48   D(69,3,5,15)           88.4055         estimate D2E/DX2                !
 ! D49   D(2,3,12,13)           -5.3084         estimate D2E/DX2                !
 ! D50   D(2,3,12,14)          145.9397         estimate D2E/DX2                !
 ! D51   D(5,3,12,13)         -116.5132         estimate D2E/DX2                !
 ! D52   D(5,3,12,14)           34.7349         estimate D2E/DX2                !
 ! D53   D(69,3,12,13)         122.5064         estimate D2E/DX2                !
 ! D54   D(69,3,12,14)         -86.2454         estimate D2E/DX2                !
 ! D55   D(1,4,5,3)            -13.1511         estimate D2E/DX2                !
 ! D56   D(1,4,5,15)           150.4459         estimate D2E/DX2                !
 ! D57   D(6,4,5,3)           -125.9395         estimate D2E/DX2                !
 ! D58   D(6,4,5,15)            37.6575         estimate D2E/DX2                !
 ! D59   D(71,4,5,3)           114.204          estimate D2E/DX2                !
 ! D60   D(71,4,5,15)          -82.199          estimate D2E/DX2                !
 ! D61   D(1,4,6,8)              7.6476         estimate D2E/DX2                !
 ! D62   D(1,4,6,17)          -152.4483         estimate D2E/DX2                !
 ! D63   D(5,4,6,8)            120.7121         estimate D2E/DX2                !
 ! D64   D(5,4,6,17)           -39.3837         estimate D2E/DX2                !
 ! D65   D(71,4,6,8)          -118.8328         estimate D2E/DX2                !
 ! D66   D(71,4,6,17)           81.0714         estimate D2E/DX2                !
 ! D67   D(3,5,15,16)            2.4234         estimate D2E/DX2                !
 ! D68   D(3,5,15,18)          159.8102         estimate D2E/DX2                !
 ! D69   D(4,5,15,16)         -159.4362         estimate D2E/DX2                !
 ! D70   D(4,5,15,18)           -2.0495         estimate D2E/DX2                !
 ! D71   D(4,6,8,7)             -5.0997         estimate D2E/DX2                !
 ! D72   D(4,6,8,20)          -169.4376         estimate D2E/DX2                !
 ! D73   D(17,6,8,7)           155.5334         estimate D2E/DX2                !
 ! D74   D(17,6,8,20)           -8.8045         estimate D2E/DX2                !
 ! D75   D(4,6,17,18)            5.2882         estimate D2E/DX2                !
 ! D76   D(4,6,17,19)          170.8934         estimate D2E/DX2                !
 ! D77   D(8,6,17,18)         -152.7084         estimate D2E/DX2                !
 ! D78   D(8,6,17,19)           12.8969         estimate D2E/DX2                !
 ! D79   D(1,7,8,6)              0.3531         estimate D2E/DX2                !
 ! D80   D(1,7,8,20)           163.7593         estimate D2E/DX2                !
 ! D81   D(9,7,8,6)           -125.647          estimate D2E/DX2                !
 ! D82   D(9,7,8,20)            37.7592         estimate D2E/DX2                !
 ! D83   D(73,7,8,6)           120.3713         estimate D2E/DX2                !
 ! D84   D(73,7,8,20)          -76.2225         estimate D2E/DX2                !
 ! D85   D(1,7,9,11)            -6.309          estimate D2E/DX2                !
 ! D86   D(1,7,9,22)          -162.1332         estimate D2E/DX2                !
 ! D87   D(8,7,9,11)           110.2352         estimate D2E/DX2                !
 ! D88   D(8,7,9,22)           -45.589          estimate D2E/DX2                !
 ! D89   D(73,7,9,11)         -134.2599         estimate D2E/DX2                !
 ! D90   D(73,7,9,22)           69.9159         estimate D2E/DX2                !
 ! D91   D(6,8,20,21)           -1.0232         estimate D2E/DX2                !
 ! D92   D(6,8,20,23)          156.7538         estimate D2E/DX2                !
 ! D93   D(7,8,20,21)         -163.3812         estimate D2E/DX2                !
 ! D94   D(7,8,20,23)           -5.6042         estimate D2E/DX2                !
 ! D95   D(7,9,11,10)          -10.1033         estimate D2E/DX2                !
 ! D96   D(7,9,11,25)         -158.4208         estimate D2E/DX2                !
 ! D97   D(22,9,11,10)         145.5157         estimate D2E/DX2                !
 ! D98   D(22,9,11,25)          -2.8017         estimate D2E/DX2                !
 ! D99   D(7,9,22,23)           25.9795         estimate D2E/DX2                !
 ! D100  D(7,9,22,24)          168.7371         estimate D2E/DX2                !
 ! D101  D(11,9,22,23)        -131.3312         estimate D2E/DX2                !
 ! D102  D(11,9,22,24)          11.4264         estimate D2E/DX2                !
 ! D103  D(2,10,11,9)           28.0613         estimate D2E/DX2                !
 ! D104  D(2,10,11,25)         177.3699         estimate D2E/DX2                !
 ! D105  D(13,10,11,9)        -126.821          estimate D2E/DX2                !
 ! D106  D(13,10,11,25)         22.4875         estimate D2E/DX2                !
 ! D107  D(2,10,13,12)         -16.5394         estimate D2E/DX2                !
 ! D108  D(2,10,13,27)        -171.6426         estimate D2E/DX2                !
 ! D109  D(11,10,13,12)        141.5925         estimate D2E/DX2                !
 ! D110  D(11,10,13,27)        -13.5106         estimate D2E/DX2                !
 ! D111  D(9,11,25,26)          -7.8548         estimate D2E/DX2                !
 ! D112  D(9,11,25,28)         135.0443         estimate D2E/DX2                !
 ! D113  D(10,11,25,26)       -156.2834         estimate D2E/DX2                !
 ! D114  D(10,11,25,28)        -13.3843         estimate D2E/DX2                !
 ! D115  D(3,12,13,10)          13.1662         estimate D2E/DX2                !
 ! D116  D(3,12,13,27)         169.4199         estimate D2E/DX2                !
 ! D117  D(14,12,13,10)       -139.9773         estimate D2E/DX2                !
 ! D118  D(14,12,13,27)         16.2764         estimate D2E/DX2                !
 ! D119  D(3,12,14,16)          -2.3663         estimate D2E/DX2                !
 ! D120  D(3,12,14,29)        -166.2444         estimate D2E/DX2                !
 ! D121  D(13,12,14,16)        145.9112         estimate D2E/DX2                !
 ! D122  D(13,12,14,29)        -17.9668         estimate D2E/DX2                !
 ! D123  D(10,13,27,28)         -6.0925         estimate D2E/DX2                !
 ! D124  D(10,13,27,30)        148.1934         estimate D2E/DX2                !
 ! D125  D(12,13,27,28)       -158.2268         estimate D2E/DX2                !
 ! D126  D(12,13,27,30)         -3.941          estimate D2E/DX2                !
 ! D127  D(12,14,16,15)        -31.0995         estimate D2E/DX2                !
 ! D128  D(12,14,16,32)       -141.5211         estimate D2E/DX2                !
 ! D129  D(12,14,16,70)         92.403          estimate D2E/DX2                !
 ! D130  D(29,14,16,15)        132.5557         estimate D2E/DX2                !
 ! D131  D(29,14,16,32)         22.1341         estimate D2E/DX2                !
 ! D132  D(29,14,16,70)       -103.9418         estimate D2E/DX2                !
 ! D133  D(12,14,29,30)          7.964          estimate D2E/DX2                !
 ! D134  D(12,14,29,31)        162.4388         estimate D2E/DX2                !
 ! D135  D(16,14,29,30)       -155.2242         estimate D2E/DX2                !
 ! D136  D(16,14,29,31)         -0.7494         estimate D2E/DX2                !
 ! D137  D(5,15,16,14)          32.1779         estimate D2E/DX2                !
 ! D138  D(5,15,16,32)         149.8061         estimate D2E/DX2                !
 ! D139  D(5,15,16,70)         -89.3838         estimate D2E/DX2                !
 ! D140  D(18,15,16,14)       -127.1001         estimate D2E/DX2                !
 ! D141  D(18,15,16,32)         -9.4718         estimate D2E/DX2                !
 ! D142  D(18,15,16,70)        111.3383         estimate D2E/DX2                !
 ! D143  D(5,15,18,17)         -34.6452         estimate D2E/DX2                !
 ! D144  D(5,15,18,33)        -149.607          estimate D2E/DX2                !
 ! D145  D(5,15,18,72)          89.2892         estimate D2E/DX2                !
 ! D146  D(16,15,18,17)        124.4564         estimate D2E/DX2                !
 ! D147  D(16,15,18,33)          9.4946         estimate D2E/DX2                !
 ! D148  D(16,15,18,72)       -111.6093         estimate D2E/DX2                !
 ! D149  D(14,16,32,33)        121.5928         estimate D2E/DX2                !
 ! D150  D(14,16,32,34)        -30.486          estimate D2E/DX2                !
 ! D151  D(15,16,32,33)          5.7268         estimate D2E/DX2                !
 ! D152  D(15,16,32,34)       -146.3519         estimate D2E/DX2                !
 ! D153  D(70,16,32,33)       -114.5507         estimate D2E/DX2                !
 ! D154  D(70,16,32,34)         93.3705         estimate D2E/DX2                !
 ! D155  D(6,17,18,15)          31.6166         estimate D2E/DX2                !
 ! D156  D(6,17,18,33)         141.345          estimate D2E/DX2                !
 ! D157  D(6,17,18,72)         -94.6107         estimate D2E/DX2                !
 ! D158  D(19,17,18,15)       -133.4689         estimate D2E/DX2                !
 ! D159  D(19,17,18,33)        -23.7405         estimate D2E/DX2                !
 ! D160  D(19,17,18,72)        100.3038         estimate D2E/DX2                !
 ! D161  D(6,17,19,21)          -6.9404         estimate D2E/DX2                !
 ! D162  D(6,17,19,35)        -174.2225         estimate D2E/DX2                !
 ! D163  D(18,17,19,21)        157.8046         estimate D2E/DX2                !
 ! D164  D(18,17,19,35)         -9.4775         estimate D2E/DX2                !
 ! D165  D(15,18,33,32)         -5.5228         estimate D2E/DX2                !
 ! D166  D(15,18,33,36)        146.7009         estimate D2E/DX2                !
 ! D167  D(17,18,33,32)       -119.2076         estimate D2E/DX2                !
 ! D168  D(17,18,33,36)         33.0161         estimate D2E/DX2                !
 ! D169  D(72,18,33,32)        117.4293         estimate D2E/DX2                !
 ! D170  D(72,18,33,36)        -90.347          estimate D2E/DX2                !
 ! D171  D(17,19,21,20)         -2.4252         estimate D2E/DX2                !
 ! D172  D(17,19,21,38)       -159.8177         estimate D2E/DX2                !
 ! D173  D(35,19,21,20)        164.9299         estimate D2E/DX2                !
 ! D174  D(35,19,21,38)          7.5374         estimate D2E/DX2                !
 ! D175  D(17,19,35,36)         33.4543         estimate D2E/DX2                !
 ! D176  D(17,19,35,37)        144.8198         estimate D2E/DX2                !
 ! D177  D(17,19,35,74)        -89.6086         estimate D2E/DX2                !
 ! D178  D(21,19,35,36)       -133.8619         estimate D2E/DX2                !
 ! D179  D(21,19,35,37)        -22.4965         estimate D2E/DX2                !
 ! D180  D(21,19,35,74)        103.0752         estimate D2E/DX2                !
 ! D181  D(8,20,21,19)           6.5203         estimate D2E/DX2                !
 ! D182  D(8,20,21,38)         164.5824         estimate D2E/DX2                !
 ! D183  D(23,20,21,19)       -150.035          estimate D2E/DX2                !
 ! D184  D(23,20,21,38)          8.0271         estimate D2E/DX2                !
 ! D185  D(8,20,23,22)         -20.4984         estimate D2E/DX2                !
 ! D186  D(8,20,23,40)        -157.4315         estimate D2E/DX2                !
 ! D187  D(21,20,23,22)        136.9828         estimate D2E/DX2                !
 ! D188  D(21,20,23,40)          0.0497         estimate D2E/DX2                !
 ! D189  D(19,21,38,39)          7.8454         estimate D2E/DX2                !
 ! D190  D(19,21,38,42)        146.859          estimate D2E/DX2                !
 ! D191  D(20,21,38,39)       -149.8633         estimate D2E/DX2                !
 ! D192  D(20,21,38,42)        -10.8496         estimate D2E/DX2                !
 ! D193  D(9,22,23,20)          10.5266         estimate D2E/DX2                !
 ! D194  D(9,22,23,40)         152.0242         estimate D2E/DX2                !
 ! D195  D(24,22,23,20)       -137.6074         estimate D2E/DX2                !
 ! D196  D(24,22,23,40)          3.8902         estimate D2E/DX2                !
 ! D197  D(9,22,24,26)          -9.4743         estimate D2E/DX2                !
 ! D198  D(9,22,24,41)        -152.0859         estimate D2E/DX2                !
 ! D199  D(23,22,24,26)        138.3669         estimate D2E/DX2                !
 ! D200  D(23,22,24,41)         -4.2448         estimate D2E/DX2                !
 ! D201  D(20,23,40,41)        138.1011         estimate D2E/DX2                !
 ! D202  D(20,23,40,42)         -5.5527         estimate D2E/DX2                !
 ! D203  D(22,23,40,41)         -2.0799         estimate D2E/DX2                !
 ! D204  D(22,23,40,42)       -145.7337         estimate D2E/DX2                !
 ! D205  D(22,24,26,25)         -1.4553         estimate D2E/DX2                !
 ! D206  D(22,24,26,44)       -138.8473         estimate D2E/DX2                !
 ! D207  D(41,24,26,25)        137.1923         estimate D2E/DX2                !
 ! D208  D(41,24,26,44)         -0.1997         estimate D2E/DX2                !
 ! D209  D(22,24,41,40)          3.06           estimate D2E/DX2                !
 ! D210  D(22,24,41,43)        144.1259         estimate D2E/DX2                !
 ! D211  D(26,24,41,40)       -139.4053         estimate D2E/DX2                !
 ! D212  D(26,24,41,43)          1.6606         estimate D2E/DX2                !
 ! D213  D(11,25,26,24)          9.9264         estimate D2E/DX2                !
 ! D214  D(11,25,26,44)        151.7474         estimate D2E/DX2                !
 ! D215  D(28,25,26,24)       -137.6191         estimate D2E/DX2                !
 ! D216  D(28,25,26,44)          4.2018         estimate D2E/DX2                !
 ! D217  D(11,25,28,27)         -6.4884         estimate D2E/DX2                !
 ! D218  D(11,25,28,45)       -152.0771         estimate D2E/DX2                !
 ! D219  D(26,25,28,27)        141.2141         estimate D2E/DX2                !
 ! D220  D(26,25,28,45)         -4.3747         estimate D2E/DX2                !
 ! D221  D(24,26,44,45)        138.2727         estimate D2E/DX2                !
 ! D222  D(24,26,44,46)         -1.3267         estimate D2E/DX2                !
 ! D223  D(25,26,44,45)         -2.4395         estimate D2E/DX2                !
 ! D224  D(25,26,44,46)       -142.0389         estimate D2E/DX2                !
 ! D225  D(13,27,28,25)         15.7486         estimate D2E/DX2                !
 ! D226  D(13,27,28,45)        157.3288         estimate D2E/DX2                !
 ! D227  D(30,27,28,25)       -137.7783         estimate D2E/DX2                !
 ! D228  D(30,27,28,45)          3.8019         estimate D2E/DX2                !
 ! D229  D(13,27,30,29)         -5.9263         estimate D2E/DX2                !
 ! D230  D(13,27,30,47)       -160.2102         estimate D2E/DX2                !
 ! D231  D(28,27,30,29)        146.4971         estimate D2E/DX2                !
 ! D232  D(28,27,30,47)         -7.7867         estimate D2E/DX2                !
 ! D233  D(25,28,45,44)          2.8976         estimate D2E/DX2                !
 ! D234  D(25,28,45,48)        146.4647         estimate D2E/DX2                !
 ! D235  D(27,28,45,44)       -142.4579         estimate D2E/DX2                !
 ! D236  D(27,28,45,48)          1.1092         estimate D2E/DX2                !
 ! D237  D(14,29,30,27)          4.1068         estimate D2E/DX2                !
 ! D238  D(14,29,30,47)        157.6855         estimate D2E/DX2                !
 ! D239  D(31,29,30,27)       -150.4006         estimate D2E/DX2                !
 ! D240  D(31,29,30,47)          3.1781         estimate D2E/DX2                !
 ! D241  D(14,29,31,34)        -14.5641         estimate D2E/DX2                !
 ! D242  D(14,29,31,49)       -153.0609         estimate D2E/DX2                !
 ! D243  D(30,29,31,34)        140.0961         estimate D2E/DX2                !
 ! D244  D(30,29,31,49)          1.5993         estimate D2E/DX2                !
 ! D245  D(27,30,47,48)          7.1865         estimate D2E/DX2                !
 ! D246  D(27,30,47,50)        148.7531         estimate D2E/DX2                !
 ! D247  D(29,30,47,48)       -147.0906         estimate D2E/DX2                !
 ! D248  D(29,30,47,50)         -5.524          estimate D2E/DX2                !
 ! D249  D(29,31,34,32)          6.6185         estimate D2E/DX2                !
 ! D250  D(29,31,34,51)       -137.4256         estimate D2E/DX2                !
 ! D251  D(49,31,34,32)        150.7657         estimate D2E/DX2                !
 ! D252  D(49,31,34,51)          6.7216         estimate D2E/DX2                !
 ! D253  D(29,31,49,50)         -4.2163         estimate D2E/DX2                !
 ! D254  D(29,31,49,54)        138.2533         estimate D2E/DX2                !
 ! D255  D(34,31,49,50)       -147.2881         estimate D2E/DX2                !
 ! D256  D(34,31,49,54)         -4.8184         estimate D2E/DX2                !
 ! D257  D(16,32,33,18)         -0.1553         estimate D2E/DX2                !
 ! D258  D(16,32,33,36)       -152.7392         estimate D2E/DX2                !
 ! D259  D(34,32,33,18)        151.9637         estimate D2E/DX2                !
 ! D260  D(34,32,33,36)         -0.6201         estimate D2E/DX2                !
 ! D261  D(16,32,34,31)         17.676          estimate D2E/DX2                !
 ! D262  D(16,32,34,51)        158.0846         estimate D2E/DX2                !
 ! D263  D(33,32,34,31)       -132.3354         estimate D2E/DX2                !
 ! D264  D(33,32,34,51)          8.0732         estimate D2E/DX2                !
 ! D265  D(18,33,36,35)         -8.5647         estimate D2E/DX2                !
 ! D266  D(18,33,36,52)       -155.685          estimate D2E/DX2                !
 ! D267  D(32,33,36,35)        140.9825         estimate D2E/DX2                !
 ! D268  D(32,33,36,52)         -6.1378         estimate D2E/DX2                !
 ! D269  D(31,34,51,52)        136.1843         estimate D2E/DX2                !
 ! D270  D(31,34,51,54)         -6.001          estimate D2E/DX2                !
 ! D271  D(32,34,51,52)         -8.8038         estimate D2E/DX2                !
 ! D272  D(32,34,51,54)       -150.9891         estimate D2E/DX2                !
 ! D273  D(19,35,36,33)        -25.0212         estimate D2E/DX2                !
 ! D274  D(19,35,36,52)        124.57           estimate D2E/DX2                !
 ! D275  D(37,35,36,33)       -144.2957         estimate D2E/DX2                !
 ! D276  D(37,35,36,52)          5.2956         estimate D2E/DX2                !
 ! D277  D(74,35,36,33)         94.8329         estimate D2E/DX2                !
 ! D278  D(74,35,36,52)       -115.5758         estimate D2E/DX2                !
 ! D279  D(19,35,37,39)         24.4159         estimate D2E/DX2                !
 ! D280  D(19,35,37,53)       -123.6721         estimate D2E/DX2                !
 ! D281  D(36,35,37,39)        140.7715         estimate D2E/DX2                !
 ! D282  D(36,35,37,53)         -7.3166         estimate D2E/DX2                !
 ! D283  D(74,35,37,39)        -98.3062         estimate D2E/DX2                !
 ! D284  D(74,35,37,53)        113.6058         estimate D2E/DX2                !
 ! D285  D(33,36,52,51)          5.2926         estimate D2E/DX2                !
 ! D286  D(33,36,52,53)        149.0169         estimate D2E/DX2                !
 ! D287  D(35,36,52,51)       -145.2986         estimate D2E/DX2                !
 ! D288  D(35,36,52,53)         -1.5743         estimate D2E/DX2                !
 ! D289  D(35,37,39,38)        -10.6306         estimate D2E/DX2                !
 ! D290  D(35,37,39,57)       -150.3517         estimate D2E/DX2                !
 ! D291  D(53,37,39,38)        135.1928         estimate D2E/DX2                !
 ! D292  D(53,37,39,57)         -4.5283         estimate D2E/DX2                !
 ! D293  D(35,37,53,52)          6.8538         estimate D2E/DX2                !
 ! D294  D(35,37,53,55)        149.3383         estimate D2E/DX2                !
 ! D295  D(39,37,53,52)       -142.2992         estimate D2E/DX2                !
 ! D296  D(39,37,53,55)          0.1853         estimate D2E/DX2                !
 ! D297  D(21,38,39,37)         -6.6109         estimate D2E/DX2                !
 ! D298  D(21,38,39,57)        137.7754         estimate D2E/DX2                !
 ! D299  D(42,38,39,37)       -150.306          estimate D2E/DX2                !
 ! D300  D(42,38,39,57)         -5.9197         estimate D2E/DX2                !
 ! D301  D(21,38,42,40)          5.6586         estimate D2E/DX2                !
 ! D302  D(21,38,42,58)       -137.8133         estimate D2E/DX2                !
 ! D303  D(39,38,42,40)        148.995          estimate D2E/DX2                !
 ! D304  D(39,38,42,58)          5.5231         estimate D2E/DX2                !
 ! D305  D(37,39,57,58)        148.4078         estimate D2E/DX2                !
 ! D306  D(37,39,57,60)          5.9524         estimate D2E/DX2                !
 ! D307  D(38,39,57,58)          4.0418         estimate D2E/DX2                !
 ! D308  D(38,39,57,60)       -138.4137         estimate D2E/DX2                !
 ! D309  D(23,40,41,24)         -0.5822         estimate D2E/DX2                !
 ! D310  D(23,40,41,43)       -142.0927         estimate D2E/DX2                !
 ! D311  D(42,40,41,24)        142.5136         estimate D2E/DX2                !
 ! D312  D(42,40,41,43)          1.0031         estimate D2E/DX2                !
 ! D313  D(23,40,42,38)          2.7307         estimate D2E/DX2                !
 ! D314  D(23,40,42,58)        142.3332         estimate D2E/DX2                !
 ! D315  D(41,40,42,38)       -136.6161         estimate D2E/DX2                !
 ! D316  D(41,40,42,58)          2.9865         estimate D2E/DX2                !
 ! D317  D(24,41,43,46)         -1.5819         estimate D2E/DX2                !
 ! D318  D(24,41,43,59)       -139.3104         estimate D2E/DX2                !
 ! D319  D(40,41,43,46)        134.8117         estimate D2E/DX2                !
 ! D320  D(40,41,43,59)         -2.9168         estimate D2E/DX2                !
 ! D321  D(38,42,58,57)         -3.0249         estimate D2E/DX2                !
 ! D322  D(38,42,58,59)        138.7957         estimate D2E/DX2                !
 ! D323  D(40,42,58,57)       -146.9078         estimate D2E/DX2                !
 ! D324  D(40,42,58,59)         -5.0872         estimate D2E/DX2                !
 ! D325  D(41,43,46,44)          0.0501         estimate D2E/DX2                !
 ! D326  D(41,43,46,61)       -142.1419         estimate D2E/DX2                !
 ! D327  D(59,43,46,44)        142.4702         estimate D2E/DX2                !
 ! D328  D(59,43,46,61)          0.2782         estimate D2E/DX2                !
 ! D329  D(41,43,59,58)          0.7968         estimate D2E/DX2                !
 ! D330  D(41,43,59,65)        143.6171         estimate D2E/DX2                !
 ! D331  D(46,43,59,58)       -141.3821         estimate D2E/DX2                !
 ! D332  D(46,43,59,65)          1.4382         estimate D2E/DX2                !
 ! D333  D(26,44,45,28)         -0.2753         estimate D2E/DX2                !
 ! D334  D(26,44,45,48)       -142.8178         estimate D2E/DX2                !
 ! D335  D(46,44,45,28)        139.8104         estimate D2E/DX2                !
 ! D336  D(46,44,45,48)         -2.7322         estimate D2E/DX2                !
 ! D337  D(26,44,46,43)          1.3988         estimate D2E/DX2                !
 ! D338  D(26,44,46,61)        139.1938         estimate D2E/DX2                !
 ! D339  D(45,44,46,43)       -133.3989         estimate D2E/DX2                !
 ! D340  D(45,44,46,61)          4.3961         estimate D2E/DX2                !
 ! D341  D(28,45,48,47)         -1.7026         estimate D2E/DX2                !
 ! D342  D(28,45,48,62)       -140.7332         estimate D2E/DX2                !
 ! D343  D(44,45,48,47)        136.8129         estimate D2E/DX2                !
 ! D344  D(44,45,48,62)         -2.2177         estimate D2E/DX2                !
 ! D345  D(43,46,61,62)        140.9846         estimate D2E/DX2                !
 ! D346  D(43,46,61,65)         -1.8949         estimate D2E/DX2                !
 ! D347  D(44,46,61,62)         -1.155          estimate D2E/DX2                !
 ! D348  D(44,46,61,65)       -144.0345         estimate D2E/DX2                !
 ! D349  D(30,47,48,45)         -2.6422         estimate D2E/DX2                !
 ! D350  D(30,47,48,62)        140.3208         estimate D2E/DX2                !
 ! D351  D(50,47,48,45)       -148.8849         estimate D2E/DX2                !
 ! D352  D(50,47,48,62)         -5.9219         estimate D2E/DX2                !
 ! D353  D(30,47,50,49)          2.9557         estimate D2E/DX2                !
 ! D354  D(30,47,50,63)       -140.4044         estimate D2E/DX2                !
 ! D355  D(48,47,50,49)        149.1862         estimate D2E/DX2                !
 ! D356  D(48,47,50,63)          5.8261         estimate D2E/DX2                !
 ! D357  D(45,48,62,61)          5.4562         estimate D2E/DX2                !
 ! D358  D(45,48,62,63)        147.1563         estimate D2E/DX2                !
 ! D359  D(47,48,62,61)       -137.9815         estimate D2E/DX2                !
 ! D360  D(47,48,62,63)          3.7186         estimate D2E/DX2                !
 ! D361  D(31,49,50,47)          1.8791         estimate D2E/DX2                !
 ! D362  D(31,49,50,63)        140.6323         estimate D2E/DX2                !
 ! D363  D(54,49,50,47)       -136.4563         estimate D2E/DX2                !
 ! D364  D(54,49,50,63)          2.2968         estimate D2E/DX2                !
 ! D365  D(31,49,54,51)          1.2243         estimate D2E/DX2                !
 ! D366  D(31,49,54,56)       -140.6855         estimate D2E/DX2                !
 ! D367  D(50,49,54,51)        143.8464         estimate D2E/DX2                !
 ! D368  D(50,49,54,56)          1.9366         estimate D2E/DX2                !
 ! D369  D(47,50,63,62)         -3.5746         estimate D2E/DX2                !
 ! D370  D(47,50,63,64)        138.0108         estimate D2E/DX2                !
 ! D371  D(49,50,63,62)       -146.1203         estimate D2E/DX2                !
 ! D372  D(49,50,63,64)         -4.5349         estimate D2E/DX2                !
 ! D373  D(34,51,52,36)          2.1288         estimate D2E/DX2                !
 ! D374  D(34,51,52,53)       -137.4404         estimate D2E/DX2                !
 ! D375  D(54,51,52,36)        139.5994         estimate D2E/DX2                !
 ! D376  D(54,51,52,53)          0.0301         estimate D2E/DX2                !
 ! D377  D(34,51,54,49)          2.9859         estimate D2E/DX2                !
 ! D378  D(34,51,54,56)        144.7614         estimate D2E/DX2                !
 ! D379  D(52,51,54,49)       -138.9948         estimate D2E/DX2                !
 ! D380  D(52,51,54,56)          2.7808         estimate D2E/DX2                !
 ! D381  D(36,52,53,37)         -3.1792         estimate D2E/DX2                !
 ! D382  D(36,52,53,55)       -146.498          estimate D2E/DX2                !
 ! D383  D(51,52,53,37)        140.3325         estimate D2E/DX2                !
 ! D384  D(51,52,53,55)         -2.9863         estimate D2E/DX2                !
 ! D385  D(37,53,55,56)       -135.1437         estimate D2E/DX2                !
 ! D386  D(37,53,55,60)          2.8322         estimate D2E/DX2                !
 ! D387  D(52,53,55,56)          3.1606         estimate D2E/DX2                !
 ! D388  D(52,53,55,60)        141.1366         estimate D2E/DX2                !
 ! D389  D(49,54,56,55)        134.9036         estimate D2E/DX2                !
 ! D390  D(49,54,56,64)         -3.9334         estimate D2E/DX2                !
 ! D391  D(51,54,56,55)         -2.6052         estimate D2E/DX2                !
 ! D392  D(51,54,56,64)       -141.4423         estimate D2E/DX2                !
 ! D393  D(53,55,56,54)         -0.3752         estimate D2E/DX2                !
 ! D394  D(53,55,56,64)        142.9391         estimate D2E/DX2                !
 ! D395  D(60,55,56,54)       -142.6756         estimate D2E/DX2                !
 ! D396  D(60,55,56,64)          0.6386         estimate D2E/DX2                !
 ! D397  D(53,55,60,57)         -1.4339         estimate D2E/DX2                !
 ! D398  D(53,55,60,66)       -144.3506         estimate D2E/DX2                !
 ! D399  D(56,55,60,57)        141.238          estimate D2E/DX2                !
 ! D400  D(56,55,60,66)         -1.6787         estimate D2E/DX2                !
 ! D401  D(54,56,64,63)          1.6951         estimate D2E/DX2                !
 ! D402  D(54,56,64,66)        143.7488         estimate D2E/DX2                !
 ! D403  D(55,56,64,63)       -141.4121         estimate D2E/DX2                !
 ! D404  D(55,56,64,66)          0.6415         estimate D2E/DX2                !
 ! D405  D(39,57,58,42)         -0.6997         estimate D2E/DX2                !
 ! D406  D(39,57,58,59)       -142.3039         estimate D2E/DX2                !
 ! D407  D(60,57,58,42)        141.9723         estimate D2E/DX2                !
 ! D408  D(60,57,58,59)          0.3681         estimate D2E/DX2                !
 ! D409  D(39,57,60,55)         -2.8348         estimate D2E/DX2                !
 ! D410  D(39,57,60,66)        135.5464         estimate D2E/DX2                !
 ! D411  D(58,57,60,55)       -140.9382         estimate D2E/DX2                !
 ! D412  D(58,57,60,66)         -2.557          estimate D2E/DX2                !
 ! D413  D(42,58,59,43)          3.2166         estimate D2E/DX2                !
 ! D414  D(42,58,59,65)       -135.1876         estimate D2E/DX2                !
 ! D415  D(57,58,59,43)        140.3028         estimate D2E/DX2                !
 ! D416  D(57,58,59,65)          1.8986         estimate D2E/DX2                !
 ! D417  D(43,59,65,61)         -2.6102         estimate D2E/DX2                !
 ! D418  D(43,59,65,66)       -144.98           estimate D2E/DX2                !
 ! D419  D(58,59,65,61)        140.3836         estimate D2E/DX2                !
 ! D420  D(58,59,65,66)         -1.9862         estimate D2E/DX2                !
 ! D421  D(55,60,66,64)          2.0829         estimate D2E/DX2                !
 ! D422  D(55,60,66,65)        144.783          estimate D2E/DX2                !
 ! D423  D(57,60,66,64)       -140.2363         estimate D2E/DX2                !
 ! D424  D(57,60,66,65)          2.4638         estimate D2E/DX2                !
 ! D425  D(46,61,62,48)         -3.8094         estimate D2E/DX2                !
 ! D426  D(46,61,62,63)       -140.5523         estimate D2E/DX2                !
 ! D427  D(65,61,62,48)        134.9225         estimate D2E/DX2                !
 ! D428  D(65,61,62,63)         -1.8203         estimate D2E/DX2                !
 ! D429  D(46,61,65,59)          2.7892         estimate D2E/DX2                !
 ! D430  D(46,61,65,66)        145.2739         estimate D2E/DX2                !
 ! D431  D(62,61,65,59)       -140.5286         estimate D2E/DX2                !
[...]
 Alpha virt. eigenvalues --    1.20896   1.21767   1.22361   1.22633   1.22942
 Alpha virt. eigenvalues --    1.23347   1.24049   1.24187   1.24527   1.25229
 Alpha virt. eigenvalues --    1.25834   1.26297   1.26523   1.27125   1.27323
 Alpha virt. eigenvalues --    1.27782   1.27831   1.28038   1.28497   1.29066
 Alpha virt. eigenvalues --    1.29826   1.30248   1.30918   1.31125   1.31484
 Alpha virt. eigenvalues --    1.31901   1.32029   1.32391   1.32507   1.32858
 Alpha virt. eigenvalues --    1.33029   1.33475   1.33865   1.34355   1.34892
 Alpha virt. eigenvalues --    1.34965   1.35530   1.36253   1.36469   1.36735
 Alpha virt. eigenvalues --    1.36859   1.37493   1.37825   1.38170   1.38755
 Alpha virt. eigenvalues --    1.38813   1.38983   1.39478   1.39750   1.40396
 Alpha virt. eigenvalues --    1.40616   1.40777   1.41068   1.41225   1.41457
 Alpha virt. eigenvalues --    1.41555   1.41687   1.42213   1.42448   1.42958
 Alpha virt. eigenvalues --    1.43020   1.43402   1.43419   1.43780   1.44156
 Alpha virt. eigenvalues --    1.44552   1.44713   1.44987   1.45028   1.45244
 Alpha virt. eigenvalues --    1.45627   1.46069   1.46174   1.46308   1.46349
 Alpha virt. eigenvalues --    1.46719   1.46943   1.47270   1.47535   1.48059
 Alpha virt. eigenvalues --    1.48180   1.48348   1.48568   1.48781   1.49234
 Alpha virt. eigenvalues --    1.49441   1.49618   1.49976   1.50146   1.50298
 Alpha virt. eigenvalues --    1.50584   1.50911   1.51321   1.51651   1.51923
 Alpha virt. eigenvalues --    1.52238   1.52446   1.52667   1.53223   1.53301
 Alpha virt. eigenvalues --    1.53563   1.53754   1.54236   1.54875   1.55056
 Alpha virt. eigenvalues --    1.55300   1.55541   1.55999   1.56240   1.56704
 Alpha virt. eigenvalues --    1.56921   1.57602   1.57816   1.58616   1.58804
 Alpha virt. eigenvalues --    1.59325   1.59897   1.60141   1.60514   1.60686
 Alpha virt. eigenvalues --    1.61115   1.61382   1.61855   1.62209   1.62454
 Alpha virt. eigenvalues --    1.62749   1.63326   1.63605   1.64295   1.64411
 Alpha virt. eigenvalues --    1.64905   1.65692   1.65927   1.66157   1.66384
 Alpha virt. eigenvalues --    1.66614   1.66896   1.67015   1.67613   1.67900
 Alpha virt. eigenvalues --    1.68183   1.68456   1.68905   1.69712   1.69858
 Alpha virt. eigenvalues --    1.70264   1.70511   1.71013   1.71327   1.71555
 Alpha virt. eigenvalues --    1.71924   1.72592   1.72921   1.73372   1.73534
 Alpha virt. eigenvalues --    1.73568   1.74246   1.74730   1.74996   1.75411
 Alpha virt. eigenvalues --    1.75571   1.76260   1.76422   1.76744   1.77233
 Alpha virt. eigenvalues --    1.77438   1.78132   1.78555   1.78776   1.79109
 Alpha virt. eigenvalues --    1.79695   1.79947   1.80764   1.80961   1.81236
 Alpha virt. eigenvalues --    1.81617   1.82051   1.82992   1.83213   1.84057
 Alpha virt. eigenvalues --    1.84753   1.85308   1.85727   1.86099   1.86397
 Alpha virt. eigenvalues --    1.87308   1.87808   1.87991   1.88705   1.88853
 Alpha virt. eigenvalues --    1.89564   1.89984   1.90397   1.90639   1.91250
 Alpha virt. eigenvalues --    1.91822   1.92074   1.92566   1.92887   1.93577
 Alpha virt. eigenvalues --    1.93719   1.94255   1.95088   1.95588   1.96002
 Alpha virt. eigenvalues --    1.96362   1.96953   1.97322   1.97999   1.98485
 Alpha virt. eigenvalues --    1.99202   1.99860   2.00409   2.00606   2.00871
 Alpha virt. eigenvalues --    2.01079   2.01444   2.01826   2.01954   2.02216
 Alpha virt. eigenvalues --    2.02678   2.03085   2.03452   2.04193   2.04576
 Alpha virt. eigenvalues --    2.05975   2.05996   2.06478   2.06620   2.07132
 Alpha virt. eigenvalues --    2.07420   2.07601   2.08494   2.09049   2.09126
 Alpha virt. eigenvalues --    2.09345   2.09882   2.10130   2.10674   2.11165
 Alpha virt. eigenvalues --    2.11419   2.11560   2.12206   2.12736   2.12874
 Alpha virt. eigenvalues --    2.13746   2.14311   2.14564   2.15126   2.15645
 Alpha virt. eigenvalues --    2.16077   2.16465   2.17310   2.17524   2.18076
 Alpha virt. eigenvalues --    2.18293   2.18785   2.19361   2.19856   2.20212
 Alpha virt. eigenvalues --    2.20426   2.21423   2.22114   2.22459   2.22764
 Alpha virt. eigenvalues --    2.23109   2.23255   2.23721   2.24327   2.24664
 Alpha virt. eigenvalues --    2.25308   2.25381   2.25552   2.25699   2.26672
 Alpha virt. eigenvalues --    2.26816   2.27244   2.27519   2.27750   2.28084
 Alpha virt. eigenvalues --    2.28323   2.28478   2.29531   2.30169   2.30447
 Alpha virt. eigenvalues --    2.30569   2.31525   2.32036   2.32093   2.32968
 Alpha virt. eigenvalues --    2.33350   2.33628   2.34355   2.34631   2.35090
 Alpha virt. eigenvalues --    2.35331   2.36088   2.36434   2.37087   2.37310
 Alpha virt. eigenvalues --    2.38039   2.38551   2.38695   2.39343   2.39667
 Alpha virt. eigenvalues --    2.40092   2.40582   2.40674   2.41058   2.41534
 Alpha virt. eigenvalues --    2.41617   2.42390   2.42743   2.43021   2.43676
 Alpha virt. eigenvalues --    2.43858   2.44450   2.45264   2.45449   2.45589
 Alpha virt. eigenvalues --    2.46312   2.47043   2.47262   2.48281   2.48568
 Alpha virt. eigenvalues --    2.49047   2.49520   2.50301   2.50413   2.50929
 Alpha virt. eigenvalues --    2.51159   2.51928   2.52943   2.53491   2.53810
 Alpha virt. eigenvalues --    2.54094   2.54778   2.54825   2.54871   2.55659
 Alpha virt. eigenvalues --    2.56055   2.56399   2.56860   2.57628   2.57986
 Alpha virt. eigenvalues --    2.58202   2.58579   2.58904   2.59623   2.60315
 Alpha virt. eigenvalues --    2.60902   2.61170   2.62177   2.62209   2.62440
 Alpha virt. eigenvalues --    2.63262   2.63824   2.64403   2.64763   2.65165
 Alpha virt. eigenvalues --    2.66319   2.67095   2.68452   2.69075   2.69901
 Alpha virt. eigenvalues --    2.70553   2.70944   2.71593   2.72586   2.72906
 Alpha virt. eigenvalues --    2.73840   2.74533   2.75273   2.76666   2.77041
 Alpha virt. eigenvalues --    2.77279   2.78806   2.79476   2.80208   2.80948
 Alpha virt. eigenvalues --    2.81326   2.82092   2.82752   2.83726   2.84088
 Alpha virt. eigenvalues --    2.84441   2.85689   2.86246   2.87080   2.87508
 Alpha virt. eigenvalues --    2.88462   2.88932   2.90850   2.91370   2.91901
 Alpha virt. eigenvalues --    2.92951   2.93033   2.93519   2.93681   2.94406
 Alpha virt. eigenvalues --    2.94660   2.95222   2.95767   2.95944   2.96402
 Alpha virt. eigenvalues --    2.97228   2.97526   2.97674   2.97820   2.98810
 Alpha virt. eigenvalues --    2.98953   2.99271   2.99774   3.00072   3.00216
 Alpha virt. eigenvalues --    3.00859   3.01139   3.01627   3.01937   3.02789
 Alpha virt. eigenvalues --    3.02941   3.02998   3.03782   3.04066   3.04322
 Alpha virt. eigenvalues --    3.04678   3.04745   3.05096   3.05353   3.05542
 Alpha virt. eigenvalues --    3.05891   3.06716   3.07437   3.07967   3.08582
 Alpha virt. eigenvalues --    3.09020   3.09334   3.09775   3.09995   3.10169
 Alpha virt. eigenvalues --    3.10342   3.10603   3.11126   3.11493   3.11721
 Alpha virt. eigenvalues --    3.12215   3.12387   3.12444   3.12880   3.12931
 Alpha virt. eigenvalues --    3.13365   3.13770   3.14048   3.14383   3.14776
 Alpha virt. eigenvalues --    3.15235   3.15932   3.16555   3.17109   3.17451
 Alpha virt. eigenvalues --    3.18088   3.18388   3.18417   3.18951   3.19803
 Alpha virt. eigenvalues --    3.20389   3.21039   3.21750   3.22687   3.24122
 Alpha virt. eigenvalues --    3.24812   3.25634   3.26707   3.29609   3.30401
 Alpha virt. eigenvalues --    3.34805   3.37805   3.38081   3.39116   3.40758
 Alpha virt. eigenvalues --    3.42379   3.42653   3.44157   3.45941   3.46340
 Alpha virt. eigenvalues --    3.47750   3.48041   3.48651   3.50616   3.51340
 Alpha virt. eigenvalues --    3.51745   3.52218   3.52278   3.53956   3.55186
 Alpha virt. eigenvalues --    3.56064   3.56624   3.56946   3.57857   3.59358
 Alpha virt. eigenvalues --    3.61070   3.61684   3.61956   3.62196   3.63543
 Alpha virt. eigenvalues --    3.65272   3.65642   3.67016   3.68450   3.68980
 Alpha virt. eigenvalues --    3.69747   3.70871   3.71899   3.72374   3.72643
 Alpha virt. eigenvalues --    3.74050   3.75298   3.75997   3.77965   3.78444
 Alpha virt. eigenvalues --    3.80687   3.82210   3.83294   3.83721   3.83982
 Alpha virt. eigenvalues --    3.84682   3.85775   3.86748   3.87625   3.87892
 Alpha virt. eigenvalues --    3.88111   3.88478   3.88842   3.89198   3.89862
 Alpha virt. eigenvalues --    3.91048   3.92333   3.94356   4.01394   4.06433
 Alpha virt. eigenvalues --    4.18510   4.21157   4.22630   4.23167   4.24059
 Alpha virt. eigenvalues --    4.27624   4.31938   4.34843   4.35716   4.36890
 Alpha virt. eigenvalues --    4.37308   4.39888   4.43018   4.45624   4.48433
 Alpha virt. eigenvalues --    4.50810   4.54176   4.56280   4.59061   4.60175
 Alpha virt. eigenvalues --    4.62718   4.65433   4.66963   4.71417   4.78990
 Alpha virt. eigenvalues --    4.80701   4.83403   4.86568   4.87772   4.94032
 Alpha virt. eigenvalues --    4.97969   5.01362   5.02028   5.03605   9.48400
 Alpha virt. eigenvalues --    9.56500   9.57811   9.63548   9.64519   9.67411
 Alpha virt. eigenvalues --    9.71769   9.75570  23.00034  23.19926  23.21277
 Alpha virt. eigenvalues --   23.24067  23.41938  23.43726  23.45602  23.48890
 Alpha virt. eigenvalues --   23.52288  23.59668  23.61438  23.65032  23.66453
 Alpha virt. eigenvalues --   23.68764  23.69788  23.71051  23.72945  23.74218
 Alpha virt. eigenvalues --   23.74669  23.77079  23.79016  23.79725  23.80161
 Alpha virt. eigenvalues --   23.81089  23.82921  23.85030  23.85168  23.87652
 Alpha virt. eigenvalues --   23.88856  23.89457  23.90447  23.91624  23.92620
 Alpha virt. eigenvalues --   23.93076  23.94547  23.94669  23.95397  23.95578
 Alpha virt. eigenvalues --   23.96480  23.97250  23.97415  23.97766  23.98589
 Alpha virt. eigenvalues --   23.99534  23.99932  24.01299  24.02157  24.03161
 Alpha virt. eigenvalues --   24.04139  24.05052  24.06135  24.07199  24.07703
 Alpha virt. eigenvalues --   24.08450  24.08754  24.09329  24.09527  24.09912
 Alpha virt. eigenvalues --   24.10497  24.11044  24.11476  24.12493  24.13617
 Alpha virt. eigenvalues --   24.15175  24.16118  24.21089  25.48330  25.55330
 Alpha virt. eigenvalues --   25.62965  25.65235  25.68950  25.69654  25.74759
 Alpha virt. eigenvalues --   25.76734  25.78795  25.83043  25.85292  25.88970
 Alpha virt. eigenvalues --   25.91607  25.92051  25.98266  25.99390  26.09967
 Alpha virt. eigenvalues --   26.23359  26.25035  26.36545  26.40401  26.54597
 Alpha virt. eigenvalues --   26.58291  26.74778 215.42592 215.51975 215.53439
 Alpha virt. eigenvalues --  215.59895 215.61178 215.64382 215.69619 215.73631
          Condensed to atoms (all electrons):
 Mulliken charges:
               1
     1  C   -0.139762
     2  C   -0.270988
     3  C   -0.463647
     4  C   -0.476569
     5  C    0.381511
     6  C    0.170517
     7  C   -0.508847
     8  C    0.196428
     9  C    0.159031
    10  C    0.030270
    11  C    0.089812
    12  C    0.176536
    13  C    0.073809
    14  C    0.156582
    15  C    0.372885
    16  C   -0.654405
    17  C    0.249720
    18  C   -0.674331
    19  C    0.121206
    20  C    0.074018
    21  C    0.080529
    22  C    0.024010
    23  C    0.015982
    24  C    0.008459
    25  C   -0.012312
    26  C    0.002716
    27  C    0.017332
    28  C    0.006767
    29  C    0.058767
    30  C    0.032932
    31  C   -0.016693
    32  C    0.164190
    33  C    0.188224
    34  C    0.027337
    35  C   -0.656369
    36  C    0.192016
    37  C    0.150155
    38  C   -0.017350
    39  C    0.023094
    40  C   -0.007005
    41  C    0.005858
    42  C    0.000524
    43  C    0.002328
    44  C   -0.000437
    45  C   -0.003443
    46  C    0.005732
    47  C   -0.003216
    48  C    0.000709
    49  C   -0.003003
    50  C   -0.002395
    51  C    0.003900
    52  C    0.043684
    53  C    0.030154
    54  C    0.002113
    55  C   -0.004387
    56  C    0.005940
    57  C    0.000115
    58  C    0.000970
    59  C    0.003734
    60  C    0.009031
    61  C    0.003208
    62  C    0.001804
    63  C    0.001409
    64  C    0.004589
    65  C    0.004182
    66  C   -0.001661
    67  Cl   0.104434
    68  Cl   0.082237
    69  Cl   0.079162
    70  Cl   0.038852
    71  Cl   0.081172
    72  Cl   0.060234
    73  Cl   0.060597
    74  Cl   0.035310
 Sum of Mulliken charges =  -0.00000
 Mulliken charges with hydrogens summed into heavy atoms:
               1
     1  C   -0.139762
     2  C   -0.270988
     3  C   -0.463647
     4  C   -0.476569
     5  C    0.381511
     6  C    0.170517
     7  C   -0.508847
     8  C    0.196428
     9  C    0.159031
    10  C    0.030270
    11  C    0.089812
    12  C    0.176536
    13  C    0.073809
    14  C    0.156582
    15  C    0.372885
    16  C   -0.654405
    17  C    0.249720
    18  C   -0.674331
    19  C    0.121206
    20  C    0.074018
    21  C    0.080529
    22  C    0.024010
    23  C    0.015982
    24  C    0.008459
    25  C   -0.012312
    26  C    0.002716
    27  C    0.017332
    28  C    0.006767
    29  C    0.058767
    30  C    0.032932
    31  C   -0.016693
    32  C    0.164190
    33  C    0.188224
    34  C    0.027337
    35  C   -0.656369
    36  C    0.192016
    37  C    0.150155
    38  C   -0.017350
    39  C    0.023094
    40  C   -0.007005
    41  C    0.005858
    42  C    0.000524
    43  C    0.002328
    44  C   -0.000437
    45  C   -0.003443
    46  C    0.005732
    47  C   -0.003216
    48  C    0.000709
    49  C   -0.003003
    50  C   -0.002395
    51  C    0.003900
    52  C    0.043684
    53  C    0.030154
    54  C    0.002113
    55  C   -0.004387
    56  C    0.005940
    57  C    0.000115
    58  C    0.000970
    59  C    0.003734
    60  C    0.009031
    61  C    0.003208
    62  C    0.001804
    63  C    0.001409
    64  C    0.004589
    65  C    0.004182
    66  C   -0.001661
    67  Cl   0.104434
    68  Cl   0.082237
    69  Cl   0.079162
    70  Cl   0.038852
    71  Cl   0.081172
    72  Cl   0.060234
    73  Cl   0.060597
    74  Cl   0.035310
 Electronic spatial extent (au):  <R**2>=          35924.4632
 Charge=              0.0000 electrons
 Dipole moment (field-independent basis, Debye):
    X=              5.4955    Y=             -2.3931    Z=              1.1539  Tot=              6.1040
 Quadrupole moment (field-independent basis, Debye-Ang):
   XX=           -480.7419   YY=           -481.9700   ZZ=           -478.3561
   XY=              0.8415   XZ=              0.2545   YZ=              0.4923
 Traceless Quadrupole moment (field-independent basis, Debye-Ang):
   XX=             -0.3859   YY=             -1.6140   ZZ=              1.9999
   XY=              0.8415   XZ=              0.2545   YZ=              0.4923
 Octapole moment (field-independent basis, Debye-Ang**2):
  XXX=           -134.2843  YYY=              2.0490  ZZZ=            -17.6269  XYY=            -35.5051
  XXY=             14.6428  XXZ=             -9.3596  XZZ=            -49.1116  YZZ=             -5.9294
  YYZ=              7.8201  XYZ=             17.6948
 Hexadecapole moment (field-independent basis, Debye-Ang**3):
 XXXX=         -24150.3102 YYYY=         -15717.3444 ZZZZ=         -12400.3118 XXXY=             37.8582
 XXXZ=            -13.0675 YYYX=             62.3196 YYYZ=             -2.6185 ZZZX=            -13.0201
 ZZZY=            -21.4683 XXYY=          -6627.1980 XXZZ=          -6101.3786 YYZZ=          -4725.7237
 XXYZ=            -17.3093 YYXZ=             12.6742 ZZXY=             -6.9442
 N-N= 1.536002975211D+04 E-N=-4.529722160133D+04  KE= 6.178380671539D+03
 No NMR shielding tensors so no spin-rotation constants.
 Leave Link  601 at Fri Jul 15 22:28:10 2022, MaxMem=  1342177280 cpu:              59.7 elap:               1.5
 (Enter /home/mkliu/g16/l9999.exe)
 1\1\GINC-NODE03\FOpt\RB3LYP\6-311G(d,p)\C66Cl8\MKLIU\15-Jul-2022\0\\#P
  opt b3lyp/6-311G(d, p) empiricaldispersion=GD3\\force\\0,1\C,-1.37155
 15062,1.9397847267,-4.0469931724\C,0.2045462271,2.2250787838,-3.954091
 0013\C,0.9663875372,0.8658468261,-4.268163662\C,-1.4756496659,0.347833
 6146,-4.1760127596\C,-0.0827460267,-0.1855605718,-4.1583300312\C,-2.13
 77762734,-0.1169014406,-2.9154259997\C,-2.192504498,2.2747093794,-2.68
 88518531\C,-2.5957396596,0.9157596029,-2.1593652729\C,-1.4491980421,2.
 9888855953,-1.5552271097\C,0.7160414429,2.5641597312,-2.5922763179\C,-
 0.0254081594,3.2105910234,-1.5854227697\C,1.9360874819,0.6919192378,-3
 .10755904\C,1.8776384866,1.8544694885,-2.2778103499\C,2.2861696645,-0.
 5133143183,-2.572823349\C,0.1940527251,-1.3834069208,-3.6575513087\C,1
 .5860412989,-1.749181766,-3.154796445\C,-1.9451638121,-1.4191091225,-2
 .3749793177\C,-0.8820067936,-2.2845628288,-3.0642845659\C,-2.424295104
 4,-1.6995147782,-1.1043437023\C,-3.0367166963,0.7022346651,-0.82681518
 72\C,-3.0257343068,-0.6462046186,-0.3044552443\C,-2.0562455744,2.92251
 53054,-0.3141827515\C,-2.9666615167,1.8111593564,0.0463393867\C,-1.381
 3679775,3.3045963635,0.899425435\C,0.670533604,3.4618861004,-0.3775941
 346\C,-0.0245705869,3.6066355059,0.8712401033\C,2.4603782782,1.8825002
 253,-0.9844717816\C,1.9425705264,2.8490779364,-0.1021649997\C,2.921822
 8979,-0.5602481931,-1.2519695263\C,3.0758346843,0.6676158508,-0.477680
 0699\C,2.946234906,-1.7857793291,-0.5522712127\C,1.2654266624,-2.75154
 06473,-2.0875663433\C,-0.1105800672,-3.0592343933,-2.0407332628\C,2.04
 17678145,-2.8707528907,-0.9578730317\C,-2.0771566398,-3.0456429262,-0.
 4528195735\C,-0.6906283057,-3.4988768947,-0.8771607687\C,-1.9139349436
 ,-2.9501190394,1.0553209009\C,-3.1204722974,-0.8041646016,1.104686261\
 C,-2.5008823774,-1.95030516,1.7792611863\C,-2.8942607197,1.61212024,1.
 4374337584\C,-1.9223461654,2.5397809661,2.0005146422\C,-3.0056237343,0
 .3139097553,1.9665614562\C,-1.1065297642,2.1391500677,3.0478361108\C,0
 .8373048057,3.1522594102,1.9400055576\C,2.0640963262,2.6898675103,1.32
 36330898\C,0.3093148359,2.4535556521,3.0216934393\C,3.274956642,0.5836
 742292,0.9243935467\C,2.7322571773,1.5896899155,1.8252853826\C,3.04196
 41486,-1.8363930586,0.8703227775\C,3.2280508597,-0.6703118697,1.606651
 0065\C,1.4950891605,-3.4609847489,0.2188506686\C,0.1197487066,-3.74504
 84582,0.2579453644\C,-0.6377845266,-3.4603696776,1.4572695854\C,2.1344
 966331,-2.8629893776,1.3687177162\C,0.002025739,-2.9662763699,2.595050
 3583\C,1.4234748785,-2.6510575053,2.5395124553\C,-1.8955307176,-1.4743
 976062,3.0007654157\C,-2.2050149965,-0.0698422391,3.1254200466\C,-1.25
 87474533,0.8113549772,3.6328374808\C,-0.646275729,-1.9610956527,3.3945
 347988\C,1.0282136558,1.3240994781,3.5775739115\C,2.2404275766,0.91951
 8119,3.0110267705\C,2.5464547591,-0.4858610332,2.8759894703\C,1.640371
 7767,-1.4459043327,3.32114192\C,0.0616524914,0.325346251,3.9881271312\
 C,0.3637324023,-1.0315166416,3.86769981\Cl,-2.0620349993,2.7597430608,
 -5.4710418477\Cl,0.7713532619,3.6274811459,-4.9669778087\Cl,1.80472087
 54,0.7831147929,-5.8728154485\Cl,2.6077465882,-2.5395286386,-4.4865968
 307\Cl,-2.403951953,-0.268214484,-5.6188573671\Cl,-1.6246603626,-3.428
 3915737,-4.3052249803\Cl,-3.7260938982,3.2608437508,-2.9953022268\Cl,-
 3.3980792504,-4.270232479,-0.8871843792\\Version=ES64L-G16RevA.03\Stat
 e=1-A\HF=-6197.2217365\RMSD=5.651e-09\RMSF=3.788e-05\Dipole=0.6640313,
 0.4537813,2.2628082\Quadrupole=1.5291891,-0.9146354,-0.6145538,-0.3472
 993,-0.0762402,-0.7245022\PG=C01 [X(C66Cl8)]\\@


 ... THE UNIVERSE IS NOT ONLY QUEERER THAN WE SUPPOSE,
 BUT QUEERER THAN WE CAN SUPPOSE ... 

                                   -- J. B. S. HALDANE
 Job cpu time:       2 days 17 hours 56 minutes 49.5 seconds.
 Elapsed time:       0 days  1 hours 22 minutes 41.7 seconds.
 File lengths (MBytes):  RWF=   1193 Int=      0 D2E=      0 Chk=    146 Scr=      1
 Normal termination of Gaussian 16 at Fri Jul 15 22:28:12 2022.
