 Entering Gaussian System, Link 0=g16
 Input=dr1gmkpp2a29s_addon_8.gjf
 Output=dr1gmkpp2a29s_addon_8.log
 Initial command:
 /home/mkliu/g16/l1.exe "/data/scratch/Gau-211908.inp" -scrdir="/data/scratch/"
 Entering Link 1 = /home/mkliu/g16/l1.exe PID=    211909.
  
 Copyright (c) 1988,1990,1992,1993,1995,1998,2003,2009,2016,
            Gaussian, Inc.  All Rights Reserved.
  
 This is part of the Gaussian(R) 16 program.  It is based on
 the Gaussian(R) 09 system (copyright 2009, Gaussian, Inc.),
 the Gaussian(R) 03 system (copyright 2003, Gaussian, Inc.),
 the Gaussian(R) 98 system (copyright 1998, Gaussian, Inc.),
 the Gaussian(R) 94 system (copyright 1995, Gaussian, Inc.),
 the Gaussian 92(TM) system (copyright 1992, Gaussian, Inc.),
 the Gaussian 90(TM) system (copyright 1990, Gaussian, Inc.),
 the Gaussian 88(TM) system (copyright 1988, Gaussian, Inc.),
 the Gaussian 86(TM) system (copyright 1986, Carnegie Mellon
 University), and the Gaussian 82(TM) system (copyright 1983,
 Carnegie Mellon University). Gaussian is a federally registered
 trademark of Gaussian, Inc.
  
 This software contains proprietary and confidential information,
 including trade secrets, belonging to Gaussian, Inc.
  
 This software is provided under written license and may be
 used, copied, transmitted, or stored only in accord with that
 written license.
  
 The following legend is applicable only to US Government
 contracts under FAR:
  
                    RESTRICTED RIGHTS LEGEND
  
 Use, reproduction and disclosure by the US Government is
 subject to restrictions as set forth in subparagraphs (a)
 and (c) of the Commercial Computer Software - Restricted
 Rights clause in FAR 52.227-19.
  
 Gaussian, Inc.
 340 Quinnipiac St., Bldg. 40, Wallingford CT 06492
  
  
 ---------------------------------------------------------------
 Warning -- This program may not be used in any manner that
 competes with the business of Gaussian, Inc. or will provide
 assistance to any competitor of Gaussian, Inc.  The licensee
 of this program is prohibited from giving any competitor of
 Gaussian, Inc. access to this program.  By using this program,
 the user acknowledges that Gaussian, Inc. is engaged in the
 business of creating and licensing software in the field of
 computational chemistry and represents and warrants to the
 licensee that it is not a competitor of Gaussian, Inc. and that
 it will not use this program in any manner prohibited above.
 ---------------------------------------------------------------
  

 Cite this work as:
 Gaussian 16, Revision A.03,
 M. J. Frisch, G. W. Trucks, H. B. Schlegel, G. E. Scuseria, 
 M. A. Robb, J. R. Cheeseman, G. Scalmani, V. Barone, 
 G. A. Petersson, H. Nakatsuji, X. Li, M. Caricato, A. V. Marenich, 
 J. Bloino, B. G. Janesko, R. Gomperts, B. Mennucci, H. P. Hratchian, 
 J. V. Ortiz, A. F. Izmaylov, J. L. Sonnenberg, D. Williams-Young, 
 F. Ding, F. Lipparini, F. Egidi, J. Goings, B. Peng, A. Petrone, 
 T. Henderson, D. Ranasinghe, V. G. Zakrzewski, J. Gao, N. Rega, 
 G. Zheng, W. Liang, M. Hada, M. Ehara, K. Toyota, R. Fukuda, 
 J. Hasegawa, M. Ishida, T. Nakajima, Y. Honda, O. Kitao, H. Nakai, 
 T. Vreven, K. Throssell, J. A. Montgomery, Jr., J. E. Peralta, 
 F. Ogliaro, M. J. Bearpark, J. J. Heyd, E. N. Brothers, K. N. Kudin, 
 V. N. Staroverov, T. A. Keith, R. Kobayashi, J. Normand, 
 K. Raghavachari, A. P. Rendell, J. C. Burant, S. S. Iyengar, 
 J. Tomasi, M. Cossi, J. M. Millam, M. Klene, C. Adamo, R. Cammi, 
 J. W. Ochterski, R. L. Martin, K. Morokuma, O. Farkas, 
 J. B. Foresman, and D. J. Fox, Gaussian, Inc., Wallingford CT, 2016.
 
 ******************************************
 Gaussian 16:  ES64L-G16RevA.03 25-Dec-2016
                15-Jul-2022 
 ******************************************
 %mem=10GB
 %chk=dr1gmkpp2a29s_addon_8.chk
 %nprocshared=48
 Will use up to   48 processors via shared memory.
 -------------------------------------------------
 #P opt b3lyp/6-311G(d, p) empiricaldispersion=GD3
 -------------------------------------------------
 1/18=20,19=15,26=3,38=1/1,3;
 2/9=110,12=2,17=6,18=5,40=1/2;
 3/5=4,6=6,7=101,11=2,25=1,30=1,71=1,74=-5,124=31/1,2,3;
 4//1;
 5/5=2,38=5/2;
 6/7=2,8=2,9=2,10=2,28=1/1;
 7//1,2,3,16;
 1/18=20,19=15,26=3/3(2);
 2/9=110/2;
 99//99;
 2/9=110/2;
 3/5=4,6=6,7=101,11=2,25=1,30=1,71=1,74=-5,124=31/1,2,3;
 4/5=5,16=3,69=1/1;
 5/5=2,38=5/2;
 7//1,2,3,16;
 1/18=20,19=15,26=3/3(-5);
 2/9=110/2;
 6/7=2,8=2,9=2,10=2,19=2,28=1/1;
 99/9=1/99;
 Leave Link    1 at Fri Jul 15 01:37:17 2022, MaxMem=  1342177280 cpu:               2.3 elap:               0.1
 (Enter /home/mkliu/g16/l101.exe)
 -----
 force
 -----
 Symbolic Z-matrix:
 Charge =  0 Multiplicity = 1
 C                    -1.32224   1.89281  -3.96085 
 C                     0.20863   2.2199   -3.95918 
 C                     1.00389   0.91058  -4.34031 
 C                    -1.25946   0.42122  -3.84387 
 C                    -0.03552  -0.11704  -4.08049 
 C                    -2.11518  -0.11728  -2.87147 
 C                    -2.19586   2.274    -2.72431 
 C                    -2.66758   0.93814  -2.12727 
 C                    -1.48376   2.89039  -1.55167 
 C                     0.68573   2.43575  -2.58474 
 C                    -0.06933   3.07417  -1.57571 
 C                     2.18727   0.74874  -3.30366 
 C                     1.8463    1.78522  -2.2918 
 C                     2.32295  -0.58516  -2.59905 
 C                     0.21424  -1.36478  -3.54094 
 C                     1.51801  -1.64498  -2.93131 
 C                    -1.92682  -1.3907   -2.33875 
 C                    -0.76749  -2.05873  -2.82316 
 C                    -2.45743  -1.65823  -1.03507 
 C                    -3.07961   0.7068   -0.841 
 C                    -3.01351  -0.62512  -0.3003 
 C                    -2.09794   2.84031  -0.32512 
 C                    -3.24454   1.91875   0.04641 
 C                    -1.3882    3.1931    0.86698 
 C                     0.62977   3.30409  -0.40798 
 C                    -0.04209   3.47599   0.83034 
 C                     2.44906   1.79613  -1.01399 
 C                     1.9012    2.71789  -0.13897 
 C                     2.98869  -0.6133   -1.29412 
 C                     3.10853   0.60754  -0.52607 
 C                     2.9399   -1.80891  -0.56581 
 C                     1.30208  -2.75489  -2.05172 
 C                    -0.10959  -3.02545  -1.98554 
 C                     2.07154  -2.8899   -0.93084 
 C                    -2.08165  -3.00153  -0.43021 
 C                    -0.70501  -3.45105  -0.83836 
 C                    -1.91811  -2.89268   1.05489 
 C                    -3.38394  -0.8495    1.15312 
 C                    -2.51899  -1.91456   1.77193 
 C                    -2.92449   1.60104   1.47538 
 C                    -1.91727   2.47402   1.98072 
 C                    -3.0168    0.34698   1.98424 
 C                    -1.07116   2.10334   3.01176 
 C                     0.83762   3.07396   1.88441 
 C                     2.04977   2.60379   1.26764 
 C                     0.33482   2.40853   2.97757 
 C                     3.27721   0.53687   0.8675 
 C                     2.7469    1.53037   1.76231 
 C                     3.04431  -1.85763   0.86246 
 C                     3.23488  -0.7042    1.576 
 C                     1.49149  -3.46501   0.24537 
 C                     0.12428  -3.72213   0.28507 
 C                    -0.63761  -3.39211   1.44744 
 C                     2.13719  -2.86622   1.36754 
 C                     0.01562  -2.90041   2.55881 
 C                     1.42609  -2.62464   2.52766 
 C                    -1.86831  -1.42708   2.94897 
 C                    -2.16899  -0.03999   3.07249 
 C                    -1.21111   0.81297   3.58884 
 C                    -0.62611  -1.89678   3.33501 
 C                     1.07825   1.3087    3.52975 
 C                     2.27396   0.89445   2.96069 
 C                     2.57711  -0.4969    2.84461 
 C                     1.6647   -1.43211   3.29213 
 C                     0.10342   0.33603   3.93845 
 C                     0.39335  -1.00717   3.81837 
 Cl                   -2.02113   2.39917  -5.52826 
 Cl                    0.59785   3.64808  -4.95103 
 Cl                    1.53747   0.86928  -6.02987 
 Cl                    3.78359   1.13419  -4.06886 
 Cl                   -3.60097   3.30193  -3.15066 
 Cl                   -4.90073   2.59042  -0.15674 
 Cl                   -5.14966  -1.24043   1.21032 
 Cl                   -3.37906  -4.17327  -0.92899 
 
 ITRead=  0  0  0  0  0  0  0  0  0  0  0  0  0  0  0  0  0  0  0  0
 ITRead=  0  0  0  0  0  0  0  0  0  0  0  0  0  0  0  0  0  0  0  0
 ITRead=  0  0  0  0  0  0  0  0  0  0  0  0  0  0  0  0  0  0  0  0
 ITRead=  0  0  0  0  0  0  0  0  0  0  0  0  0  0
 MicOpt= -1 -1 -1 -1 -1 -1 -1 -1 -1 -1 -1 -1 -1 -1 -1 -1 -1 -1 -1 -1
 MicOpt= -1 -1 -1 -1 -1 -1 -1 -1 -1 -1 -1 -1 -1 -1 -1 -1 -1 -1 -1 -1
 MicOpt= -1 -1 -1 -1 -1 -1 -1 -1 -1 -1 -1 -1 -1 -1 -1 -1 -1 -1 -1 -1
 MicOpt= -1 -1 -1 -1 -1 -1 -1 -1 -1 -1 -1 -1 -1 -1
 NAtoms=     74 NQM=       74 NQMF=       0 NMMI=      0 NMMIF=      0
                NMic=       0 NMicF=      0.
                    Isotopes and Nuclear Properties:
 (Nuclear quadrupole moments (NQMom) in fm**2, nuclear magnetic moments (NMagM)
  in nuclear magnetons)

  Atom         1           2           3           4           5           6           7           8           9          10
 IAtWgt=          12          12          12          12          12          12          12          12          12          12
 AtmWgt=  12.0000000  12.0000000  12.0000000  12.0000000  12.0000000  12.0000000  12.0000000  12.0000000  12.0000000  12.0000000
 NucSpn=           0           0           0           0           0           0           0           0           0           0
 AtZEff=  -0.0000000  -0.0000000  -0.0000000  -0.0000000  -0.0000000  -0.0000000  -0.0000000  -0.0000000  -0.0000000  -0.0000000
 NQMom=    0.0000000   0.0000000   0.0000000   0.0000000   0.0000000   0.0000000   0.0000000   0.0000000   0.0000000   0.0000000
 NMagM=    0.0000000   0.0000000   0.0000000   0.0000000   0.0000000   0.0000000   0.0000000   0.0000000   0.0000000   0.0000000
 AtZNuc=   6.0000000   6.0000000   6.0000000   6.0000000   6.0000000   6.0000000   6.0000000   6.0000000   6.0000000   6.0000000

  Atom        11          12          13          14          15          16          17          18          19          20
 IAtWgt=          12          12          12          12          12          12          12          12          12          12
 AtmWgt=  12.0000000  12.0000000  12.0000000  12.0000000  12.0000000  12.0000000  12.0000000  12.0000000  12.0000000  12.0000000
 NucSpn=           0           0           0           0           0           0           0           0           0           0
 AtZEff=  -0.0000000  -0.0000000  -0.0000000  -0.0000000  -0.0000000  -0.0000000  -0.0000000  -0.0000000  -0.0000000  -0.0000000
 NQMom=    0.0000000   0.0000000   0.0000000   0.0000000   0.0000000   0.0000000   0.0000000   0.0000000   0.0000000   0.0000000
 NMagM=    0.0000000   0.0000000   0.0000000   0.0000000   0.0000000   0.0000000   0.0000000   0.0000000   0.0000000   0.0000000
 AtZNuc=   6.0000000   6.0000000   6.0000000   6.0000000   6.0000000   6.0000000   6.0000000   6.0000000   6.0000000   6.0000000

  Atom        21          22          23          24          25          26          27          28          29          30
 IAtWgt=          12          12          12          12          12          12          12          12          12          12
 AtmWgt=  12.0000000  12.0000000  12.0000000  12.0000000  12.0000000  12.0000000  12.0000000  12.0000000  12.0000000  12.0000000
 NucSpn=           0           0           0           0           0           0           0           0           0           0
 AtZEff=  -0.0000000  -0.0000000  -0.0000000  -0.0000000  -0.0000000  -0.0000000  -0.0000000  -0.0000000  -0.0000000  -0.0000000
 NQMom=    0.0000000   0.0000000   0.0000000   0.0000000   0.0000000   0.0000000   0.0000000   0.0000000   0.0000000   0.0000000
 NMagM=    0.0000000   0.0000000   0.0000000   0.0000000   0.0000000   0.0000000   0.0000000   0.0000000   0.0000000   0.0000000
 AtZNuc=   6.0000000   6.0000000   6.0000000   6.0000000   6.0000000   6.0000000   6.0000000   6.0000000   6.0000000   6.0000000

  Atom        31          32          33          34          35          36          37          38          39          40
 IAtWgt=          12          12          12          12          12          12          12          12          12          12
 AtmWgt=  12.0000000  12.0000000  12.0000000  12.0000000  12.0000000  12.0000000  12.0000000  12.0000000  12.0000000  12.0000000
 NucSpn=           0           0           0           0           0           0           0           0           0           0
 AtZEff=  -0.0000000  -0.0000000  -0.0000000  -0.0000000  -0.0000000  -0.0000000  -0.0000000  -0.0000000  -0.0000000  -0.0000000
 NQMom=    0.0000000   0.0000000   0.0000000   0.0000000   0.0000000   0.0000000   0.0000000   0.0000000   0.0000000   0.0000000
 NMagM=    0.0000000   0.0000000   0.0000000   0.0000000   0.0000000   0.0000000   0.0000000   0.0000000   0.0000000   0.0000000
 AtZNuc=   6.0000000   6.0000000   6.0000000   6.0000000   6.0000000   6.0000000   6.0000000   6.0000000   6.0000000   6.0000000

  Atom        41          42          43          44          45          46          47          48          49          50
 IAtWgt=          12          12          12          12          12          12          12          12          12          12
 AtmWgt=  12.0000000  12.0000000  12.0000000  12.0000000  12.0000000  12.0000000  12.0000000  12.0000000  12.0000000  12.0000000
 NucSpn=           0           0           0           0           0           0           0           0           0           0
 AtZEff=  -0.0000000  -0.0000000  -0.0000000  -0.0000000  -0.0000000  -0.0000000  -0.0000000  -0.0000000  -0.0000000  -0.0000000
 NQMom=    0.0000000   0.0000000   0.0000000   0.0000000   0.0000000   0.0000000   0.0000000   0.0000000   0.0000000   0.0000000
 NMagM=    0.0000000   0.0000000   0.0000000   0.0000000   0.0000000   0.0000000   0.0000000   0.0000000   0.0000000   0.0000000
 AtZNuc=   6.0000000   6.0000000   6.0000000   6.0000000   6.0000000   6.0000000   6.0000000   6.0000000   6.0000000   6.0000000

  Atom        51          52          53          54          55          56          57          58          59          60
 IAtWgt=          12          12          12          12          12          12          12          12          12          12
 AtmWgt=  12.0000000  12.0000000  12.0000000  12.0000000  12.0000000  12.0000000  12.0000000  12.0000000  12.0000000  12.0000000
 NucSpn=           0           0           0           0           0           0           0           0           0           0
 AtZEff=  -0.0000000  -0.0000000  -0.0000000  -0.0000000  -0.0000000  -0.0000000  -0.0000000  -0.0000000  -0.0000000  -0.0000000
 NQMom=    0.0000000   0.0000000   0.0000000   0.0000000   0.0000000   0.0000000   0.0000000   0.0000000   0.0000000   0.0000000
 NMagM=    0.0000000   0.0000000   0.0000000   0.0000000   0.0000000   0.0000000   0.0000000   0.0000000   0.0000000   0.0000000
 AtZNuc=   6.0000000   6.0000000   6.0000000   6.0000000   6.0000000   6.0000000   6.0000000   6.0000000   6.0000000   6.0000000

  Atom        61          62          63          64          65          66          67          68          69          70
 IAtWgt=          12          12          12          12          12          12          35          35          35          35
 AtmWgt=  12.0000000  12.0000000  12.0000000  12.0000000  12.0000000  12.0000000  34.9688527  34.9688527  34.9688527  34.9688527
 NucSpn=           0           0           0           0           0           0           3           3           3           3
 AtZEff=  -0.0000000  -0.0000000  -0.0000000  -0.0000000  -0.0000000  -0.0000000  -0.0000000  -0.0000000  -0.0000000  -0.0000000
 NQMom=    0.0000000   0.0000000   0.0000000   0.0000000   0.0000000   0.0000000  -8.1650000  -8.1650000  -8.1650000  -8.1650000
 NMagM=    0.0000000   0.0000000   0.0000000   0.0000000   0.0000000   0.0000000   0.8218740   0.8218740   0.8218740   0.8218740
 AtZNuc=   6.0000000   6.0000000   6.0000000   6.0000000   6.0000000   6.0000000  17.0000000  17.0000000  17.0000000  17.0000000

  Atom        71          72          73          74
 IAtWgt=          35          35          35          35
 AtmWgt=  34.9688527  34.9688527  34.9688527  34.9688527
 NucSpn=           3           3           3           3
 AtZEff=  -0.0000000  -0.0000000  -0.0000000  -0.0000000
 NQMom=   -8.1650000  -8.1650000  -8.1650000  -8.1650000
 NMagM=    0.8218740   0.8218740   0.8218740   0.8218740
 AtZNuc=  17.0000000  17.0000000  17.0000000  17.0000000
 Leave Link  101 at Fri Jul 15 01:37:18 2022, MaxMem=  1342177280 cpu:              13.1 elap:               0.3
 (Enter /home/mkliu/g16/l103.exe)

 GradGradGradGradGradGradGradGradGradGradGradGradGradGradGradGradGradGrad
 Berny optimization.
 Initialization pass.
                           ----------------------------
                           !    Initial Parameters    !
                           ! (Angstroms and Degrees)  !
 --------------------------                            --------------------------
 ! Name  Definition              Value          Derivative Info.                !
 --------------------------------------------------------------------------------
 ! R1    R(1,2)                  1.5654         estimate D2E/DX2                !
 ! R2    R(1,4)                  1.4776         estimate D2E/DX2                !
 ! R3    R(1,7)                  1.5613         estimate D2E/DX2                !
 ! R4    R(1,67)                 1.7893         estimate D2E/DX2                !
 ! R5    R(2,3)                  1.5786         estimate D2E/DX2                !
 ! R6    R(2,10)                 1.4708         estimate D2E/DX2                !
 ! R7    R(2,68)                 1.7818         estimate D2E/DX2                !
 ! R8    R(3,5)                  1.4845         estimate D2E/DX2                !
 ! R9    R(3,12)                 1.5815         estimate D2E/DX2                !
 ! R10   R(3,69)                 1.7723         estimate D2E/DX2                !
 ! R11   R(4,5)                  1.3578         estimate D2E/DX2                !
 ! R12   R(4,6)                  1.4028         estimate D2E/DX2                !
 ! R13   R(5,15)                 1.3821         estimate D2E/DX2                !
 ! R14   R(6,8)                  1.4046         estimate D2E/DX2                !
 ! R15   R(6,17)                 1.3931         estimate D2E/DX2                !
 ! R16   R(7,8)                  1.5374         estimate D2E/DX2                !
 ! R17   R(7,9)                  1.504          estimate D2E/DX2                !
 ! R18   R(7,71)                 1.7924         estimate D2E/DX2                !
 ! R19   R(8,20)                 1.3703         estimate D2E/DX2                !
 ! R20   R(9,11)                 1.4265         estimate D2E/DX2                !
 ! R21   R(9,22)                 1.3726         estimate D2E/DX2                !
 ! R22   R(10,11)                1.4127         estimate D2E/DX2                !
 ! R23   R(10,13)                1.3623         estimate D2E/DX2                !
 ! R24   R(11,25)                1.3803         estimate D2E/DX2                !
 ! R25   R(12,13)                1.4881         estimate D2E/DX2                !
 ! R26   R(12,14)                1.5147         estimate D2E/DX2                !
 ! R27   R(12,70)                1.8117         estimate D2E/DX2                !
 ! R28   R(13,27)                1.4129         estimate D2E/DX2                !
 ! R29   R(14,16)                1.3717         estimate D2E/DX2                !
 ! R30   R(14,29)                1.4652         estimate D2E/DX2                !
 ! R31   R(15,16)                1.4663         estimate D2E/DX2                !
 ! R32   R(15,18)                1.4002         estimate D2E/DX2                !
 ! R33   R(16,32)                1.4326         estimate D2E/DX2                !
 ! R34   R(17,18)                1.423          estimate D2E/DX2                !
 ! R35   R(17,19)                1.4327         estimate D2E/DX2                !
 ! R36   R(18,33)                1.4384         estimate D2E/DX2                !
 ! R37   R(19,21)                1.3843         estimate D2E/DX2                !
 ! R38   R(19,35)                1.5204         estimate D2E/DX2                !
 ! R39   R(20,21)                1.439          estimate D2E/DX2                !
 ! R40   R(20,23)                1.5111         estimate D2E/DX2                !
 ! R41   R(21,38)                1.5166         estimate D2E/DX2                !
 ! R42   R(22,23)                1.5172         estimate D2E/DX2                !
 ! R43   R(22,24)                1.4315         estimate D2E/DX2                !
 ! R44   R(23,40)                1.4984         estimate D2E/DX2                !
 ! R45   R(23,72)                1.7987         estimate D2E/DX2                !
 ! R46   R(24,26)                1.376          estimate D2E/DX2                !
 ! R47   R(24,41)                1.4274         estimate D2E/DX2                !
 ! R48   R(25,26)                1.4193         estimate D2E/DX2                !
 ! R49   R(25,28)                1.4257         estimate D2E/DX2                !
 ! R50   R(26,44)                1.4306         estimate D2E/DX2                !
 ! R51   R(27,28)                1.384          estimate D2E/DX2                !
 ! R52   R(27,30)                1.4442         estimate D2E/DX2                !
 ! R53   R(28,45)                1.419          estimate D2E/DX2                !
 ! R54   R(29,30)                1.4473         estimate D2E/DX2                !
 ! R55   R(29,31)                1.4008         estimate D2E/DX2                !
 ! R56   R(30,47)                1.4055         estimate D2E/DX2                !
 ! R57   R(31,34)                1.4338         estimate D2E/DX2                !
 ! R58   R(31,49)                1.4329         estimate D2E/DX2                !
 ! R59   R(32,33)                1.4389         estimate D2E/DX2                !
 ! R60   R(32,34)                1.3663         estimate D2E/DX2                !
 ! R61   R(33,36)                1.3608         estimate D2E/DX2                !
 ! R62   R(34,51)                1.432          estimate D2E/DX2                !
 ! R63   R(35,36)                1.5046         estimate D2E/DX2                !
 ! R64   R(35,37)                1.498          estimate D2E/DX2                !
 ! R65   R(35,74)                1.818          estimate D2E/DX2                !
 ! R66   R(36,52)                1.4224         estimate D2E/DX2                !
 ! R67   R(37,39)                1.3535         estimate D2E/DX2                !
 ! R68   R(37,53)                1.4294         estimate D2E/DX2                !
 ! R69   R(38,39)                1.5051         estimate D2E/DX2                !
 ! R70   R(38,42)                1.5024         estimate D2E/DX2                !
 ! R71   R(38,73)                1.8094         estimate D2E/DX2                !
 ! R72   R(39,57)                1.4305         estimate D2E/DX2                !
 ! R73   R(40,41)                1.4255         estimate D2E/DX2                !
 ! R74   R(40,42)                1.3565         estimate D2E/DX2                !
 ! R75   R(41,43)                1.3843         estimate D2E/DX2                !
 ! R76   R(42,58)                1.4328         estimate D2E/DX2                !
 ! R77   R(43,46)                1.4391         estimate D2E/DX2                !
 ! R78   R(43,59)                1.4204         estimate D2E/DX2                !
 ! R79   R(44,45)                1.439          estimate D2E/DX2                !
 ! R80   R(44,46)                1.375          estimate D2E/DX2                !
 ! R81   R(45,48)                1.3722         estimate D2E/DX2                !
 ! R82   R(46,61)                1.4378         estimate D2E/DX2                !
 ! R83   R(47,48)                1.4384         estimate D2E/DX2                !
 ! R84   R(47,50)                1.4297         estimate D2E/DX2                !
 ! R85   R(48,62)                1.4367         estimate D2E/DX2                !
 ! R86   R(49,50)                1.3696         estimate D2E/DX2                !
 ! R87   R(49,54)                1.4475         estimate D2E/DX2                !
 ! R88   R(50,63)                1.444          estimate D2E/DX2                !
 ! R89   R(51,52)                1.3917         estimate D2E/DX2                !
 ! R90   R(51,54)                1.4264         estimate D2E/DX2                !
 ! R91   R(52,53)                1.4285         estimate D2E/DX2                !
 ! R92   R(53,55)                1.3797         estimate D2E/DX2                !
 ! R93   R(54,56)                1.382          estimate D2E/DX2                !
 ! R94   R(55,56)                1.4375         estimate D2E/DX2                !
 ! R95   R(55,60)                1.4218         estimate D2E/DX2                !
 ! R96   R(56,64)                1.4365         estimate D2E/DX2                !
 ! R97   R(57,58)                1.4247         estimate D2E/DX2                !
 ! R98   R(57,60)                1.383          estimate D2E/DX2                !
 ! R99   R(58,59)                1.3826         estimate D2E/DX2                !
 ! R100  R(59,65)                1.4414         estimate D2E/DX2                !
 ! R101  R(60,66)                1.4368         estimate D2E/DX2                !
 ! R102  R(61,62)                1.3875         estimate D2E/DX2                !
 ! R103  R(61,65)                1.4365         estimate D2E/DX2                !
 ! R104  R(62,63)                1.4287         estimate D2E/DX2                !
 ! R105  R(63,64)                1.3811         estimate D2E/DX2                !
 ! R106  R(64,66)                1.4401         estimate D2E/DX2                !
 ! R107  R(65,66)                1.3794         estimate D2E/DX2                !
 ! A1    A(2,1,4)               99.5824         estimate D2E/DX2                !
 ! A2    A(2,1,7)              119.693          estimate D2E/DX2                !
 ! A3    A(2,1,67)             108.8915         estimate D2E/DX2                !
 ! A4    A(4,1,7)              101.7846         estimate D2E/DX2                !
 ! A5    A(4,1,67)             111.5797         estimate D2E/DX2                !
 ! A6    A(7,1,67)             113.9623         estimate D2E/DX2                !
 ! A7    A(1,2,3)              108.6079         estimate D2E/DX2                !
 ! A8    A(1,2,10)             110.4186         estimate D2E/DX2                !
 ! A9    A(1,2,68)             112.3645         estimate D2E/DX2                !
 ! A10   A(3,2,10)             100.5981         estimate D2E/DX2                !
 ! A11   A(3,2,68)             114.8573         estimate D2E/DX2                !
 ! A12   A(10,2,68)            109.3711         estimate D2E/DX2                !
 ! A13   A(2,3,5)              100.321          estimate D2E/DX2                !
 ! A14   A(2,3,12)             107.6722         estimate D2E/DX2                !
 ! A15   A(2,3,69)             113.6505         estimate D2E/DX2                !
 ! A16   A(5,3,12)             109.7756         estimate D2E/DX2                !
 ! A17   A(5,3,69)             111.1929         estimate D2E/DX2                !
 ! A18   A(12,3,69)            113.4041         estimate D2E/DX2                !
 ! A19   A(1,4,5)              114.7909         estimate D2E/DX2                !
 ! A20   A(1,4,6)              114.286          estimate D2E/DX2                !
 ! A21   A(5,4,6)              121.2305         estimate D2E/DX2                !
 ! A22   A(3,5,4)              112.7804         estimate D2E/DX2                !
 ! A23   A(3,5,15)             124.5201         estimate D2E/DX2                !
 ! A24   A(4,5,15)             116.9181         estimate D2E/DX2                !
 ! A25   A(4,6,8)              108.5864         estimate D2E/DX2                !
 ! A26   A(4,6,17)             122.2406         estimate D2E/DX2                !
 ! A27   A(8,6,17)             122.5069         estimate D2E/DX2                !
 ! A28   A(1,7,8)              105.4933         estimate D2E/DX2                !
 ! A29   A(1,7,9)              116.9129         estimate D2E/DX2                !
 ! A30   A(1,7,71)             112.9717         estimate D2E/DX2                !
 ! A31   A(8,7,9)              101.4549         estimate D2E/DX2                !
 ! A32   A(8,7,71)             110.4972         estimate D2E/DX2                !
 ! A33   A(9,7,71)             108.7582         estimate D2E/DX2                !
 ! A34   A(6,8,7)              109.0551         estimate D2E/DX2                !
 ! A35   A(6,8,20)             119.2576         estimate D2E/DX2                !
 ! A36   A(7,8,20)             127.1199         estimate D2E/DX2                !
 ! A37   A(7,9,11)             120.604          estimate D2E/DX2                !
 ! A38   A(7,9,22)             118.0268         estimate D2E/DX2                !
 ! A39   A(11,9,22)            117.6077         estimate D2E/DX2                !
 ! A40   A(2,10,11)            124.0822         estimate D2E/DX2                !
 ! A41   A(2,10,13)            114.0292         estimate D2E/DX2                !
 ! A42   A(11,10,13)           121.1663         estimate D2E/DX2                !
 ! A43   A(9,11,10)            118.931          estimate D2E/DX2                !
 ! A44   A(9,11,25)            120.6235         estimate D2E/DX2                !
 ! A45   A(10,11,25)           114.1306         estimate D2E/DX2                !
 ! A46   A(3,12,13)            101.7115         estimate D2E/DX2                !
 ! A47   A(3,12,14)            117.5208         estimate D2E/DX2                !
 ! A48   A(3,12,70)            111.1417         estimate D2E/DX2                !
 ! A49   A(13,12,14)           108.5181         estimate D2E/DX2                !
 ! A50   A(13,12,70)           109.9313         estimate D2E/DX2                !
 ! A51   A(14,12,70)           107.7529         estimate D2E/DX2                !
 ! A52   A(10,13,12)           112.4314         estimate D2E/DX2                !
 ! A53   A(10,13,27)           123.657          estimate D2E/DX2                !
 ! A54   A(12,13,27)           121.5067         estimate D2E/DX2                !
 ! A55   A(12,14,16)           121.0097         estimate D2E/DX2                !
 ! A56   A(12,14,29)           118.1588         estimate D2E/DX2                !
 ! A57   A(16,14,29)           117.874          estimate D2E/DX2                !
 ! A58   A(5,15,16)            119.7021         estimate D2E/DX2                !
 ! A59   A(5,15,18)            121.3875         estimate D2E/DX2                !
 ! A60   A(16,15,18)           108.3962         estimate D2E/DX2                !
 ! A61   A(14,16,15)           118.3493         estimate D2E/DX2                !
 ! A62   A(14,16,32)           122.571          estimate D2E/DX2                !
 ! A63   A(15,16,32)           105.6233         estimate D2E/DX2                !
 ! A64   A(6,17,18)            114.1478         estimate D2E/DX2                !
 ! A65   A(6,17,19)            117.9401         estimate D2E/DX2                !
 ! A66   A(18,17,19)           121.5886         estimate D2E/DX2                !
 ! A67   A(15,18,17)           120.8676         estimate D2E/DX2                !
 ! A68   A(15,18,33)           108.1145         estimate D2E/DX2                !
 ! A69   A(17,18,33)           119.3345         estimate D2E/DX2                !
 ! A70   A(17,19,21)           119.497          estimate D2E/DX2                !
 ! A71   A(17,19,35)           115.8138         estimate D2E/DX2                !
 ! A72   A(21,19,35)           123.1947         estimate D2E/DX2                !
 ! A73   A(8,20,21)            119.6789         estimate D2E/DX2                !
 ! A74   A(8,20,23)            116.6574         estimate D2E/DX2                !
 ! A75   A(21,20,23)           121.7822         estimate D2E/DX2                !
 ! A76   A(19,21,20)           120.648          estimate D2E/DX2                !
 ! A77   A(19,21,38)           119.7604         estimate D2E/DX2                !
 ! A78   A(20,21,38)           119.0656         estimate D2E/DX2                !
 ! A79   A(9,22,23)            125.3883         estimate D2E/DX2                !
 ! A80   A(9,22,24)            120.8825         estimate D2E/DX2                !
 ! A81   A(23,22,24)           108.6898         estimate D2E/DX2                !
 ! A82   A(20,23,22)           105.1208         estimate D2E/DX2                !
 ! A83   A(20,23,40)           111.5102         estimate D2E/DX2                !
 ! A84   A(20,23,72)           109.4909         estimate D2E/DX2                !
 ! A85   A(22,23,40)           101.5895         estimate D2E/DX2                !
 ! A86   A(22,23,72)           116.1907         estimate D2E/DX2                !
 ! A87   A(40,23,72)           112.5533         estimate D2E/DX2                !
 ! A88   A(22,24,26)           120.8981         estimate D2E/DX2                !
 ! A89   A(22,24,41)           109.9891         estimate D2E/DX2                !
 ! A90   A(26,24,41)           119.1408         estimate D2E/DX2                !
 ! A91   A(11,25,26)           121.2346         estimate D2E/DX2                !
 ! A92   A(11,25,28)           122.8766         estimate D2E/DX2                !
 ! A93   A(26,25,28)           107.899          estimate D2E/DX2                !
 ! A94   A(24,26,25)           117.4794         estimate D2E/DX2                !
 ! A95   A(24,26,44)           121.6127         estimate D2E/DX2                !
 ! A96   A(25,26,44)           108.5255         estimate D2E/DX2                !
 ! A97   A(13,27,28)           114.0835         estimate D2E/DX2                !
 ! A98   A(13,27,30)           119.6039         estimate D2E/DX2                !
 ! A99   A(28,27,30)           121.0169         estimate D2E/DX2                !
 ! A100  A(25,28,27)           120.5027         estimate D2E/DX2                !
 ! A101  A(25,28,45)           108.2682         estimate D2E/DX2                !
 ! A102  A(27,28,45)           122.1214         estimate D2E/DX2                !
 ! A103  A(14,29,30)           119.6071         estimate D2E/DX2                !
 ! A104  A(14,29,31)           117.6196         estimate D2E/DX2                !
 ! A105  A(30,29,31)           116.5469         estimate D2E/DX2                !
 ! A106  A(27,30,29)           118.498          estimate D2E/DX2                !
 ! A107  A(27,30,47)           115.5409         estimate D2E/DX2                !
 ! A108  A(29,30,47)           119.5835         estimate D2E/DX2                !
 ! A109  A(29,31,34)           122.1551         estimate D2E/DX2                !
 ! A110  A(29,31,49)           123.0051         estimate D2E/DX2                !
 ! A111  A(34,31,49)           105.7989         estimate D2E/DX2                !
 ! A112  A(16,32,33)           108.7722         estimate D2E/DX2                !
 ! A113  A(16,32,34)           119.6959         estimate D2E/DX2                !
 ! A114  A(33,32,34)           119.7502         estimate D2E/DX2                !
 ! A115  A(18,33,32)           107.1919         estimate D2E/DX2                !
 ! A116  A(18,33,36)           120.0658         estimate D2E/DX2                !
 ! A117  A(32,33,36)           121.7945         estimate D2E/DX2                !
 ! A118  A(31,34,32)           118.3884         estimate D2E/DX2                !
 ! A119  A(31,34,51)           109.8148         estimate D2E/DX2                !
 ! A120  A(32,34,51)           119.0392         estimate D2E/DX2                !
 ! A121  A(19,35,36)           112.4695         estimate D2E/DX2                !
 ! A122  A(19,35,37)           110.9275         estimate D2E/DX2                !
 ! A123  A(19,35,74)           106.4942         estimate D2E/DX2                !
 ! A124  A(36,35,37)           100.9966         estimate D2E/DX2                !
 ! A125  A(36,35,74)           112.7047         estimate D2E/DX2                !
 ! A126  A(37,35,74)           113.3743         estimate D2E/DX2                !
 ! A127  A(33,36,35)           122.3849         estimate D2E/DX2                !
 ! A128  A(33,36,52)           118.056          estimate D2E/DX2                !
 ! A129  A(35,36,52)           112.0935         estimate D2E/DX2                !
 ! A130  A(35,37,39)           121.9543         estimate D2E/DX2                !
 ! A131  A(35,37,53)           110.1611         estimate D2E/DX2                !
 ! A132  A(39,37,53)           120.3121         estimate D2E/DX2                !
 ! A133  A(21,38,39)           110.9981         estimate D2E/DX2                !
 ! A134  A(21,38,42)           110.65           estimate D2E/DX2                !
 ! A135  A(21,38,73)           107.4949         estimate D2E/DX2                !
 ! A136  A(39,38,42)           101.2834         estimate D2E/DX2                !
 ! A137  A(39,38,73)           113.2609         estimate D2E/DX2                !
 ! A138  A(42,38,73)           113.1451         estimate D2E/DX2                !
 ! A139  A(37,39,38)           123.2771         estimate D2E/DX2                !
 ! A140  A(37,39,57)           118.7003         estimate D2E/DX2                !
 ! A141  A(38,39,57)           111.0104         estimate D2E/DX2                !
 ! A142  A(23,40,41)           111.0475         estimate D2E/DX2                !
 ! A143  A(23,40,42)           122.6301         estimate D2E/DX2                !
 ! A144  A(41,40,42)           118.7675         estimate D2E/DX2                !
 ! A145  A(24,41,40)           107.0865         estimate D2E/DX2                !
 ! A146  A(24,41,43)           119.3071         estimate D2E/DX2                !
 ! A147  A(40,41,43)           122.1355         estimate D2E/DX2                !
 ! A148  A(38,42,40)           123.0484         estimate D2E/DX2                !
 ! A149  A(38,42,58)           110.4687         estimate D2E/DX2                !
 ! A150  A(40,42,58)           119.627          estimate D2E/DX2                !
 ! A151  A(41,43,46)           121.5101         estimate D2E/DX2                !
 ! A152  A(41,43,59)           119.0531         estimate D2E/DX2                !
 ! A153  A(46,43,59)           107.371          estimate D2E/DX2                !
 ! A154  A(26,44,45)           107.0976         estimate D2E/DX2                !
 ! A155  A(26,44,46)           119.7967         estimate D2E/DX2                !
 ! A156  A(45,44,46)           119.3838         estimate D2E/DX2                !
 ! A157  A(28,45,44)           108.083          estimate D2E/DX2                !
 ! A158  A(28,45,48)           118.2572         estimate D2E/DX2                !
 ! A159  A(44,45,48)           121.9392         estimate D2E/DX2                !
 ! A160  A(43,46,44)           118.605          estimate D2E/DX2                !
 ! A161  A(43,46,61)           109.5001         estimate D2E/DX2                !
 ! A162  A(44,46,61)           119.1075         estimate D2E/DX2                !
 ! A163  A(30,47,48)           122.5366         estimate D2E/DX2                !
 ! A164  A(30,47,50)           122.1029         estimate D2E/DX2                !
 ! A165  A(48,47,50)           106.2823         estimate D2E/DX2                !
 ! A166  A(45,48,47)           120.2218         estimate D2E/DX2                !
 ! A167  A(45,48,62)           118.6659         estimate D2E/DX2                !
 ! A168  A(47,48,62)           109.5447         estimate D2E/DX2                !
 ! A169  A(31,49,50)           120.0525         estimate D2E/DX2                !
 ! A170  A(31,49,54)           109.0159         estimate D2E/DX2                !
 ! A171  A(50,49,54)           119.4862         estimate D2E/DX2                !
 ! A172  A(47,50,49)           118.4889         estimate D2E/DX2                !
 ! A173  A(47,50,63)           108.9203         estimate D2E/DX2                !
 ! A174  A(49,50,63)           121.0125         estimate D2E/DX2                !
 ! A175  A(34,51,52)           119.7056         estimate D2E/DX2                !
 ! A176  A(34,51,54)           107.1108         estimate D2E/DX2                !
 ! A177  A(52,51,54)           119.9867         estimate D2E/DX2                !
 ! A178  A(36,52,51)           120.9968         estimate D2E/DX2                !
 ! A179  A(36,52,53)           106.7196         estimate D2E/DX2                !
 ! A180  A(51,52,53)           120.2976         estimate D2E/DX2                !
 ! A181  A(37,53,52)           109.5762         estimate D2E/DX2                !
 ! A182  A(37,53,55)           121.3876         estimate D2E/DX2                !
 ! A183  A(52,53,55)           119.0304         estimate D2E/DX2                !
 ! A184  A(49,54,51)           107.5579         estimate D2E/DX2                !
 ! A185  A(49,54,56)           119.5756         estimate D2E/DX2                !
 ! A186  A(51,54,56)           120.0564         estimate D2E/DX2                !
 ! A187  A(53,55,56)           121.0279         estimate D2E/DX2                !
 ! A188  A(53,55,60)           118.5293         estimate D2E/DX2                !
 ! A189  A(56,55,60)           108.6188         estimate D2E/DX2                !
 ! A190  A(54,56,55)           119.3092         estimate D2E/DX2                !
 ! A191  A(54,56,64)           120.4237         estimate D2E/DX2                !
 ! A192  A(55,56,64)           108.102          estimate D2E/DX2                !
 ! A193  A(39,57,58)           107.8854         estimate D2E/DX2                !
 ! A194  A(39,57,60)           121.4983         estimate D2E/DX2                !
 ! A195  A(58,57,60)           119.7375         estimate D2E/DX2                !
 ! A196  A(42,58,57)           108.7838         estimate D2E/DX2                !
 ! A197  A(42,58,59)           121.8017         estimate D2E/DX2                !
 ! A198  A(57,58,59)           119.1301         estimate D2E/DX2                !
 ! A199  A(43,59,58)           118.4862         estimate D2E/DX2                !
 ! A200  A(43,59,65)           108.0153         estimate D2E/DX2                !
 ! A201  A(58,59,65)           121.2155         estimate D2E/DX2                !
 ! A202  A(55,60,57)           119.521          estimate D2E/DX2                !
 ! A203  A(55,60,66)           107.4856         estimate D2E/DX2                !
 ! A204  A(57,60,66)           121.3944         estimate D2E/DX2                !
 ! A205  A(46,61,62)           121.0959         estimate D2E/DX2                !
 ! A206  A(46,61,65)           106.042          estimate D2E/DX2                !
 ! A207  A(62,61,65)           119.957          estimate D2E/DX2                !
 ! A208  A(48,62,61)           119.579          estimate D2E/DX2                !
 ! A209  A(48,62,63)           107.0634         estimate D2E/DX2                !
 ! A210  A(61,62,63)           120.4594         estimate D2E/DX2                !
 ! A211  A(50,63,62)           107.929          estimate D2E/DX2                !
 ! A212  A(50,63,64)           119.237          estimate D2E/DX2                !
 ! A213  A(62,63,64)           119.5344         estimate D2E/DX2                !
 ! A214  A(56,64,63)           119.9639         estimate D2E/DX2                !
 ! A215  A(56,64,66)           107.0254         estimate D2E/DX2                !
 ! A216  A(63,64,66)           120.1213         estimate D2E/DX2                !
 ! A217  A(59,65,61)           109.0159         estimate D2E/DX2                !
 ! A218  A(59,65,66)           119.5238         estimate D2E/DX2                !
 ! A219  A(61,65,66)           119.4698         estimate D2E/DX2                !
 ! A220  A(60,66,64)           108.7093         estimate D2E/DX2                !
 ! A221  A(60,66,65)           118.8865         estimate D2E/DX2                !
 ! A222  A(64,66,65)           120.3128         estimate D2E/DX2                !
 ! D1    D(4,1,2,3)             19.3956         estimate D2E/DX2                !
 ! D2    D(4,1,2,10)           -90.0197         estimate D2E/DX2                !
 ! D3    D(4,1,2,68)           147.577          estimate D2E/DX2                !
 ! D4    D(7,1,2,3)            128.9497         estimate D2E/DX2                !
 ! D5    D(7,1,2,10)            19.5344         estimate D2E/DX2                !
 ! D6    D(7,1,2,68)          -102.8689         estimate D2E/DX2                !
 ! D7    D(67,1,2,3)           -97.477          estimate D2E/DX2                !
 ! D8    D(67,1,2,10)          153.1077         estimate D2E/DX2                !
 ! D9    D(67,1,2,68)           30.7043         estimate D2E/DX2                !
 ! D10   D(2,1,4,5)            -14.0827         estimate D2E/DX2                !
 ! D11   D(2,1,4,6)            132.53           estimate D2E/DX2                !
 ! D12   D(7,1,4,5)           -137.34           estimate D2E/DX2                !
 ! D13   D(7,1,4,6)              9.2728         estimate D2E/DX2                !
 ! D14   D(67,1,4,5)           100.7444         estimate D2E/DX2                !
 ! D15   D(67,1,4,6)          -112.6428         estimate D2E/DX2                !
 ! D16   D(2,1,7,8)           -114.6307         estimate D2E/DX2                !
 ! D17   D(2,1,7,9)             -2.8024         estimate D2E/DX2                !
 ! D18   D(2,1,7,71)           124.561          estimate D2E/DX2                !
 ! D19   D(4,1,7,8)             -6.2868         estimate D2E/DX2                !
 ! D20   D(4,1,7,9)            105.5415         estimate D2E/DX2                !
 ! D21   D(4,1,7,71)          -127.0951         estimate D2E/DX2                !
 ! D22   D(67,1,7,8)           113.9699         estimate D2E/DX2                !
 ! D23   D(67,1,7,9)          -134.2018         estimate D2E/DX2                !
 ! D24   D(67,1,7,71)           -6.8384         estimate D2E/DX2                !
 ! D25   D(1,2,3,5)            -18.0876         estimate D2E/DX2                !
 ! D26   D(1,2,3,12)          -132.8563         estimate D2E/DX2                !
 ! D27   D(1,2,3,69)           100.6567         estimate D2E/DX2                !
 ! D28   D(10,2,3,5)            97.8574         estimate D2E/DX2                !
 ! D29   D(10,2,3,12)          -16.9113         estimate D2E/DX2                !
 ! D30   D(10,2,3,69)         -143.3984         estimate D2E/DX2                !
 ! D31   D(68,2,3,5)          -144.8472         estimate D2E/DX2                !
 ! D32   D(68,2,3,12)          100.3841         estimate D2E/DX2                !
 ! D33   D(68,2,3,69)          -26.103          estimate D2E/DX2                !
 ! D34   D(1,2,10,11)          -36.619          estimate D2E/DX2                !
 ! D35   D(1,2,10,13)          133.712          estimate D2E/DX2                !
 ! D36   D(3,2,10,11)         -151.2043         estimate D2E/DX2                !
 ! D37   D(3,2,10,13)           19.1267         estimate D2E/DX2                !
 ! D38   D(68,2,10,11)          87.5236         estimate D2E/DX2                !
 ! D39   D(68,2,10,13)        -102.1453         estimate D2E/DX2                !
 ! D40   D(2,3,5,4)              9.6194         estimate D2E/DX2                !
 ! D41   D(2,3,5,15)          -142.6069         estimate D2E/DX2                !
 ! D42   D(12,3,5,4)           122.7843         estimate D2E/DX2                !
 ! D43   D(12,3,5,15)          -29.4421         estimate D2E/DX2                !
 ! D44   D(69,3,5,4)          -110.9074         estimate D2E/DX2                !
 ! D45   D(69,3,5,15)           96.8663         estimate D2E/DX2                !
 ! D46   D(2,3,12,13)            9.959          estimate D2E/DX2                !
 ! D47   D(2,3,12,14)          128.237          estimate D2E/DX2                !
 ! D48   D(2,3,12,70)         -107.0049         estimate D2E/DX2                !
 ! D49   D(5,3,12,13)          -98.364          estimate D2E/DX2                !
 ! D50   D(5,3,12,14)           19.914          estimate D2E/DX2                !
 ! D51   D(5,3,12,70)          144.6721         estimate D2E/DX2                !
 ! D52   D(69,3,12,13)         136.5907         estimate D2E/DX2                !
 ! D53   D(69,3,12,14)        -105.1313         estimate D2E/DX2                !
 ! D54   D(69,3,12,70)          19.6268         estimate D2E/DX2                !
 ! D55   D(1,4,5,3)              3.0029         estimate D2E/DX2                !
 ! D56   D(1,4,5,15)           157.4982         estimate D2E/DX2                !
 ! D57   D(6,4,5,3)           -141.081          estimate D2E/DX2                !
 ! D58   D(6,4,5,15)            13.4143         estimate D2E/DX2                !
 ! D59   D(1,4,6,8)             -8.6139         estimate D2E/DX2                !
 ! D60   D(1,4,6,17)          -160.5496         estimate D2E/DX2                !
 ! D61   D(5,4,6,8)            135.6364         estimate D2E/DX2                !
 ! D62   D(5,4,6,17)           -16.2994         estimate D2E/DX2                !
 ! D63   D(3,5,15,16)           12.6505         estimate D2E/DX2                !
 ! D64   D(3,5,15,18)          153.3314         estimate D2E/DX2                !
 ! D65   D(4,5,15,16)         -138.5441         estimate D2E/DX2                !
 ! D66   D(4,5,15,18)            2.1368         estimate D2E/DX2                !
 ! D67   D(4,6,8,7)              3.7355         estimate D2E/DX2                !
 ! D68   D(4,6,8,20)          -153.9817         estimate D2E/DX2                !
 ! D69   D(17,6,8,7)           155.5811         estimate D2E/DX2                !
 ! D70   D(17,6,8,20)           -2.1361         estimate D2E/DX2                !
 ! D71   D(4,6,17,18)            2.6464         estimate D2E/DX2                !
 ! D72   D(4,6,17,19)          155.2155         estimate D2E/DX2                !
 ! D73   D(8,6,17,18)         -145.4314         estimate D2E/DX2                !
 ! D74   D(8,6,17,19)            7.1377         estimate D2E/DX2                !
 ! D75   D(1,7,8,6)              1.8848         estimate D2E/DX2                !
 ! D76   D(1,7,8,20)           157.3736         estimate D2E/DX2                !
 ! D77   D(9,7,8,6)           -120.4876         estimate D2E/DX2                !
 ! D78   D(9,7,8,20)            35.0012         estimate D2E/DX2                !
 ! D79   D(71,7,8,6)           124.296          estimate D2E/DX2                !
 ! D80   D(71,7,8,20)          -80.2151         estimate D2E/DX2                !
 ! D81   D(1,7,9,11)            -1.6996         estimate D2E/DX2                !
 ! D82   D(1,7,9,22)          -159.3376         estimate D2E/DX2                !
 ! D83   D(8,7,9,11)           112.4122         estimate D2E/DX2                !
 ! D84   D(8,7,9,22)           -45.2258         estimate D2E/DX2                !
 ! D85   D(71,7,9,11)         -131.0916         estimate D2E/DX2                !
 ! D86   D(71,7,9,22)           71.2703         estimate D2E/DX2                !
 ! D87   D(6,8,20,21)           -3.6226         estimate D2E/DX2                !
 ! D88   D(6,8,20,23)          161.0481         estimate D2E/DX2                !
 ! D89   D(7,8,20,21)         -156.9125         estimate D2E/DX2                !
 ! D90   D(7,8,20,23)            7.7583         estimate D2E/DX2                !
 ! D91   D(7,9,11,10)          -12.5487         estimate D2E/DX2                !
 ! D92   D(7,9,11,25)         -163.0084         estimate D2E/DX2                !
 ! D93   D(22,9,11,10)         145.1801         estimate D2E/DX2                !
 ! D94   D(22,9,11,25)          -5.2796         estimate D2E/DX2                !
 ! D95   D(7,9,22,23)           17.0742         estimate D2E/DX2                !
 ! D96   D(7,9,22,24)          169.0617         estimate D2E/DX2                !
 ! D97   D(11,9,22,23)        -141.2388         estimate D2E/DX2                !
 ! D98   D(11,9,22,24)          10.7487         estimate D2E/DX2                !
 ! D99   D(2,10,11,9)           34.7111         estimate D2E/DX2                !
 ! D100  D(2,10,11,25)        -172.9925         estimate D2E/DX2                !
 ! D101  D(13,10,11,9)        -134.9614         estimate D2E/DX2                !
 ! D102  D(13,10,11,25)         17.335          estimate D2E/DX2                !
 ! D103  D(2,10,13,12)         -14.1299         estimate D2E/DX2                !
 ! D104  D(2,10,13,27)        -176.7032         estimate D2E/DX2                !
 ! D105  D(11,10,13,12)        156.514          estimate D2E/DX2                !
 ! D106  D(11,10,13,27)         -6.0594         estimate D2E/DX2                !
 ! D107  D(9,11,25,26)          -5.3327         estimate D2E/DX2                !
 ! D108  D(9,11,25,28)         139.7483         estimate D2E/DX2                !
 ! D109  D(10,11,25,26)       -157.115          estimate D2E/DX2                !
 ! D110  D(10,11,25,28)        -12.034          estimate D2E/DX2                !
 ! D111  D(3,12,13,10)           1.6789         estimate D2E/DX2                !
 ! D112  D(3,12,13,27)         164.678          estimate D2E/DX2                !
 ! D113  D(14,12,13,10)       -122.869          estimate D2E/DX2                !
 ! D114  D(14,12,13,27)         40.1301         estimate D2E/DX2                !
 ! D115  D(70,12,13,10)        119.5175         estimate D2E/DX2                !
 ! D116  D(70,12,13,27)        -77.4834         estimate D2E/DX2                !
 ! D117  D(3,12,14,16)           5.2965         estimate D2E/DX2                !
 ! D118  D(3,12,14,29)        -154.8332         estimate D2E/DX2                !
 ! D119  D(13,12,14,16)        119.8723         estimate D2E/DX2                !
 ! D120  D(13,12,14,29)        -40.2573         estimate D2E/DX2                !
 ! D121  D(70,12,14,16)       -121.1337         estimate D2E/DX2                !
 ! D122  D(70,12,14,29)         78.7367         estimate D2E/DX2                !
 ! D123  D(10,13,27,28)        -11.1903         estimate D2E/DX2                !
 ! D124  D(10,13,27,30)        143.3814         estimate D2E/DX2                !
 ! D125  D(12,13,27,28)       -172.2434         estimate D2E/DX2                !
 ! D126  D(12,13,27,30)        -17.6718         estimate D2E/DX2                !
 ! D127  D(12,14,16,15)        -24.571          estimate D2E/DX2                !
 ! D128  D(12,14,16,32)       -159.6271         estimate D2E/DX2                !
 ! D129  D(29,14,16,15)        135.6133         estimate D2E/DX2                !
 ! D130  D(29,14,16,32)          0.5572         estimate D2E/DX2                !
 ! D131  D(12,14,29,30)         19.6871         estimate D2E/DX2                !
 ! D132  D(12,14,29,31)        171.0265         estimate D2E/DX2                !
 ! D133  D(16,14,29,30)       -141.0714         estimate D2E/DX2                !
 ! D134  D(16,14,29,31)         10.268          estimate D2E/DX2                !
 ! D135  D(5,15,16,14)          16.7048         estimate D2E/DX2                !
 ! D136  D(5,15,16,32)         158.5235         estimate D2E/DX2                !
 ! D137  D(18,15,16,14)       -128.5418         estimate D2E/DX2                !
 ! D138  D(18,15,16,32)         13.277          estimate D2E/DX2                !
 ! D139  D(5,15,18,17)         -15.7197         estimate D2E/DX2                !
 ! D140  D(5,15,18,33)        -158.474          estimate D2E/DX2                !
 ! D141  D(16,15,18,17)        128.8278         estimate D2E/DX2                !
 ! D142  D(16,15,18,33)        -13.9265         estimate D2E/DX2                !
 ! D143  D(14,16,32,33)        132.2635         estimate D2E/DX2                !
 ! D144  D(14,16,32,34)        -10.5976         estimate D2E/DX2                !
 ! D145  D(15,16,32,33)         -7.5301         estimate D2E/DX2                !
 ! D146  D(15,16,32,34)       -150.3911         estimate D2E/DX2                !
 ! D147  D(6,17,18,15)          12.6872         estimate D2E/DX2                !
 ! D148  D(6,17,18,33)         151.3991         estimate D2E/DX2                !
 ! D149  D(19,17,18,15)       -138.7728         estimate D2E/DX2                !
 ! D150  D(19,17,18,33)         -0.061          estimate D2E/DX2                !
 ! D151  D(6,17,19,21)          -6.3587         estimate D2E/DX2                !
 ! D152  D(6,17,19,35)        -172.8619         estimate D2E/DX2                !
 ! D153  D(18,17,19,21)        144.0714         estimate D2E/DX2                !
 ! D154  D(18,17,19,35)        -22.4318         estimate D2E/DX2                !
 ! D155  D(15,18,33,32)          9.1012         estimate D2E/DX2                !
 ! D156  D(15,18,33,36)        153.8237         estimate D2E/DX2                !
 ! D157  D(17,18,33,32)       -134.3207         estimate D2E/DX2                !
 ! D158  D(17,18,33,36)         10.4018         estimate D2E/DX2                !
 ! D159  D(17,19,21,20)          0.8726         estimate D2E/DX2                !
 ! D160  D(17,19,21,38)       -170.7316         estimate D2E/DX2                !
 ! D161  D(35,19,21,20)        166.3316         estimate D2E/DX2                !
 ! D162  D(35,19,21,38)         -5.2726         estimate D2E/DX2                !
 ! D163  D(17,19,35,36)         33.1684         estimate D2E/DX2                !
 ! D164  D(17,19,35,37)        145.4502         estimate D2E/DX2                !
 ! D165  D(17,19,35,74)        -90.755          estimate D2E/DX2                !
 ! D166  D(21,19,35,36)       -132.7826         estimate D2E/DX2                !
 ! D167  D(21,19,35,37)        -20.5007         estimate D2E/DX2                !
 ! D168  D(21,19,35,74)        103.294          estimate D2E/DX2                !
 ! D169  D(8,20,21,19)           4.2353         estimate D2E/DX2                !
 ! D170  D(8,20,21,38)         175.8971         estimate D2E/DX2                !
 ! D171  D(23,20,21,19)       -159.6274         estimate D2E/DX2                !
 ! D172  D(23,20,21,38)         12.0344         estimate D2E/DX2                !
 ! D173  D(8,20,23,22)         -38.3448         estimate D2E/DX2                !
 ! D174  D(8,20,23,40)        -147.6243         estimate D2E/DX2                !
 ! D175  D(8,20,23,72)          87.1493         estimate D2E/DX2                !
 ! D176  D(21,20,23,22)        125.9791         estimate D2E/DX2                !
 ! D177  D(21,20,23,40)         16.6996         estimate D2E/DX2                !
 ! D178  D(21,20,23,72)       -108.5268         estimate D2E/DX2                !
 ! D179  D(19,21,38,39)         27.5484         estimate D2E/DX2                !
 ! D180  D(19,21,38,42)        139.179          estimate D2E/DX2                !
 ! D181  D(19,21,38,73)        -96.8198         estimate D2E/DX2                !
 ! D182  D(20,21,38,39)       -144.1888         estimate D2E/DX2                !
 ! D183  D(20,21,38,42)        -32.5582         estimate D2E/DX2                !
 ! D184  D(20,21,38,73)         91.443          estimate D2E/DX2                !
 ! D185  D(9,22,23,20)          27.924          estimate D2E/DX2                !
 ! D186  D(9,22,23,40)         144.2282         estimate D2E/DX2                !
 ! D187  D(9,22,23,72)         -93.2792         estimate D2E/DX2                !
 ! D188  D(24,22,23,20)       -126.8927         estimate D2E/DX2                !
 ! D189  D(24,22,23,40)        -10.5886         estimate D2E/DX2                !
 ! D190  D(24,22,23,72)        111.9041         estimate D2E/DX2                !
 ! D191  D(9,22,24,26)          -5.846          estimate D2E/DX2                !
 ! D192  D(9,22,24,41)        -151.0872         estimate D2E/DX2                !
 ! D193  D(23,22,24,26)        150.3125         estimate D2E/DX2                !
 ! D194  D(23,22,24,41)          5.0714         estimate D2E/DX2                !
 ! D195  D(20,23,40,41)        124.3994         estimate D2E/DX2                !
 ! D196  D(20,23,40,42)        -24.7698         estimate D2E/DX2                !
 ! D197  D(22,23,40,41)         12.8661         estimate D2E/DX2                !
 ! D198  D(22,23,40,42)       -136.3032         estimate D2E/DX2                !
 ! D199  D(72,23,40,41)       -112.0955         estimate D2E/DX2                !
 ! D200  D(72,23,40,42)         98.7353         estimate D2E/DX2                !
 ! D201  D(22,24,26,25)         -4.7473         estimate D2E/DX2                !
 ! D202  D(22,24,26,44)       -142.5358         estimate D2E/DX2                !
 ! D203  D(41,24,26,25)        137.4154         estimate D2E/DX2                !
 ! D204  D(41,24,26,44)         -0.3731         estimate D2E/DX2                !
 ! D205  D(22,24,41,40)          3.1786         estimate D2E/DX2                !
 ! D206  D(22,24,41,43)        147.3439         estimate D2E/DX2                !
 ! D207  D(26,24,41,40)       -142.7581         estimate D2E/DX2                !
 ! D208  D(26,24,41,43)          1.4072         estimate D2E/DX2                !
 ! D209  D(11,25,26,24)         10.2498         estimate D2E/DX2                !
 ! D210  D(11,25,26,44)        153.1331         estimate D2E/DX2                !
 ! D211  D(28,25,26,24)       -139.4061         estimate D2E/DX2                !
 ! D212  D(28,25,26,44)          3.4772         estimate D2E/DX2                !
 ! D213  D(11,25,28,27)         -5.0034         estimate D2E/DX2                !
 ! D214  D(11,25,28,45)       -152.6049         estimate D2E/DX2                !
 ! D215  D(26,25,28,27)        144.0432         estimate D2E/DX2                !
 ! D216  D(26,25,28,45)         -3.5583         estimate D2E/DX2                !
 ! D217  D(24,26,44,45)        138.9854         estimate D2E/DX2                !
 ! D218  D(24,26,44,46)         -1.1614         estimate D2E/DX2                !
 ! D219  D(25,26,44,45)         -2.0645         estimate D2E/DX2                !
 ! D220  D(25,26,44,46)       -142.2114         estimate D2E/DX2                !
 ! D221  D(13,27,28,25)         16.2811         estimate D2E/DX2                !
 ! D222  D(13,27,28,45)        159.3565         estimate D2E/DX2                !
 ! D223  D(30,27,28,25)       -137.8943         estimate D2E/DX2                !
 ! D224  D(30,27,28,45)          5.1811         estimate D2E/DX2                !
 ! D225  D(13,27,30,29)         -7.5526         estimate D2E/DX2                !
 ! D226  D(13,27,30,47)       -159.4409         estimate D2E/DX2                !
 ! D227  D(28,27,30,29)        145.2275         estimate D2E/DX2                !
 ! D228  D(28,27,30,47)         -6.6608         estimate D2E/DX2                !
 ! D229  D(25,28,45,44)          2.2784         estimate D2E/DX2                !
 ! D230  D(25,28,45,48)        146.1109         estimate D2E/DX2                !
 ! D231  D(27,28,45,44)       -144.6906         estimate D2E/DX2                !
 ! D232  D(27,28,45,48)         -0.858          estimate D2E/DX2                !
 ! D233  D(14,29,30,27)          6.0037         estimate D2E/DX2                !
 ! D234  D(14,29,30,47)        156.7369         estimate D2E/DX2                !
 ! D235  D(31,29,30,27)       -145.6337         estimate D2E/DX2                !
 ! D236  D(31,29,30,47)          5.0995         estimate D2E/DX2                !
 ! D237  D(14,29,31,34)        -11.8406         estimate D2E/DX2                !
 ! D238  D(14,29,31,49)       -154.1944         estimate D2E/DX2                !
 ! D239  D(30,29,31,34)        140.3752         estimate D2E/DX2                !
 ! D240  D(30,29,31,49)         -1.9786         estimate D2E/DX2                !
 ! D241  D(27,30,47,48)          4.3003         estimate D2E/DX2                !
 ! D242  D(27,30,47,50)        146.7519         estimate D2E/DX2                !
 ! D243  D(29,30,47,48)       -147.2638         estimate D2E/DX2                !
 ! D244  D(29,30,47,50)         -4.8122         estimate D2E/DX2                !
 ! D245  D(29,31,34,32)          2.1079         estimate D2E/DX2                !
 ! D246  D(29,31,34,51)       -139.2637         estimate D2E/DX2                !
 ! D247  D(49,31,34,32)        149.9452         estimate D2E/DX2                !
 ! D248  D(49,31,34,51)          8.5736         estimate D2E/DX2                !
 ! D249  D(29,31,49,50)         -1.7169         estimate D2E/DX2                !
 ! D250  D(29,31,49,54)        141.4976         estimate D2E/DX2                !
 ! D251  D(34,31,49,50)       -149.2103         estimate D2E/DX2                !
 ! D252  D(34,31,49,54)         -5.9958         estimate D2E/DX2                !
 ! D253  D(16,32,33,18)         -0.6691         estimate D2E/DX2                !
 ! D254  D(16,32,33,36)       -144.6486         estimate D2E/DX2                !
 ! D255  D(34,32,33,18)        142.1684         estimate D2E/DX2                !
 ! D256  D(34,32,33,36)         -1.8111         estimate D2E/DX2                !
 ! D257  D(16,32,34,31)          9.0809         estimate D2E/DX2                !
 ! D258  D(16,32,34,51)        146.8783         estimate D2E/DX2                !
 ! D259  D(33,32,34,31)       -129.74           estimate D2E/DX2                !
 ! D260  D(33,32,34,51)          8.0575         estimate D2E/DX2                !
 ! D261  D(18,33,36,35)          3.2832         estimate D2E/DX2                !
 ! D262  D(18,33,36,52)       -144.1464         estimate D2E/DX2                !
 ! D263  D(32,33,36,35)        142.8064         estimate D2E/DX2                !
 ! D264  D(32,33,36,52)         -4.6233         estimate D2E/DX2                !
 ! D265  D(31,34,51,52)        133.1625         estimate D2E/DX2                !
 ! D266  D(31,34,51,54)         -7.8879         estimate D2E/DX2                !
 ! D267  D(32,34,51,52)         -7.9227         estimate D2E/DX2                !
 ! D268  D(32,34,51,54)       -148.9731         estimate D2E/DX2                !
 ! D269  D(19,35,36,33)        -24.8191         estimate D2E/DX2                !
 ! D270  D(19,35,36,52)        124.3356         estimate D2E/DX2                !
 ! D271  D(37,35,36,33)       -143.1217         estimate D2E/DX2                !
 ! D272  D(37,35,36,52)          6.0329         estimate D2E/DX2                !
 ! D273  D(74,35,36,33)         95.5854         estimate D2E/DX2                !
 ! D274  D(74,35,36,52)       -115.2599         estimate D2E/DX2                !
 ! D275  D(19,35,37,39)         23.5478         estimate D2E/DX2                !
 ! D276  D(19,35,37,53)       -126.0724         estimate D2E/DX2                !
 ! D277  D(36,35,37,39)        142.9639         estimate D2E/DX2                !
 ! D278  D(36,35,37,53)         -6.6563         estimate D2E/DX2                !
 ! D279  D(74,35,37,39)        -96.2162         estimate D2E/DX2                !
 ! D280  D(74,35,37,53)        114.1637         estimate D2E/DX2                !
 ! D281  D(33,36,52,51)          4.7196         estimate D2E/DX2                !
 ! D282  D(33,36,52,53)        147.3733         estimate D2E/DX2                !
 ! D283  D(35,36,52,51)       -145.8982         estimate D2E/DX2                !
 ! D284  D(35,36,52,53)         -3.2444         estimate D2E/DX2                !
 ! D285  D(35,37,39,38)         -0.6839         estimate D2E/DX2                !
 ! D286  D(35,37,39,57)       -148.7053         estimate D2E/DX2                !
 ! D287  D(53,37,39,38)        145.9543         estimate D2E/DX2                !
 ! D288  D(53,37,39,57)         -2.0671         estimate D2E/DX2                !
 ! D289  D(35,37,53,52)          5.2635         estimate D2E/DX2                !
 ! D290  D(35,37,53,55)        150.378          estimate D2E/DX2                !
 ! D291  D(39,37,53,52)       -144.9315         estimate D2E/DX2                !
 ! D292  D(39,37,53,55)          0.183          estimate D2E/DX2                !
 ! D293  D(21,38,39,37)        -25.2647         estimate D2E/DX2                !
 ! D294  D(21,38,39,57)        124.8925         estimate D2E/DX2                !
 ! D295  D(42,38,39,37)       -142.766          estimate D2E/DX2                !
 ! D296  D(42,38,39,57)          7.3912         estimate D2E/DX2                !
 ! D297  D(73,38,39,37)         95.7653         estimate D2E/DX2                !
 ! D298  D(73,38,39,57)       -114.0775         estimate D2E/DX2                !
 ! D299  D(21,38,42,40)         25.959          estimate D2E/DX2                !
 ! D300  D(21,38,42,58)       -124.7755         estimate D2E/DX2                !
 ! D301  D(39,38,42,40)        143.7133         estimate D2E/DX2                !
 ! D302  D(39,38,42,58)         -7.0212         estimate D2E/DX2                !
 ! D303  D(73,38,42,40)        -94.7369         estimate D2E/DX2                !
 ! D304  D(73,38,42,58)        114.5286         estimate D2E/DX2                !
 ! D305  D(37,39,57,58)        146.4576         estimate D2E/DX2                !
 ! D306  D(37,39,57,60)          2.4564         estimate D2E/DX2                !
 ! D307  D(38,39,57,58)         -5.2289         estimate D2E/DX2                !
 ! D308  D(38,39,57,60)       -149.2301         estimate D2E/DX2                !
 ! D309  D(23,40,41,24)        -10.4611         estimate D2E/DX2                !
 ! D310  D(23,40,41,43)       -153.3845         estimate D2E/DX2                !
 ! D311  D(42,40,41,24)        140.0415         estimate D2E/DX2                !
 ! D312  D(42,40,41,43)         -2.8819         estimate D2E/DX2                !
 ! D313  D(23,40,42,38)          2.9795         estimate D2E/DX2                !
 ! D314  D(23,40,42,58)        151.185          estimate D2E/DX2                !
 ! D315  D(41,40,42,38)       -143.951          estimate D2E/DX2                !
 ! D316  D(41,40,42,58)          4.2545         estimate D2E/DX2                !
 ! D317  D(24,41,43,46)         -0.9586         estimate D2E/DX2                !
 ! D318  D(24,41,43,59)       -138.789          estimate D2E/DX2                !
 ! D319  D(40,41,43,46)        137.6762         estimate D2E/DX2                !
 ! D320  D(40,41,43,59)         -0.1542         estimate D2E/DX2                !
 ! D321  D(38,42,58,57)          4.3829         estimate D2E/DX2                !
 ! D322  D(38,42,58,59)        149.059          estimate D2E/DX2                !
 ! D323  D(40,42,58,57)       -147.4922         estimate D2E/DX2                !
 ! D324  D(40,42,58,59)         -2.8162         estimate D2E/DX2                !
 ! D325  D(41,43,46,44)         -0.5586         estimate D2E/DX2                !
 ! D326  D(41,43,46,61)       -141.9024         estimate D2E/DX2                !
 ! D327  D(59,43,46,44)        141.4968         estimate D2E/DX2                !
 ! D328  D(59,43,46,61)          0.153          estimate D2E/DX2                !
 ! D329  D(41,43,59,58)          1.6625         estimate D2E/DX2                !
 ! D330  D(41,43,59,65)        144.4615         estimate D2E/DX2                !
 ! D331  D(46,43,59,58)       -141.4899         estimate D2E/DX2                !
 ! D332  D(46,43,59,65)          1.3091         estimate D2E/DX2                !
 ! D333  D(26,44,45,28)         -0.1395         estimate D2E/DX2                !
 ! D334  D(26,44,45,48)       -142.3651         estimate D2E/DX2                !
 ! D335  D(46,44,45,28)        140.2025         estimate D2E/DX2                !
 ! D336  D(46,44,45,48)         -2.0231         estimate D2E/DX2                !
 ! D337  D(26,44,46,43)          1.5959         estimate D2E/DX2                !
 ! D338  D(26,44,46,61)        139.225          estimate D2E/DX2                !
 ! D339  D(45,44,46,43)       -133.7414         estimate D2E/DX2                !
 ! D340  D(45,44,46,61)          3.8876         estimate D2E/DX2                !
 ! D341  D(28,45,48,47)         -1.583          estimate D2E/DX2                !
 ! D342  D(28,45,48,62)       -141.0224         estimate D2E/DX2                !
 ! D343  D(44,45,48,47)        137.0348         estimate D2E/DX2                !
 ! D344  D(44,45,48,62)         -2.4045         estimate D2E/DX2                !
 ! D345  D(43,46,61,62)        139.7361         estimate D2E/DX2                !
 ! D346  D(43,46,61,65)         -1.5427         estimate D2E/DX2                !
 ! D347  D(44,46,61,62)         -1.3853         estimate D2E/DX2                !
 ! D348  D(44,46,61,65)       -142.6641         estimate D2E/DX2                !
 ! D349  D(30,47,48,45)         -0.2949         estimate D2E/DX2                !
 ! D350  D(30,47,48,62)        142.4448         estimate D2E/DX2                !
 ! D351  D(50,47,48,45)       -147.7598         estimate D2E/DX2                !
 ! D352  D(50,47,48,62)         -5.0201         estimate D2E/DX2                !
 ! D353  D(30,47,50,49)          1.0438         estimate D2E/DX2                !
 ! D354  D(30,47,50,63)       -142.6356         estimate D2E/DX2                !
 ! D355  D(48,47,50,49)        148.6831         estimate D2E/DX2                !
 ! D356  D(48,47,50,63)          5.0037         estimate D2E/DX2                !
 ! D357  D(45,48,62,61)          4.8869         estimate D2E/DX2                !
 ! D358  D(45,48,62,63)        146.5106         estimate D2E/DX2                !
 ! D359  D(47,48,62,61)       -138.513          estimate D2E/DX2                !
 ! D360  D(47,48,62,63)          3.1108         estimate D2E/DX2                !
 ! D361  D(31,49,50,47)          2.2079         estimate D2E/DX2                !
 ! D362  D(31,49,50,63)        141.3829         estimate D2E/DX2                !
 ! D363  D(54,49,50,47)       -137.2216         estimate D2E/DX2                !
 ! D364  D(54,49,50,63)          1.9535         estimate D2E/DX2                !
 ! D365  D(31,49,54,51)          1.3079         estimate D2E/DX2                !
 ! D366  D(31,49,54,56)       -140.283          estimate D2E/DX2                !
 ! D367  D(50,49,54,51)        144.7636         estimate D2E/DX2                !
 ! D368  D(50,49,54,56)          3.1727         estimate D2E/DX2                !
 ! D369  D(47,50,63,62)         -3.189          estimate D2E/DX2                !
 ! D370  D(47,50,63,64)        137.602          estimate D2E/DX2                !
 ! D371  D(49,50,63,62)       -145.7869         estimate D2E/DX2                !
 ! D372  D(49,50,63,64)         -4.9959         estimate D2E/DX2                !
 ! D373  D(34,51,52,36)          1.472          estimate D2E/DX2                !
 ! D374  D(34,51,52,53)       -136.2375         estimate D2E/DX2                !
 ! D375  D(54,51,52,36)        137.5511         estimate D2E/DX2                !
 ! D376  D(54,51,52,53)         -0.1584         estimate D2E/DX2                !
 ! D377  D(34,51,54,49)          3.9602         estimate D2E/DX2                !
 ! D378  D(34,51,54,56)        145.3318         estimate D2E/DX2                !
 ! D379  D(52,51,54,49)       -136.9596         estimate D2E/DX2                !
 ! D380  D(52,51,54,56)          4.412          estimate D2E/DX2                !
 ! D381  D(36,52,53,37)         -1.2462         estimate D2E/DX2                !
 ! D382  D(36,52,53,55)       -147.3011         estimate D2E/DX2                !
 ! D383  D(51,52,53,37)        141.722          estimate D2E/DX2                !
 ! D384  D(51,52,53,55)         -4.3329         estimate D2E/DX2                !
 ! D385  D(37,53,55,56)       -137.2921         estimate D2E/DX2                !
 ! D386  D(37,53,55,60)          1.3913         estimate D2E/DX2                !
 ! D387  D(52,53,55,56)          4.6608         estimate D2E/DX2                !
 ! D388  D(52,53,55,60)        143.3441         estimate D2E/DX2                !
 ! D389  D(49,54,56,55)        132.7217         estimate D2E/DX2                !
 ! D390  D(49,54,56,64)         -5.2571         estimate D2E/DX2                !
 ! D391  D(51,54,56,55)         -4.0937         estimate D2E/DX2                !
 ! D392  D(51,54,56,64)       -142.0725         estimate D2E/DX2                !
 ! D393  D(53,55,56,54)         -0.4714         estimate D2E/DX2                !
 ! D394  D(53,55,56,64)        142.1349         estimate D2E/DX2                !
 ! D395  D(60,55,56,54)       -142.7309         estimate D2E/DX2                !
 ! D396  D(60,55,56,64)         -0.1246         estimate D2E/DX2                !
 ! D397  D(53,55,60,57)         -1.01           estimate D2E/DX2                !
 ! D398  D(53,55,60,66)       -144.7199         estimate D2E/DX2                !
 ! D399  D(56,55,60,57)        142.3347         estimate D2E/DX2                !
 ! D400  D(56,55,60,66)         -1.3751         estimate D2E/DX2                !
 ! D401  D(54,56,64,63)          2.2042         estimate D2E/DX2                !
 ! D402  D(54,56,64,66)        143.6798         estimate D2E/DX2                !
 ! D403  D(55,56,64,63)       -139.9084         estimate D2E/DX2                !
 ! D404  D(55,56,64,66)          1.5672         estimate D2E/DX2                !
 ! D405  D(39,57,58,42)          0.5092         estimate D2E/DX2                !
 ! D406  D(39,57,58,59)       -145.2585         estimate D2E/DX2                !
 ! D407  D(60,57,58,42)        145.2571         estimate D2E/DX2                !
 ! D408  D(60,57,58,59)         -0.5105         estimate D2E/DX2                !
 ! D409  D(39,57,60,55)         -0.8936         estimate D2E/DX2                !
 ! D410  D(39,57,60,66)        137.7038         estimate D2E/DX2                !
 ! D411  D(58,57,60,55)       -140.7879         estimate D2E/DX2                !
 ! D412  D(58,57,60,66)         -2.1904         estimate D2E/DX2                !
 ! D413  D(42,58,59,43)         -0.2418         estimate D2E/DX2                !
 ! D414  D(42,58,59,65)       -137.9966         estimate D2E/DX2                !
 ! D415  D(57,58,59,43)        140.9536         estimate D2E/DX2                !
 ! D416  D(57,58,59,65)          3.1988         estimate D2E/DX2                !
 ! D417  D(43,59,65,61)         -2.3087         estimate D2E/DX2                !
 ! D418  D(43,59,65,66)       -144.7933         estimate D2E/DX2                !
 ! D419  D(58,59,65,61)        139.2747         estimate D2E/DX2                !
 ! D420  D(58,59,65,66)         -3.2099         estimate D2E/DX2                !
 ! D421  D(55,60,66,64)          2.3645         estimate D2E/DX2                !
 ! D422  D(55,60,66,65)        145.0623         estimate D2E/DX2                !
 ! D423  D(57,60,66,64)       -140.5241         estimate D2E/DX2                !
 ! D424  D(57,60,66,65)          2.1736         estimate D2E/DX2                !
 ! D425  D(46,61,62,48)         -3.057          estimate D2E/DX2                !
 ! D426  D(46,61,62,63)       -139.5441         estimate D2E/DX2                !
 ! D427  D(65,61,62,48)        133.0056         estimate D2E/DX2                !
 ! D428  D(65,61,62,63)         -3.4815         estimate D2E/DX2                !
 ! D429  D(46,61,65,59)          2.3488         estimate D2E/DX2                !
 ! D430  D(46,61,65,66)        144.8568         estimate D2E/DX2                !
 ! D431  D(62,61,65,59)       -139.4634         estimate D2E/DX2                !
[...]
 Alpha virt. eigenvalues --    1.20921   1.21039   1.22077   1.22276   1.22811
 Alpha virt. eigenvalues --    1.23114   1.23761   1.24097   1.24838   1.25168
 Alpha virt. eigenvalues --    1.25959   1.26507   1.26822   1.26978   1.27153
 Alpha virt. eigenvalues --    1.27576   1.28289   1.29026   1.29437   1.29795
 Alpha virt. eigenvalues --    1.30113   1.30736   1.31159   1.31605   1.31921
 Alpha virt. eigenvalues --    1.32192   1.32489   1.32605   1.32929   1.33295
 Alpha virt. eigenvalues --    1.33634   1.33945   1.34457   1.34659   1.35086
 Alpha virt. eigenvalues --    1.35143   1.35513   1.35632   1.36023   1.36232
 Alpha virt. eigenvalues --    1.36568   1.36644   1.37597   1.38050   1.38260
 Alpha virt. eigenvalues --    1.38448   1.38779   1.38988   1.39411   1.39818
 Alpha virt. eigenvalues --    1.40083   1.40342   1.40890   1.41024   1.41365
 Alpha virt. eigenvalues --    1.41467   1.41676   1.41920   1.42384   1.42463
 Alpha virt. eigenvalues --    1.42644   1.42736   1.42989   1.43312   1.43627
 Alpha virt. eigenvalues --    1.43870   1.44161   1.44382   1.44616   1.44715
 Alpha virt. eigenvalues --    1.45086   1.45127   1.45583   1.45881   1.46010
 Alpha virt. eigenvalues --    1.46389   1.46571   1.46688   1.46898   1.47202
 Alpha virt. eigenvalues --    1.47474   1.47800   1.47930   1.48303   1.48496
 Alpha virt. eigenvalues --    1.48975   1.49315   1.49449   1.49928   1.50252
 Alpha virt. eigenvalues --    1.50375   1.50840   1.51023   1.51273   1.51409
 Alpha virt. eigenvalues --    1.51854   1.52141   1.52333   1.52565   1.53218
 Alpha virt. eigenvalues --    1.53318   1.53785   1.53958   1.54526   1.54721
 Alpha virt. eigenvalues --    1.55025   1.55633   1.56007   1.56507   1.56832
 Alpha virt. eigenvalues --    1.57175   1.57361   1.57642   1.57859   1.58160
 Alpha virt. eigenvalues --    1.58655   1.59437   1.59747   1.60050   1.60463
 Alpha virt. eigenvalues --    1.60844   1.61184   1.61392   1.61849   1.62139
 Alpha virt. eigenvalues --    1.62877   1.63157   1.63260   1.63765   1.64326
 Alpha virt. eigenvalues --    1.64528   1.65268   1.65321   1.65680   1.66342
 Alpha virt. eigenvalues --    1.66680   1.66777   1.67243   1.67743   1.68112
 Alpha virt. eigenvalues --    1.68502   1.68869   1.69084   1.69577   1.69699
 Alpha virt. eigenvalues --    1.70125   1.70557   1.70949   1.71094   1.71514
 Alpha virt. eigenvalues --    1.71822   1.72407   1.72736   1.73025   1.73181
 Alpha virt. eigenvalues --    1.73543   1.74191   1.74706   1.75133   1.75605
 Alpha virt. eigenvalues --    1.75859   1.76156   1.76308   1.76555   1.77054
 Alpha virt. eigenvalues --    1.77335   1.77698   1.78162   1.78982   1.79312
 Alpha virt. eigenvalues --    1.79742   1.80181   1.80213   1.80722   1.80865
 Alpha virt. eigenvalues --    1.82019   1.82679   1.83192   1.83870   1.84154
 Alpha virt. eigenvalues --    1.84440   1.85472   1.85892   1.86362   1.86914
 Alpha virt. eigenvalues --    1.87212   1.87645   1.88161   1.88866   1.89629
 Alpha virt. eigenvalues --    1.89900   1.90039   1.90819   1.90904   1.91106
 Alpha virt. eigenvalues --    1.92007   1.92267   1.93034   1.93430   1.93776
 Alpha virt. eigenvalues --    1.94201   1.94696   1.95456   1.95612   1.95807
 Alpha virt. eigenvalues --    1.96473   1.97195   1.97770   1.97844   1.98765
 Alpha virt. eigenvalues --    1.99157   1.99980   2.00404   2.00635   2.00813
 Alpha virt. eigenvalues --    2.00990   2.01450   2.01632   2.01820   2.02236
 Alpha virt. eigenvalues --    2.02636   2.02727   2.03032   2.04217   2.04549
 Alpha virt. eigenvalues --    2.05352   2.05583   2.05890   2.06462   2.07060
 Alpha virt. eigenvalues --    2.07457   2.08063   2.08153   2.08815   2.08905
 Alpha virt. eigenvalues --    2.09509   2.09885   2.10381   2.10556   2.10807
 Alpha virt. eigenvalues --    2.11331   2.11664   2.11909   2.13037   2.13635
 Alpha virt. eigenvalues --    2.13971   2.14173   2.14503   2.14912   2.15470
 Alpha virt. eigenvalues --    2.16391   2.16592   2.16939   2.17874   2.18356
 Alpha virt. eigenvalues --    2.18704   2.19149   2.19375   2.19883   2.20129
 Alpha virt. eigenvalues --    2.20606   2.20796   2.21364   2.21619   2.22198
 Alpha virt. eigenvalues --    2.22500   2.22956   2.23279   2.23566   2.23878
 Alpha virt. eigenvalues --    2.24257   2.24633   2.24937   2.25505   2.26259
 Alpha virt. eigenvalues --    2.26481   2.27673   2.27869   2.28131   2.28532
 Alpha virt. eigenvalues --    2.29069   2.29419   2.29693   2.29824   2.30748
 Alpha virt. eigenvalues --    2.31057   2.31597   2.31983   2.32104   2.32517
 Alpha virt. eigenvalues --    2.33025   2.33451   2.33876   2.34124   2.34650
 Alpha virt. eigenvalues --    2.35202   2.35670   2.36594   2.36658   2.37203
 Alpha virt. eigenvalues --    2.37797   2.37948   2.38481   2.39537   2.39809
 Alpha virt. eigenvalues --    2.40333   2.40536   2.40800   2.41303   2.41726
 Alpha virt. eigenvalues --    2.42028   2.42276   2.42508   2.43405   2.43625
 Alpha virt. eigenvalues --    2.44033   2.44344   2.44560   2.44774   2.44969
 Alpha virt. eigenvalues --    2.45249   2.45942   2.46819   2.47670   2.48274
 Alpha virt. eigenvalues --    2.48611   2.49206   2.49360   2.50302   2.50852
 Alpha virt. eigenvalues --    2.51891   2.52733   2.53908   2.53980   2.54181
 Alpha virt. eigenvalues --    2.54592   2.54925   2.55027   2.55241   2.55837
 Alpha virt. eigenvalues --    2.55947   2.56106   2.56457   2.57758   2.58408
 Alpha virt. eigenvalues --    2.58639   2.59147   2.59452   2.59734   2.60616
 Alpha virt. eigenvalues --    2.60986   2.61258   2.61839   2.62694   2.63051
 Alpha virt. eigenvalues --    2.63506   2.63814   2.64505   2.65001   2.65055
 Alpha virt. eigenvalues --    2.66532   2.67747   2.68353   2.69042   2.69354
 Alpha virt. eigenvalues --    2.69548   2.70283   2.70849   2.72565   2.73270
 Alpha virt. eigenvalues --    2.73617   2.74439   2.75501   2.77353   2.77705
 Alpha virt. eigenvalues --    2.78351   2.78713   2.78885   2.79851   2.80291
 Alpha virt. eigenvalues --    2.81029   2.81384   2.81864   2.82484   2.83048
 Alpha virt. eigenvalues --    2.83941   2.84387   2.85474   2.87146   2.87789
 Alpha virt. eigenvalues --    2.87919   2.89128   2.90998   2.92004   2.92439
 Alpha virt. eigenvalues --    2.93071   2.93126   2.93809   2.94263   2.94711
 Alpha virt. eigenvalues --    2.95062   2.95242   2.95806   2.95950   2.96440
 Alpha virt. eigenvalues --    2.96928   2.97322   2.97458   2.97826   2.98530
 Alpha virt. eigenvalues --    2.98866   2.99149   2.99770   3.00074   3.00409
 Alpha virt. eigenvalues --    3.00853   3.01015   3.01900   3.02240   3.02890
 Alpha virt. eigenvalues --    3.03285   3.03853   3.03986   3.04258   3.04803
 Alpha virt. eigenvalues --    3.04975   3.05528   3.05789   3.06105   3.06330
 Alpha virt. eigenvalues --    3.06647   3.06989   3.07092   3.07815   3.08186
 Alpha virt. eigenvalues --    3.08798   3.09119   3.09179   3.09240   3.09666
 Alpha virt. eigenvalues --    3.10741   3.11006   3.11133   3.11510   3.11984
 Alpha virt. eigenvalues --    3.12237   3.12559   3.12854   3.13199   3.13391
 Alpha virt. eigenvalues --    3.13677   3.13890   3.14292   3.14724   3.15344
 Alpha virt. eigenvalues --    3.15683   3.16380   3.16744   3.16832   3.17190
 Alpha virt. eigenvalues --    3.17402   3.17884   3.18511   3.18817   3.19288
 Alpha virt. eigenvalues --    3.19601   3.20366   3.21061   3.22569   3.22951
 Alpha virt. eigenvalues --    3.24241   3.25357   3.26307   3.28243   3.30303
 Alpha virt. eigenvalues --    3.31349   3.36419   3.37316   3.40579   3.41205
 Alpha virt. eigenvalues --    3.41286   3.42725   3.44079   3.44515   3.46457
 Alpha virt. eigenvalues --    3.47260   3.47746   3.49203   3.50095   3.51096
 Alpha virt. eigenvalues --    3.51417   3.51763   3.52554   3.53139   3.54627
 Alpha virt. eigenvalues --    3.56064   3.57136   3.57356   3.58915   3.59883
 Alpha virt. eigenvalues --    3.60617   3.62462   3.62558   3.63133   3.63812
 Alpha virt. eigenvalues --    3.65285   3.67153   3.67679   3.68531   3.69417
 Alpha virt. eigenvalues --    3.69541   3.70948   3.71300   3.72158   3.72913
 Alpha virt. eigenvalues --    3.74073   3.75136   3.76618   3.78655   3.80232
 Alpha virt. eigenvalues --    3.80979   3.82161   3.82850   3.83515   3.84107
 Alpha virt. eigenvalues --    3.84963   3.85467   3.86988   3.87576   3.87848
 Alpha virt. eigenvalues --    3.88124   3.88431   3.88831   3.89429   3.90041
 Alpha virt. eigenvalues --    3.91162   3.92600   3.94886   4.01702   4.06294
 Alpha virt. eigenvalues --    4.16770   4.21279   4.21458   4.21881   4.26076
 Alpha virt. eigenvalues --    4.27375   4.31969   4.33712   4.34843   4.36546
 Alpha virt. eigenvalues --    4.37473   4.39490   4.41193   4.43000   4.47005
 Alpha virt. eigenvalues --    4.50196   4.51401   4.56110   4.61177   4.61330
 Alpha virt. eigenvalues --    4.63124   4.64835   4.69837   4.73917   4.76039
 Alpha virt. eigenvalues --    4.79407   4.81096   4.87771   4.90295   4.95712
 Alpha virt. eigenvalues --    4.97145   4.99699   5.02090   5.04504   9.53921
 Alpha virt. eigenvalues --    9.55012   9.58128   9.60698   9.63634   9.66508
 Alpha virt. eigenvalues --    9.68441   9.71865  22.99914  23.19475  23.22253
 Alpha virt. eigenvalues --   23.23936  23.41223  23.43593  23.48466  23.51197
 Alpha virt. eigenvalues --   23.53349  23.60654  23.63202  23.66962  23.67878
 Alpha virt. eigenvalues --   23.69517  23.70852  23.71028  23.72306  23.73117
 Alpha virt. eigenvalues --   23.74881  23.76813  23.77248  23.78064  23.79055
 Alpha virt. eigenvalues --   23.81213  23.82847  23.83236  23.84848  23.86661
 Alpha virt. eigenvalues --   23.88004  23.90257  23.91299  23.92011  23.93012
 Alpha virt. eigenvalues --   23.93835  23.94402  23.95249  23.95413  23.96075
 Alpha virt. eigenvalues --   23.96407  23.96857  23.97705  23.98115  23.98338
 Alpha virt. eigenvalues --   23.99514  24.00717  24.01176  24.01848  24.02992
 Alpha virt. eigenvalues --   24.03169  24.05793  24.06363  24.07426  24.07849
 Alpha virt. eigenvalues --   24.08016  24.08418  24.09186  24.10077  24.10598
 Alpha virt. eigenvalues --   24.10630  24.11103  24.11827  24.13106  24.13732
 Alpha virt. eigenvalues --   24.13962  24.14951  24.18767  25.51560  25.57366
 Alpha virt. eigenvalues --   25.59260  25.60952  25.65911  25.67133  25.73526
 Alpha virt. eigenvalues --   25.78007  25.79310  25.80853  25.84333  25.86700
 Alpha virt. eigenvalues --   25.87827  25.90670  25.98377  26.02890  26.16417
 Alpha virt. eigenvalues --   26.23807  26.28602  26.36390  26.40839  26.45970
 Alpha virt. eigenvalues --   26.62598  26.65531 215.49005 215.50214 215.53899
 Alpha virt. eigenvalues --  215.56709 215.60104 215.63499 215.65670 215.69386
          Condensed to atoms (all electrons):
 Mulliken charges:
               1
     1  C   -0.266882
     2  C   -0.264451
     3  C   -0.273182
     4  C    0.122440
     5  C    0.204482
     6  C    0.064925
     7  C   -0.515769
     8  C    0.206255
     9  C    0.185248
    10  C    0.050942
    11  C    0.075782
    12  C   -0.433886
    13  C    0.162532
    14  C    0.086958
    15  C   -0.003673
    16  C    0.012183
    17  C    0.087353
    18  C    0.012963
    19  C    0.135454
    20  C    0.235928
    21  C    0.131338
    22  C    0.190988
    23  C   -0.662612
    24  C    0.036794
    25  C   -0.003973
    26  C   -0.000791
    27  C    0.086870
    28  C    0.012786
    29  C    0.089078
    30  C    0.020244
    31  C    0.002004
    32  C   -0.002688
    33  C    0.026725
    34  C    0.002407
    35  C   -0.650937
    36  C    0.143948
    37  C    0.184325
    38  C   -0.682893
    39  C    0.180282
    40  C    0.166001
    41  C    0.039675
    42  C    0.180201
    43  C    0.000549
    44  C    0.001609
    45  C   -0.007839
    46  C    0.003639
    47  C   -0.006523
    48  C    0.003408
    49  C   -0.001626
    50  C   -0.002435
    51  C   -0.003374
    52  C    0.041407
    53  C    0.027444
    54  C    0.007354
    55  C    0.000007
    56  C    0.000873
    57  C    0.034286
    58  C    0.038040
    59  C    0.002632
    60  C    0.002163
    61  C    0.004002
    62  C    0.002736
    63  C    0.002288
    64  C    0.005676
    65  C    0.001309
    66  C    0.001190
    67  Cl   0.075691
    68  Cl   0.062167
    69  Cl   0.066975
    70  Cl   0.049089
    71  Cl   0.086806
    72  Cl   0.052071
    73  Cl   0.043944
    74  Cl   0.029070
 Sum of Mulliken charges =  -0.00000
 Mulliken charges with hydrogens summed into heavy atoms:
               1
     1  C   -0.266882
     2  C   -0.264451
     3  C   -0.273182
     4  C    0.122440
     5  C    0.204482
     6  C    0.064925
     7  C   -0.515769
     8  C    0.206255
     9  C    0.185248
    10  C    0.050942
    11  C    0.075782
    12  C   -0.433886
    13  C    0.162532
    14  C    0.086958
    15  C   -0.003673
    16  C    0.012183
    17  C    0.087353
    18  C    0.012963
    19  C    0.135454
    20  C    0.235928
    21  C    0.131338
    22  C    0.190988
    23  C   -0.662612
    24  C    0.036794
    25  C   -0.003973
    26  C   -0.000791
    27  C    0.086870
    28  C    0.012786
    29  C    0.089078
    30  C    0.020244
    31  C    0.002004
    32  C   -0.002688
    33  C    0.026725
    34  C    0.002407
    35  C   -0.650937
    36  C    0.143948
    37  C    0.184325
    38  C   -0.682893
    39  C    0.180282
    40  C    0.166001
    41  C    0.039675
    42  C    0.180201
    43  C    0.000549
    44  C    0.001609
    45  C   -0.007839
    46  C    0.003639
    47  C   -0.006523
    48  C    0.003408
    49  C   -0.001626
    50  C   -0.002435
    51  C   -0.003374
    52  C    0.041407
    53  C    0.027444
    54  C    0.007354
    55  C    0.000007
    56  C    0.000873
    57  C    0.034286
    58  C    0.038040
    59  C    0.002632
    60  C    0.002163
    61  C    0.004002
    62  C    0.002736
    63  C    0.002288
    64  C    0.005676
    65  C    0.001309
    66  C    0.001190
    67  Cl   0.075691
    68  Cl   0.062167
    69  Cl   0.066975
    70  Cl   0.049089
    71  Cl   0.086806
    72  Cl   0.052071
    73  Cl   0.043944
    74  Cl   0.029070
 Electronic spatial extent (au):  <R**2>=          36336.6109
 Charge=             -0.0000 electrons
 Dipole moment (field-independent basis, Debye):
    X=              3.3640    Y=             -3.3616    Z=             -1.5823  Tot=              5.0120
 Quadrupole moment (field-independent basis, Debye-Ang):
   XX=           -487.4277   YY=           -487.0398   ZZ=           -472.9834
   XY=             -8.1522   XZ=             -5.4556   YZ=             -3.1572
 Traceless Quadrupole moment (field-independent basis, Debye-Ang):
   XX=             -4.9441   YY=             -4.5562   ZZ=              9.5002
   XY=             -8.1522   XZ=             -5.4556   YZ=             -3.1572
 Octapole moment (field-independent basis, Debye-Ang**2):
  XXX=            -47.7252  YYY=             39.6415  ZZZ=             -1.3692  XYY=            -36.6591
  XXY=             21.3819  XXZ=             -1.9134  XZZ=            -60.2403  YZZ=             12.1046
  YYZ=             12.8357  XYZ=            -15.6813
 Hexadecapole moment (field-independent basis, Debye-Ang**3):
 XXXX=         -23510.0054 YYYY=         -16551.5606 ZZZZ=         -12837.6573 XXXY=             37.8913
 XXXZ=             62.5004 YYYX=             12.1210 YYYZ=             53.2368 ZZZX=             10.7312
 ZZZY=            -20.5951 XXYY=          -6725.4890 XXZZ=          -6025.1372 YYZZ=          -4869.5990
 XXYZ=            -20.4459 YYXZ=             12.3765 ZZXY=              9.0310
 N-N= 1.530263576888D+04 E-N=-4.518199589555D+04  KE= 6.178387320982D+03
 No NMR shielding tensors so no spin-rotation constants.
 Leave Link  601 at Fri Jul 15 03:00:28 2022, MaxMem=  1342177280 cpu:              59.5 elap:               1.5
 (Enter /home/mkliu/g16/l9999.exe)
 1\1\GINC-NODE04\FOpt\RB3LYP\6-311G(d,p)\C66Cl8\MKLIU\15-Jul-2022\0\\#P
  opt b3lyp/6-311G(d, p) empiricaldispersion=GD3\\force\\0,1\C,-1.32823
 56205,1.8996294687,-4.0020348745\C,0.2157749999,2.24850996,-3.99741949
 66\C,0.99786462,0.9003233247,-4.4007358533\C,-1.2721866302,0.426160257
 2,-3.874802723\C,-0.0519903177,-0.1250870939,-4.1213054302\C,-2.154483
 1095,-0.1156845748,-2.9240087129\C,-2.222485717,2.3011964931,-2.711135
 647\C,-2.7013291656,0.9324934427,-2.1624148777\C,-1.4719019219,2.94921
 01504,-1.5546323614\C,0.7060906766,2.4785780786,-2.6131708344\C,-0.049
 5496105,3.1375526607,-1.5969569615\C,2.200028965,0.754708606,-3.333882
 1835\C,1.8508612301,1.7890416448,-2.3149594009\C,2.3233924021,-0.59207
 83216,-2.5969545155\C,0.2139120084,-1.378942404,-3.5869171856\C,1.5131
 995007,-1.6580441839,-2.955791686\C,-1.9314439508,-1.4063222642,-2.386
 9105767\C,-0.7737893136,-2.092274846,-2.8817489627\C,-2.4419223737,-1.
 6806943974,-1.0743571081\C,-3.0905807348,0.6992199805,-0.8585806178\C,
 -3.0124215668,-0.6383072466,-0.3268955036\C,-2.0918793435,2.9153317726
 ,-0.3188162385\C,-3.2197401438,1.9245934015,0.0384669996\C,-1.38530798
 44,3.2479571631,0.8719016073\C,0.6523373956,3.397551063,-0.4111703541\
 C,-0.0266272072,3.5550857295,0.8355673745\C,2.4429397008,1.8130248334,
 -1.0205390467\C,1.9299749154,2.778529105,-0.1434798278\C,2.9699078524,
 -0.6183190248,-1.2837397952\C,3.1059754485,0.6234447026,-0.5055763066\
 C,2.9524918673,-1.8335930458,-0.5567581241\C,1.3107625238,-2.775901742
 6,-2.0823099644\C,-0.1058863147,-3.0559623835,-2.0281209619\C,2.079728
 6269,-2.9156380649,-0.9446416546\C,-2.0778958503,-3.0277897269,-0.4435
 39575\C,-0.6840386252,-3.4862469567,-0.8691103885\C,-1.9141336676,-2.9
 315490005,1.0577759305\C,-3.3684638178,-0.8636665357,1.1479090192\C,-2
 .511533396,-1.9468922621,1.7844418482\C,-2.8994855577,1.6021970206,1.4
 802269836\C,-1.913032959,2.5007410262,1.9914681844\C,-3.0085171768,0.3
 455905798,1.9966540435\C,-1.0840111927,2.1327472806,3.0511626135\C,0.8
 48254266,3.1157221985,1.9019163067\C,2.0677477449,2.6472673825,1.28054
 99778\C,0.335278931,2.4434606438,3.0034369157\C,3.2882685058,0.5506148
 215,0.8913380129\C,2.7476138425,1.5561176013,1.7890417913\C,3.04806458
 98,-1.8734143848,0.8873916053\C,3.2363177292,-0.7079531363,1.599081399
 1\C,1.5074211007,-3.4969176333,0.2434562236\C,0.1286055884,-3.74946999
 55,0.2754780926\C,-0.6363516432,-3.4473793918,1.4616885004\C,2.1432275
 888,-2.8914763075,1.3896781052\C,0.0051026015,-2.9605155593,2.60200175
 43\C,1.4262400161,-2.6655495557,2.5593364331\C,-1.8763933615,-1.450956
 4524,2.9696409058\C,-2.1770797444,-0.0456468415,3.095844292\C,-1.23246
 01727,0.829936231,3.6356240582\C,-0.6393159844,-1.9455608292,3.3874376
 884\C,1.0581436066,1.3216890851,3.5668135927\C,2.2618996649,0.90172213
 61,2.9863797843\C,2.5614493083,-0.5031778638,2.8698086416\C,1.64901018
 1,-1.4546062501,3.3277278668\C,0.0880156807,0.3319933889,3.9876747601\
 C,0.3767838785,-1.0239841305,3.8688471409\Cl,-2.096824557,2.3016199308
 ,-5.589754364\Cl,0.6596819591,3.710852045,-4.9592608192\Cl,1.497214516
 9,0.7925257988,-6.1237512466\Cl,3.8498381973,1.1293543088,-4.055278176
 1\Cl,-3.6098359797,3.3966846708,-3.1425796977\Cl,-4.9204459387,2.63739
 8591,-0.0368198531\Cl,-5.1699964616,-1.2650900115,1.2586408562\Cl,-3.3
 673980467,-4.2799097504,-0.906454716\\Version=ES64L-G16RevA.03\State=1
 -A\HF=-6197.2464698\RMSD=6.240e-09\RMSF=3.790e-05\Dipole=1.2109671,-0.
 395935,1.5050193\Quadrupole=-5.9332693,3.7345122,2.1987571,-3.036625,5
 .7198025,5.2157667\PG=C01 [X(C66Cl8)]\\@


 WE LEARN WISDOM FROM FAILURE MUCH MORE THAN FROM SUCCESS.
 WE DISCOVER WHAT WILL DO BY FINDING OUT WHAT WILL NOT DO...
 AND HE WHO NEVER MADE A MISTAKE NEVER MADE A DISCOVERY
 Job cpu time:       2 days 18 hours  6 minutes 30.0 seconds.
 Elapsed time:       0 days  1 hours 22 minutes 49.5 seconds.
 File lengths (MBytes):  RWF=   1193 Int=      0 D2E=      0 Chk=    146 Scr=      1
 Normal termination of Gaussian 16 at Fri Jul 15 03:00:30 2022.
