 Entering Gaussian System, Link 0=g16
 Input=eubutmc2ty1a8_addon_8.gjf
 Output=eubutmc2ty1a8_addon_8.log
 Initial command:
 /home/mkliu/g16/l1.exe "/data/scratch/Gau-75069.inp" -scrdir="/data/scratch/"
 Entering Link 1 = /home/mkliu/g16/l1.exe PID=     75070.
  
 Copyright (c) 1988,1990,1992,1993,1995,1998,2003,2009,2016,
            Gaussian, Inc.  All Rights Reserved.
  
 This is part of the Gaussian(R) 16 program.  It is based on
 the Gaussian(R) 09 system (copyright 2009, Gaussian, Inc.),
 the Gaussian(R) 03 system (copyright 2003, Gaussian, Inc.),
 the Gaussian(R) 98 system (copyright 1998, Gaussian, Inc.),
 the Gaussian(R) 94 system (copyright 1995, Gaussian, Inc.),
 the Gaussian 92(TM) system (copyright 1992, Gaussian, Inc.),
 the Gaussian 90(TM) system (copyright 1990, Gaussian, Inc.),
 the Gaussian 88(TM) system (copyright 1988, Gaussian, Inc.),
 the Gaussian 86(TM) system (copyright 1986, Carnegie Mellon
 University), and the Gaussian 82(TM) system (copyright 1983,
 Carnegie Mellon University). Gaussian is a federally registered
 trademark of Gaussian, Inc.
  
 This software contains proprietary and confidential information,
 including trade secrets, belonging to Gaussian, Inc.
  
 This software is provided under written license and may be
 used, copied, transmitted, or stored only in accord with that
 written license.
  
 The following legend is applicable only to US Government
 contracts under FAR:
  
                    RESTRICTED RIGHTS LEGEND
  
 Use, reproduction and disclosure by the US Government is
 subject to restrictions as set forth in subparagraphs (a)
 and (c) of the Commercial Computer Software - Restricted
 Rights clause in FAR 52.227-19.
  
 Gaussian, Inc.
 340 Quinnipiac St., Bldg. 40, Wallingford CT 06492
  
  
 ---------------------------------------------------------------
 Warning -- This program may not be used in any manner that
 competes with the business of Gaussian, Inc. or will provide
 assistance to any competitor of Gaussian, Inc.  The licensee
 of this program is prohibited from giving any competitor of
 Gaussian, Inc. access to this program.  By using this program,
 the user acknowledges that Gaussian, Inc. is engaged in the
 business of creating and licensing software in the field of
 computational chemistry and represents and warrants to the
 licensee that it is not a competitor of Gaussian, Inc. and that
 it will not use this program in any manner prohibited above.
 ---------------------------------------------------------------
  

 Cite this work as:
 Gaussian 16, Revision A.03,
 M. J. Frisch, G. W. Trucks, H. B. Schlegel, G. E. Scuseria, 
 M. A. Robb, J. R. Cheeseman, G. Scalmani, V. Barone, 
 G. A. Petersson, H. Nakatsuji, X. Li, M. Caricato, A. V. Marenich, 
 J. Bloino, B. G. Janesko, R. Gomperts, B. Mennucci, H. P. Hratchian, 
 J. V. Ortiz, A. F. Izmaylov, J. L. Sonnenberg, D. Williams-Young, 
 F. Ding, F. Lipparini, F. Egidi, J. Goings, B. Peng, A. Petrone, 
 T. Henderson, D. Ranasinghe, V. G. Zakrzewski, J. Gao, N. Rega, 
 G. Zheng, W. Liang, M. Hada, M. Ehara, K. Toyota, R. Fukuda, 
 J. Hasegawa, M. Ishida, T. Nakajima, Y. Honda, O. Kitao, H. Nakai, 
 T. Vreven, K. Throssell, J. A. Montgomery, Jr., J. E. Peralta, 
 F. Ogliaro, M. J. Bearpark, J. J. Heyd, E. N. Brothers, K. N. Kudin, 
 V. N. Staroverov, T. A. Keith, R. Kobayashi, J. Normand, 
 K. Raghavachari, A. P. Rendell, J. C. Burant, S. S. Iyengar, 
 J. Tomasi, M. Cossi, J. M. Millam, M. Klene, C. Adamo, R. Cammi, 
 J. W. Ochterski, R. L. Martin, K. Morokuma, O. Farkas, 
 J. B. Foresman, and D. J. Fox, Gaussian, Inc., Wallingford CT, 2016.
 
 ******************************************
 Gaussian 16:  ES64L-G16RevA.03 25-Dec-2016
                15-Jul-2022 
 ******************************************
 %mem=10GB
 %chk=eubutmc2ty1a8_addon_8.chk
 %nprocshared=48
 Will use up to   48 processors via shared memory.
 -------------------------------------------------
 #P opt b3lyp/6-311G(d, p) empiricaldispersion=GD3
 -------------------------------------------------
 1/18=20,19=15,26=3,38=1/1,3;
 2/9=110,12=2,17=6,18=5,40=1/2;
 3/5=4,6=6,7=101,11=2,25=1,30=1,71=1,74=-5,124=31/1,2,3;
 4//1;
 5/5=2,38=5/2;
 6/7=2,8=2,9=2,10=2,28=1/1;
 7//1,2,3,16;
 1/18=20,19=15,26=3/3(2);
 2/9=110/2;
 99//99;
 2/9=110/2;
 3/5=4,6=6,7=101,11=2,25=1,30=1,71=1,74=-5,124=31/1,2,3;
 4/5=5,16=3,69=1/1;
 5/5=2,38=5/2;
 7//1,2,3,16;
 1/18=20,19=15,26=3/3(-5);
 2/9=110/2;
 6/7=2,8=2,9=2,10=2,19=2,28=1/1;
 99/9=1/99;
 Leave Link    1 at Fri Jul 15 20:25:37 2022, MaxMem=  1342177280 cpu:               2.1 elap:               0.1
 (Enter /home/mkliu/g16/l101.exe)
 -----
 force
 -----
 Symbolic Z-matrix:
 Charge =  0 Multiplicity = 1
 C                    -1.33709   1.86084  -3.90567 
 C                     0.18747   2.18825  -3.97985 
 C                     0.92887   0.86076  -4.24194 
 C                    -1.51273   0.33744  -4.22673 
 C                    -0.12453  -0.16844  -4.07789 
 C                    -2.47567  -0.23786  -3.13631 
 C                    -1.87776   1.98757  -2.52562 
 C                    -2.59097   0.87712  -2.15361 
 C                    -1.38112   2.87705  -1.54557 
 C                     0.74462   2.63041  -2.66465 
 C                     0.02255   3.22424  -1.60754 
 C                     1.87505   0.69149  -3.07268 
 C                     1.83289   1.8453   -2.25945 
 C                     2.21706  -0.50431  -2.51252 
 C                     0.18355  -1.34647  -3.55488 
 C                     1.57511  -1.74303  -3.12776 
 C                    -1.99246  -1.47149  -2.41621 
 C                    -0.8288   -2.08275  -2.80664 
 C                    -2.52131  -1.76982  -1.09739 
 C                    -3.0534    0.65203  -0.8416 
 C                    -3.11062  -0.70021  -0.31925 
 C                    -2.01358   2.80294  -0.31868 
 C                    -2.8969    1.73128   0.02277 
 C                    -1.36618   3.22946   0.87671 
 C                     0.71243   3.45051  -0.39723 
 C                    -0.00216   3.50755   0.8181 
 C                     2.43629   1.84106  -0.98018 
 C                     2.14136   3.04189  -0.11503 
 C                     2.85556  -0.55224  -1.22781 
 C                     2.98514   0.67706  -0.48321 
 C                     2.89718  -1.78333  -0.55729 
 C                     1.27239  -2.77592  -2.09949 
 C                    -0.13107  -3.02977  -2.01347 
 C                     2.01698  -2.87113  -0.96079 
 C                    -1.92441  -2.83678  -0.40875 
 C                    -0.71796  -3.46168  -0.84227 
 C                    -1.92303  -2.91582   1.0251 
 C                    -3.14661  -0.82345   1.07775 
 C                    -2.54006  -1.93444   1.75578 
 C                    -2.87849   1.5741    1.43515 
 C                    -1.92231   2.50709   1.98015 
 C                    -3.02079   0.3089    1.95403 
 C                    -1.12045   2.10869   3.02956 
 C                     0.83996   3.07747   1.9085 
 C                     2.07581   2.66862   1.3352 
 C                     0.28711   2.40811   2.981 
 C                     3.49648   0.63298   0.94909 
 C                     2.72335   1.58344   1.82744 
 C                     2.99222  -1.82067   0.88658 
 C                     3.19824  -0.67604   1.61042 
 C                     1.45553  -3.45687   0.238 
 C                     0.10339  -3.76494   0.29293 
 C                    -0.67091  -3.47617   1.46511 
 C                     2.08525  -2.83515   1.36617 
 C                    -0.04805  -2.9528    2.58449 
 C                     1.35634  -2.63121   2.5255 
 C                    -1.94924  -1.4672    2.98328 
 C                    -2.25053  -0.07415   3.10679 
 C                    -1.29949   0.80299   3.60683 
 C                    -0.70653  -1.94506   3.36082 
 C                     0.98815   1.29551   3.53564 
 C                     2.18438   0.90253   2.95968 
 C                     2.48638  -0.49297   2.83097 
 C                     1.5707   -1.43762   3.28101 
 C                     0.0139    0.31981   3.94485 
 C                     0.30627  -1.02632   3.81918 
 Cl                   -2.33879   2.89492  -4.9558 
 Cl                    0.54193   3.44891  -5.19513 
 Cl                    1.73677   0.70295  -5.81938 
 Cl                    2.64427  -2.35964  -4.44753 
 Cl                   -2.05175   0.02902  -5.89674 
 Cl                   -4.11791  -0.60878  -3.80754 
 Cl                    5.2628    1.0465    0.86957 
 Cl                    3.39231   4.3194   -0.41748 
 
 ITRead=  0  0  0  0  0  0  0  0  0  0  0  0  0  0  0  0  0  0  0  0
 ITRead=  0  0  0  0  0  0  0  0  0  0  0  0  0  0  0  0  0  0  0  0
 ITRead=  0  0  0  0  0  0  0  0  0  0  0  0  0  0  0  0  0  0  0  0
 ITRead=  0  0  0  0  0  0  0  0  0  0  0  0  0  0
 MicOpt= -1 -1 -1 -1 -1 -1 -1 -1 -1 -1 -1 -1 -1 -1 -1 -1 -1 -1 -1 -1
 MicOpt= -1 -1 -1 -1 -1 -1 -1 -1 -1 -1 -1 -1 -1 -1 -1 -1 -1 -1 -1 -1
 MicOpt= -1 -1 -1 -1 -1 -1 -1 -1 -1 -1 -1 -1 -1 -1 -1 -1 -1 -1 -1 -1
 MicOpt= -1 -1 -1 -1 -1 -1 -1 -1 -1 -1 -1 -1 -1 -1
 NAtoms=     74 NQM=       74 NQMF=       0 NMMI=      0 NMMIF=      0
                NMic=       0 NMicF=      0.
                    Isotopes and Nuclear Properties:
 (Nuclear quadrupole moments (NQMom) in fm**2, nuclear magnetic moments (NMagM)
  in nuclear magnetons)

  Atom         1           2           3           4           5           6           7           8           9          10
 IAtWgt=          12          12          12          12          12          12          12          12          12          12
 AtmWgt=  12.0000000  12.0000000  12.0000000  12.0000000  12.0000000  12.0000000  12.0000000  12.0000000  12.0000000  12.0000000
 NucSpn=           0           0           0           0           0           0           0           0           0           0
 AtZEff=  -0.0000000  -0.0000000  -0.0000000  -0.0000000  -0.0000000  -0.0000000  -0.0000000  -0.0000000  -0.0000000  -0.0000000
 NQMom=    0.0000000   0.0000000   0.0000000   0.0000000   0.0000000   0.0000000   0.0000000   0.0000000   0.0000000   0.0000000
 NMagM=    0.0000000   0.0000000   0.0000000   0.0000000   0.0000000   0.0000000   0.0000000   0.0000000   0.0000000   0.0000000
 AtZNuc=   6.0000000   6.0000000   6.0000000   6.0000000   6.0000000   6.0000000   6.0000000   6.0000000   6.0000000   6.0000000

  Atom        11          12          13          14          15          16          17          18          19          20
 IAtWgt=          12          12          12          12          12          12          12          12          12          12
 AtmWgt=  12.0000000  12.0000000  12.0000000  12.0000000  12.0000000  12.0000000  12.0000000  12.0000000  12.0000000  12.0000000
 NucSpn=           0           0           0           0           0           0           0           0           0           0
 AtZEff=  -0.0000000  -0.0000000  -0.0000000  -0.0000000  -0.0000000  -0.0000000  -0.0000000  -0.0000000  -0.0000000  -0.0000000
 NQMom=    0.0000000   0.0000000   0.0000000   0.0000000   0.0000000   0.0000000   0.0000000   0.0000000   0.0000000   0.0000000
 NMagM=    0.0000000   0.0000000   0.0000000   0.0000000   0.0000000   0.0000000   0.0000000   0.0000000   0.0000000   0.0000000
 AtZNuc=   6.0000000   6.0000000   6.0000000   6.0000000   6.0000000   6.0000000   6.0000000   6.0000000   6.0000000   6.0000000

  Atom        21          22          23          24          25          26          27          28          29          30
 IAtWgt=          12          12          12          12          12          12          12          12          12          12
 AtmWgt=  12.0000000  12.0000000  12.0000000  12.0000000  12.0000000  12.0000000  12.0000000  12.0000000  12.0000000  12.0000000
 NucSpn=           0           0           0           0           0           0           0           0           0           0
 AtZEff=  -0.0000000  -0.0000000  -0.0000000  -0.0000000  -0.0000000  -0.0000000  -0.0000000  -0.0000000  -0.0000000  -0.0000000
 NQMom=    0.0000000   0.0000000   0.0000000   0.0000000   0.0000000   0.0000000   0.0000000   0.0000000   0.0000000   0.0000000
 NMagM=    0.0000000   0.0000000   0.0000000   0.0000000   0.0000000   0.0000000   0.0000000   0.0000000   0.0000000   0.0000000
 AtZNuc=   6.0000000   6.0000000   6.0000000   6.0000000   6.0000000   6.0000000   6.0000000   6.0000000   6.0000000   6.0000000

  Atom        31          32          33          34          35          36          37          38          39          40
 IAtWgt=          12          12          12          12          12          12          12          12          12          12
 AtmWgt=  12.0000000  12.0000000  12.0000000  12.0000000  12.0000000  12.0000000  12.0000000  12.0000000  12.0000000  12.0000000
 NucSpn=           0           0           0           0           0           0           0           0           0           0
 AtZEff=  -0.0000000  -0.0000000  -0.0000000  -0.0000000  -0.0000000  -0.0000000  -0.0000000  -0.0000000  -0.0000000  -0.0000000
 NQMom=    0.0000000   0.0000000   0.0000000   0.0000000   0.0000000   0.0000000   0.0000000   0.0000000   0.0000000   0.0000000
 NMagM=    0.0000000   0.0000000   0.0000000   0.0000000   0.0000000   0.0000000   0.0000000   0.0000000   0.0000000   0.0000000
 AtZNuc=   6.0000000   6.0000000   6.0000000   6.0000000   6.0000000   6.0000000   6.0000000   6.0000000   6.0000000   6.0000000

  Atom        41          42          43          44          45          46          47          48          49          50
 IAtWgt=          12          12          12          12          12          12          12          12          12          12
 AtmWgt=  12.0000000  12.0000000  12.0000000  12.0000000  12.0000000  12.0000000  12.0000000  12.0000000  12.0000000  12.0000000
 NucSpn=           0           0           0           0           0           0           0           0           0           0
 AtZEff=  -0.0000000  -0.0000000  -0.0000000  -0.0000000  -0.0000000  -0.0000000  -0.0000000  -0.0000000  -0.0000000  -0.0000000
 NQMom=    0.0000000   0.0000000   0.0000000   0.0000000   0.0000000   0.0000000   0.0000000   0.0000000   0.0000000   0.0000000
 NMagM=    0.0000000   0.0000000   0.0000000   0.0000000   0.0000000   0.0000000   0.0000000   0.0000000   0.0000000   0.0000000
 AtZNuc=   6.0000000   6.0000000   6.0000000   6.0000000   6.0000000   6.0000000   6.0000000   6.0000000   6.0000000   6.0000000

  Atom        51          52          53          54          55          56          57          58          59          60
 IAtWgt=          12          12          12          12          12          12          12          12          12          12
 AtmWgt=  12.0000000  12.0000000  12.0000000  12.0000000  12.0000000  12.0000000  12.0000000  12.0000000  12.0000000  12.0000000
 NucSpn=           0           0           0           0           0           0           0           0           0           0
 AtZEff=  -0.0000000  -0.0000000  -0.0000000  -0.0000000  -0.0000000  -0.0000000  -0.0000000  -0.0000000  -0.0000000  -0.0000000
 NQMom=    0.0000000   0.0000000   0.0000000   0.0000000   0.0000000   0.0000000   0.0000000   0.0000000   0.0000000   0.0000000
 NMagM=    0.0000000   0.0000000   0.0000000   0.0000000   0.0000000   0.0000000   0.0000000   0.0000000   0.0000000   0.0000000
 AtZNuc=   6.0000000   6.0000000   6.0000000   6.0000000   6.0000000   6.0000000   6.0000000   6.0000000   6.0000000   6.0000000

  Atom        61          62          63          64          65          66          67          68          69          70
 IAtWgt=          12          12          12          12          12          12          35          35          35          35
 AtmWgt=  12.0000000  12.0000000  12.0000000  12.0000000  12.0000000  12.0000000  34.9688527  34.9688527  34.9688527  34.9688527
 NucSpn=           0           0           0           0           0           0           3           3           3           3
 AtZEff=  -0.0000000  -0.0000000  -0.0000000  -0.0000000  -0.0000000  -0.0000000  -0.0000000  -0.0000000  -0.0000000  -0.0000000
 NQMom=    0.0000000   0.0000000   0.0000000   0.0000000   0.0000000   0.0000000  -8.1650000  -8.1650000  -8.1650000  -8.1650000
 NMagM=    0.0000000   0.0000000   0.0000000   0.0000000   0.0000000   0.0000000   0.8218740   0.8218740   0.8218740   0.8218740
 AtZNuc=   6.0000000   6.0000000   6.0000000   6.0000000   6.0000000   6.0000000  17.0000000  17.0000000  17.0000000  17.0000000

  Atom        71          72          73          74
 IAtWgt=          35          35          35          35
 AtmWgt=  34.9688527  34.9688527  34.9688527  34.9688527
 NucSpn=           3           3           3           3
 AtZEff=  -0.0000000  -0.0000000  -0.0000000  -0.0000000
 NQMom=   -8.1650000  -8.1650000  -8.1650000  -8.1650000
 NMagM=    0.8218740   0.8218740   0.8218740   0.8218740
 AtZNuc=  17.0000000  17.0000000  17.0000000  17.0000000
 Leave Link  101 at Fri Jul 15 20:25:37 2022, MaxMem=  1342177280 cpu:              13.0 elap:               0.3
 (Enter /home/mkliu/g16/l103.exe)

 GradGradGradGradGradGradGradGradGradGradGradGradGradGradGradGradGradGrad
 Berny optimization.
 Initialization pass.
                           ----------------------------
                           !    Initial Parameters    !
                           ! (Angstroms and Degrees)  !
 --------------------------                            --------------------------
 ! Name  Definition              Value          Derivative Info.                !
 --------------------------------------------------------------------------------
 ! R1    R(1,2)                  1.5611         estimate D2E/DX2                !
 ! R2    R(1,4)                  1.5667         estimate D2E/DX2                !
 ! R3    R(1,7)                  1.4876         estimate D2E/DX2                !
 ! R4    R(1,67)                 1.782          estimate D2E/DX2                !
 ! R5    R(2,3)                  1.5429         estimate D2E/DX2                !
 ! R6    R(2,10)                 1.4952         estimate D2E/DX2                !
 ! R7    R(2,68)                 1.7866         estimate D2E/DX2                !
 ! R8    R(3,5)                  1.4818         estimate D2E/DX2                !
 ! R9    R(3,12)                 1.5136         estimate D2E/DX2                !
 ! R10   R(3,69)                 1.7793         estimate D2E/DX2                !
 ! R11   R(4,5)                  1.485          estimate D2E/DX2                !
 ! R12   R(4,6)                  1.5644         estimate D2E/DX2                !
 ! R13   R(4,71)                 1.7817         estimate D2E/DX2                !
 ! R14   R(5,15)                 1.3252         estimate D2E/DX2                !
 ! R15   R(6,8)                  1.4907         estimate D2E/DX2                !
 ! R16   R(6,17)                 1.5079         estimate D2E/DX2                !
 ! R17   R(6,72)                 1.8125         estimate D2E/DX2                !
 ! R18   R(7,8)                  1.3712         estimate D2E/DX2                !
 ! R19   R(7,9)                  1.4136         estimate D2E/DX2                !
 ! R20   R(8,20)                 1.4092         estimate D2E/DX2                !
 ! R21   R(9,11)                 1.4473         estimate D2E/DX2                !
 ! R22   R(9,22)                 1.3823         estimate D2E/DX2                !
 ! R23   R(10,11)                1.4112         estimate D2E/DX2                !
 ! R24   R(10,13)                1.4017         estimate D2E/DX2                !
 ! R25   R(11,25)                1.4114         estimate D2E/DX2                !
 ! R26   R(12,13)                1.4122         estimate D2E/DX2                !
 ! R27   R(12,14)                1.3641         estimate D2E/DX2                !
 ! R28   R(13,27)                1.4144         estimate D2E/DX2                !
 ! R29   R(14,16)                1.5248         estimate D2E/DX2                !
 ! R30   R(14,29)                1.4354         estimate D2E/DX2                !
 ! R31   R(15,16)                1.5087         estimate D2E/DX2                !
 ! R32   R(15,18)                1.4584         estimate D2E/DX2                !
 ! R33   R(16,32)                1.4886         estimate D2E/DX2                !
 ! R34   R(16,70)                1.807          estimate D2E/DX2                !
 ! R35   R(17,18)                1.3712         estimate D2E/DX2                !
 ! R36   R(17,19)                1.4519         estimate D2E/DX2                !
 ! R37   R(18,33)                1.4187         estimate D2E/DX2                !
 ! R38   R(19,21)                1.4481         estimate D2E/DX2                !
 ! R39   R(19,35)                1.4032         estimate D2E/DX2                !
 ! R40   R(20,21)                1.4508         estimate D2E/DX2                !
 ! R41   R(20,23)                1.3915         estimate D2E/DX2                !
 ! R42   R(21,38)                1.4029         estimate D2E/DX2                !
 ! R43   R(22,23)                1.4301         estimate D2E/DX2                !
 ! R44   R(22,24)                1.4248         estimate D2E/DX2                !
 ! R45   R(23,40)                1.4212         estimate D2E/DX2                !
 ! R46   R(24,26)                1.3933         estimate D2E/DX2                !
 ! R47   R(24,41)                1.4313         estimate D2E/DX2                !
 ! R48   R(25,26)                1.411          estimate D2E/DX2                !
 ! R49   R(25,28)                1.5128         estimate D2E/DX2                !
 ! R50   R(26,44)                1.4433         estimate D2E/DX2                !
 ! R51   R(27,28)                1.5091         estimate D2E/DX2                !
 ! R52   R(27,30)                1.3795         estimate D2E/DX2                !
 ! R53   R(28,45)                1.4989         estimate D2E/DX2                !
 ! R54   R(28,74)                1.8134         estimate D2E/DX2                !
 ! R55   R(29,30)                1.443          estimate D2E/DX2                !
 ! R56   R(29,31)                1.4025         estimate D2E/DX2                !
 ! R57   R(30,47)                1.5215         estimate D2E/DX2                !
 ! R58   R(31,34)                1.4563         estimate D2E/DX2                !
 ! R59   R(31,49)                1.4475         estimate D2E/DX2                !
 ! R60   R(32,33)                1.4288         estimate D2E/DX2                !
 ! R61   R(32,34)                1.3639         estimate D2E/DX2                !
 ! R62   R(33,36)                1.3794         estimate D2E/DX2                !
 ! R63   R(34,51)                1.4476         estimate D2E/DX2                !
 ! R64   R(35,36)                1.4262         estimate D2E/DX2                !
 ! R65   R(35,37)                1.436          estimate D2E/DX2                !
 ! R66   R(36,52)                1.4336         estimate D2E/DX2                !
 ! R67   R(37,39)                1.3703         estimate D2E/DX2                !
 ! R68   R(37,53)                1.4406         estimate D2E/DX2                !
 ! R69   R(38,39)                1.4359         estimate D2E/DX2                !
 ! R70   R(38,42)                1.4373         estimate D2E/DX2                !
 ! R71   R(39,57)                1.4402         estimate D2E/DX2                !
 ! R72   R(40,41)                1.4428         estimate D2E/DX2                !
 ! R73   R(40,42)                1.3749         estimate D2E/DX2                !
 ! R74   R(41,43)                1.3795         estimate D2E/DX2                !
 ! R75   R(42,58)                1.4384         estimate D2E/DX2                !
 ! R76   R(43,46)                1.4399         estimate D2E/DX2                !
 ! R77   R(43,59)                1.4388         estimate D2E/DX2                !
 ! R78   R(44,45)                1.4224         estimate D2E/DX2                !
 ! R79   R(44,46)                1.3798         estimate D2E/DX2                !
 ! R80   R(45,48)                1.3562         estimate D2E/DX2                !
 ! R81   R(46,61)                1.4272         estimate D2E/DX2                !
 ! R82   R(47,48)                1.5075         estimate D2E/DX2                !
 ! R83   R(47,50)                1.4966         estimate D2E/DX2                !
 ! R84   R(47,73)                1.8158         estimate D2E/DX2                !
 ! R85   R(48,62)                1.4269         estimate D2E/DX2                !
 ! R86   R(49,50)                1.3699         estimate D2E/DX2                !
 ! R87   R(49,54)                1.4428         estimate D2E/DX2                !
 ! R88   R(50,63)                1.4248         estimate D2E/DX2                !
 ! R89   R(51,52)                1.3879         estimate D2E/DX2                !
 ! R90   R(51,54)                1.4338         estimate D2E/DX2                !
 ! R91   R(52,53)                1.4342         estimate D2E/DX2                !
 ! R92   R(53,55)                1.3838         estimate D2E/DX2                !
 ! R93   R(54,56)                1.3845         estimate D2E/DX2                !
 ! R94   R(55,56)                1.442          estimate D2E/DX2                !
 ! R95   R(55,60)                1.4324         estimate D2E/DX2                !
 ! R96   R(56,64)                1.4288         estimate D2E/DX2                !
 ! R97   R(57,58)                1.4306         estimate D2E/DX2                !
 ! R98   R(57,60)                1.3839         estimate D2E/DX2                !
 ! R99   R(58,59)                1.387          estimate D2E/DX2                !
 ! R100  R(59,65)                1.4397         estimate D2E/DX2                !
 ! R101  R(60,66)                1.4422         estimate D2E/DX2                !
 ! R102  R(61,62)                1.3846         estimate D2E/DX2                !
 ! R103  R(61,65)                1.4383         estimate D2E/DX2                !
 ! R104  R(62,63)                1.4336         estimate D2E/DX2                !
 ! R105  R(63,64)                1.3905         estimate D2E/DX2                !
 ! R106  R(64,66)                1.4344         estimate D2E/DX2                !
 ! R107  R(65,66)                1.3832         estimate D2E/DX2                !
 ! A1    A(2,1,4)              107.6781         estimate D2E/DX2                !
 ! A2    A(2,1,7)              112.4059         estimate D2E/DX2                !
 ! A3    A(2,1,67)             113.5324         estimate D2E/DX2                !
 ! A4    A(4,1,7)              103.4263         estimate D2E/DX2                !
 ! A5    A(4,1,67)             112.3626         estimate D2E/DX2                !
 ! A6    A(7,1,67)             107.0352         estimate D2E/DX2                !
 ! A7    A(1,2,3)              107.2719         estimate D2E/DX2                !
 ! A8    A(1,2,10)             112.5897         estimate D2E/DX2                !
 ! A9    A(1,2,68)             111.9671         estimate D2E/DX2                !
 ! A10   A(3,2,10)             102.9906         estimate D2E/DX2                !
 ! A11   A(3,2,68)             113.3423         estimate D2E/DX2                !
 ! A12   A(10,2,68)            108.4054         estimate D2E/DX2                !
 ! A13   A(2,3,5)              103.7196         estimate D2E/DX2                !
 ! A14   A(2,3,12)             105.389          estimate D2E/DX2                !
 ! A15   A(2,3,69)             116.4289         estimate D2E/DX2                !
 ! A16   A(5,3,12)             106.3307         estimate D2E/DX2                !
 ! A17   A(5,3,69)             111.0588         estimate D2E/DX2                !
 ! A18   A(12,3,69)            113.023          estimate D2E/DX2                !
 ! A19   A(1,4,5)              101.8827         estimate D2E/DX2                !
 ! A20   A(1,4,6)              106.4843         estimate D2E/DX2                !
 ! A21   A(1,4,71)             113.2221         estimate D2E/DX2                !
 ! A22   A(5,4,6)              112.3516         estimate D2E/DX2                !
 ! A23   A(5,4,71)             108.5288         estimate D2E/DX2                !
 ! A24   A(6,4,71)             113.7935         estimate D2E/DX2                !
 ! A25   A(3,5,4)              114.6356         estimate D2E/DX2                !
 ! A26   A(3,5,15)             119.7246         estimate D2E/DX2                !
 ! A27   A(4,5,15)             124.0358         estimate D2E/DX2                !
 ! A28   A(4,6,8)              103.4172         estimate D2E/DX2                !
 ! A29   A(4,6,17)             115.8788         estimate D2E/DX2                !
 ! A30   A(4,6,72)             112.0154         estimate D2E/DX2                !
 ! A31   A(8,6,17)             108.7765         estimate D2E/DX2                !
 ! A32   A(8,6,72)             109.0941         estimate D2E/DX2                !
 ! A33   A(17,6,72)            107.4444         estimate D2E/DX2                !
 ! A34   A(1,7,8)              111.8235         estimate D2E/DX2                !
 ! A35   A(1,7,9)              124.6861         estimate D2E/DX2                !
 ! A36   A(8,7,9)              120.2797         estimate D2E/DX2                !
 ! A37   A(6,8,7)              112.7464         estimate D2E/DX2                !
 ! A38   A(6,8,20)             121.3096         estimate D2E/DX2                !
 ! A39   A(7,8,20)             123.5474         estimate D2E/DX2                !
 ! A40   A(7,9,11)             117.5159         estimate D2E/DX2                !
 ! A41   A(7,9,22)             114.8886         estimate D2E/DX2                !
 ! A42   A(11,9,22)            119.6445         estimate D2E/DX2                !
 ! A43   A(2,10,11)            126.3469         estimate D2E/DX2                !
 ! A44   A(2,10,13)            112.2051         estimate D2E/DX2                !
 ! A45   A(11,10,13)           114.6073         estimate D2E/DX2                !
 ! A46   A(9,11,10)            115.3011         estimate D2E/DX2                !
 ! A47   A(9,11,25)            118.4115         estimate D2E/DX2                !
 ! A48   A(10,11,25)           117.3695         estimate D2E/DX2                !
 ! A49   A(3,12,13)            109.5607         estimate D2E/DX2                !
 ! A50   A(3,12,14)            124.8894         estimate D2E/DX2                !
 ! A51   A(13,12,14)           119.1591         estimate D2E/DX2                !
 ! A52   A(10,13,12)           108.3199         estimate D2E/DX2                !
 ! A53   A(10,13,27)           126.4638         estimate D2E/DX2                !
 ! A54   A(12,13,27)           120.3733         estimate D2E/DX2                !
 ! A55   A(12,14,16)           116.162          estimate D2E/DX2                !
 ! A56   A(12,14,29)           120.5526         estimate D2E/DX2                !
 ! A57   A(16,14,29)           121.4173         estimate D2E/DX2                !
 ! A58   A(5,15,16)            124.0432         estimate D2E/DX2                !
 ! A59   A(5,15,18)            119.3341         estimate D2E/DX2                !
 ! A60   A(16,15,18)           111.2427         estimate D2E/DX2                !
 ! A61   A(14,16,15)           106.7988         estimate D2E/DX2                !
 ! A62   A(14,16,32)           111.7519         estimate D2E/DX2                !
 ! A63   A(14,16,70)           108.8332         estimate D2E/DX2                !
 ! A64   A(15,16,32)           100.9747         estimate D2E/DX2                !
 ! A65   A(15,16,70)           115.3836         estimate D2E/DX2                !
 ! A66   A(32,16,70)           112.8351         estimate D2E/DX2                !
 ! A67   A(6,17,18)            120.0438         estimate D2E/DX2                !
 ! A68   A(6,17,19)            119.0223         estimate D2E/DX2                !
 ! A69   A(18,17,19)           118.4352         estimate D2E/DX2                !
 ! A70   A(15,18,17)           120.6724         estimate D2E/DX2                !
 ! A71   A(15,18,33)           106.4067         estimate D2E/DX2                !
 ! A72   A(17,18,33)           123.7617         estimate D2E/DX2                !
 ! A73   A(17,19,21)           118.9852         estimate D2E/DX2                !
 ! A74   A(17,19,35)           116.5565         estimate D2E/DX2                !
 ! A75   A(21,19,35)           118.1033         estimate D2E/DX2                !
 ! A76   A(8,20,21)            119.8046         estimate D2E/DX2                !
 ! A77   A(8,20,23)            114.6786         estimate D2E/DX2                !
 ! A78   A(21,20,23)           120.2446         estimate D2E/DX2                !
 ! A79   A(19,21,20)           118.6177         estimate D2E/DX2                !
 ! A80   A(19,21,38)           118.7289         estimate D2E/DX2                !
 ! A81   A(20,21,38)           116.1959         estimate D2E/DX2                !
 ! A82   A(9,22,23)            122.3226         estimate D2E/DX2                !
 ! A83   A(9,22,24)            121.3804         estimate D2E/DX2                !
 ! A84   A(23,22,24)           107.7377         estimate D2E/DX2                !
 ! A85   A(20,23,22)           120.1543         estimate D2E/DX2                !
 ! A86   A(20,23,40)           122.2069         estimate D2E/DX2                !
 ! A87   A(22,23,40)           108.1881         estimate D2E/DX2                !
 ! A88   A(22,24,26)           117.9881         estimate D2E/DX2                !
 ! A89   A(22,24,41)           108.613          estimate D2E/DX2                !
 ! A90   A(26,24,41)           120.8996         estimate D2E/DX2                !
 ! A91   A(11,25,26)           119.8387         estimate D2E/DX2                !
 ! A92   A(11,25,28)           125.3362         estimate D2E/DX2                !
 ! A93   A(26,25,28)           109.185          estimate D2E/DX2                !
 ! A94   A(24,26,25)           121.598          estimate D2E/DX2                !
 ! A95   A(24,26,44)           118.6821         estimate D2E/DX2                !
 ! A96   A(25,26,44)           110.0711         estimate D2E/DX2                !
 ! A97   A(13,27,28)           115.6411         estimate D2E/DX2                !
 ! A98   A(13,27,30)           119.8722         estimate D2E/DX2                !
 ! A99   A(28,27,30)           122.8631         estimate D2E/DX2                !
 ! A100  A(25,28,27)           107.0134         estimate D2E/DX2                !
 ! A101  A(25,28,45)           101.9138         estimate D2E/DX2                !
 ! A102  A(25,28,74)           115.4808         estimate D2E/DX2                !
 ! A103  A(27,28,45)           111.4103         estimate D2E/DX2                !
 ! A104  A(27,28,74)           109.2772         estimate D2E/DX2                !
 ! A105  A(45,28,74)           111.5287         estimate D2E/DX2                !
 ! A106  A(14,29,30)           118.2496         estimate D2E/DX2                !
 ! A107  A(14,29,31)           118.0608         estimate D2E/DX2                !
 ! A108  A(30,29,31)           119.8954         estimate D2E/DX2                !
 ! A109  A(27,30,29)           119.8135         estimate D2E/DX2                !
 ! A110  A(27,30,47)           119.8204         estimate D2E/DX2                !
 ! A111  A(29,30,47)           119.4223         estimate D2E/DX2                !
 ! A112  A(29,31,34)           120.349          estimate D2E/DX2                !
 ! A113  A(29,31,49)           120.0994         estimate D2E/DX2                !
 ! A114  A(34,31,49)           107.2654         estimate D2E/DX2                !
 ! A115  A(16,32,33)           111.3844         estimate D2E/DX2                !
 ! A116  A(16,32,34)           120.9406         estimate D2E/DX2                !
 ! A117  A(33,32,34)           118.2669         estimate D2E/DX2                !
 ! A118  A(18,33,32)           109.3184         estimate D2E/DX2                !
 ! A119  A(18,33,36)           118.3239         estimate D2E/DX2                !
 ! A120  A(32,33,36)           121.6463         estimate D2E/DX2                !
 ! A121  A(31,34,32)           120.6075         estimate D2E/DX2                !
 ! A122  A(31,34,51)           107.8912         estimate D2E/DX2                !
 ! A123  A(32,34,51)           120.5259         estimate D2E/DX2                !
 ! A124  A(19,35,36)           122.9464         estimate D2E/DX2                !
 ! A125  A(19,35,37)           122.1597         estimate D2E/DX2                !
 ! A126  A(36,35,37)           106.1757         estimate D2E/DX2                !
 ! A127  A(33,36,35)           118.7391         estimate D2E/DX2                !
 ! A128  A(33,36,52)           119.6568         estimate D2E/DX2                !
 ! A129  A(35,36,52)           109.6726         estimate D2E/DX2                !
 ! A130  A(35,37,39)           119.5094         estimate D2E/DX2                !
 ! A131  A(35,37,53)           109.0993         estimate D2E/DX2                !
 ! A132  A(39,37,53)           120.469          estimate D2E/DX2                !
 ! A133  A(21,38,39)           121.8255         estimate D2E/DX2                !
 ! A134  A(21,38,42)           122.3878         estimate D2E/DX2                !
 ! A135  A(39,38,42)           106.5403         estimate D2E/DX2                !
 ! A136  A(37,39,38)           119.5072         estimate D2E/DX2                !
 ! A137  A(37,39,57)           120.1392         estimate D2E/DX2                !
 ! A138  A(38,39,57)           108.9487         estimate D2E/DX2                !
 ! A139  A(23,40,41)           108.2071         estimate D2E/DX2                !
 ! A140  A(23,40,42)           118.3915         estimate D2E/DX2                !
 ! A141  A(41,40,42)           121.4059         estimate D2E/DX2                !
 ! A142  A(24,41,40)           107.0159         estimate D2E/DX2                !
 ! A143  A(24,41,43)           120.4222         estimate D2E/DX2                !
 ! A144  A(40,41,43)           119.0659         estimate D2E/DX2                !
 ! A145  A(38,42,40)           120.2619         estimate D2E/DX2                !
 ! A146  A(38,42,58)           109.0066         estimate D2E/DX2                !
 ! A147  A(40,42,58)           119.4797         estimate D2E/DX2                !
 ! A148  A(41,43,46)           118.8504         estimate D2E/DX2                !
 ! A149  A(41,43,59)           119.6679         estimate D2E/DX2                !
 ! A150  A(46,43,59)           108.8979         estimate D2E/DX2                !
 ! A151  A(26,44,45)           106.7443         estimate D2E/DX2                !
 ! A152  A(26,44,46)           119.8674         estimate D2E/DX2                !
 ! A153  A(45,44,46)           121.4647         estimate D2E/DX2                !
 ! A154  A(28,45,44)           110.878          estimate D2E/DX2                !
 ! A155  A(28,45,48)           121.9751         estimate D2E/DX2                !
 ! A156  A(44,45,48)           119.9051         estimate D2E/DX2                !
 ! A157  A(43,46,44)           121.2492         estimate D2E/DX2                !
 ! A158  A(43,46,61)           107.756          estimate D2E/DX2                !
 ! A159  A(44,46,61)           118.9085         estimate D2E/DX2                !
 ! A160  A(30,47,48)           110.9695         estimate D2E/DX2                !
 ! A161  A(30,47,50)           111.9845         estimate D2E/DX2                !
 ! A162  A(30,47,73)           106.2062         estimate D2E/DX2                !
 ! A163  A(48,47,50)           101.0572         estimate D2E/DX2                !
 ! A164  A(48,47,73)           112.3834         estimate D2E/DX2                !
 ! A165  A(50,47,73)           114.3549         estimate D2E/DX2                !
 ! A166  A(45,48,47)           122.54           estimate D2E/DX2                !
 ! A167  A(45,48,62)           119.3069         estimate D2E/DX2                !
 ! A168  A(47,48,62)           110.8042         estimate D2E/DX2                !
 ! A169  A(31,49,50)           121.0245         estimate D2E/DX2                !
 ! A170  A(31,49,54)           107.9646         estimate D2E/DX2                !
 ! A171  A(50,49,54)           120.4242         estimate D2E/DX2                !
 ! A172  A(47,50,49)           121.824          estimate D2E/DX2                !
 ! A173  A(47,50,63)           111.4525         estimate D2E/DX2                !
 ! A174  A(49,50,63)           119.0048         estimate D2E/DX2                !
 ! A175  A(34,51,52)           120.031          estimate D2E/DX2                !
 ! A176  A(34,51,54)           107.807          estimate D2E/DX2                !
 ! A177  A(52,51,54)           119.537          estimate D2E/DX2                !
 ! A178  A(36,52,51)           118.6771         estimate D2E/DX2                !
 ! A179  A(36,52,53)           107.1739         estimate D2E/DX2                !
 ! A180  A(51,52,53)           120.9063         estimate D2E/DX2                !
 ! A181  A(37,53,52)           107.3332         estimate D2E/DX2                !
 ! A182  A(37,53,55)           119.4176         estimate D2E/DX2                !
 ! A183  A(52,53,55)           119.6223         estimate D2E/DX2                !
 ! A184  A(49,54,51)           108.6276         estimate D2E/DX2                !
 ! A185  A(49,54,56)           120.378          estimate D2E/DX2                !
 ! A186  A(51,54,56)           119.4389         estimate D2E/DX2                !
 ! A187  A(53,55,56)           119.3172         estimate D2E/DX2                !
 ! A188  A(53,55,60)           119.8402         estimate D2E/DX2                !
 ! A189  A(56,55,60)           108.2393         estimate D2E/DX2                !
 ! A190  A(54,56,55)           120.9411         estimate D2E/DX2                !
 ! A191  A(54,56,64)           119.1326         estimate D2E/DX2                !
 ! A192  A(55,56,64)           108.1076         estimate D2E/DX2                !
 ! A193  A(39,57,58)           107.6441         estimate D2E/DX2                !
 ! A194  A(39,57,60)           119.2666         estimate D2E/DX2                !
 ! A195  A(58,57,60)           120.1191         estimate D2E/DX2                !
 ! A196  A(42,58,57)           107.6325         estimate D2E/DX2                !
 ! A197  A(42,58,59)           119.1891         estimate D2E/DX2                !
 ! A198  A(57,58,59)           120.1653         estimate D2E/DX2                !
 ! A199  A(43,59,58)           120.9679         estimate D2E/DX2                !
 ! A200  A(43,59,65)           106.5734         estimate D2E/DX2                !
 ! A201  A(58,59,65)           119.8627         estimate D2E/DX2                !
 ! A202  A(55,60,57)           120.5216         estimate D2E/DX2                !
 ! A203  A(55,60,66)           107.3138         estimate D2E/DX2                !
 ! A204  A(57,60,66)           119.8243         estimate D2E/DX2                !
 ! A205  A(46,61,62)           118.945          estimate D2E/DX2                !
 ! A206  A(46,61,65)           107.859          estimate D2E/DX2                !
 ! A207  A(62,61,65)           120.7327         estimate D2E/DX2                !
 ! A208  A(48,62,61)           121.397          estimate D2E/DX2                !
 ! A209  A(48,62,63)           108.2823         estimate D2E/DX2                !
 ! A210  A(61,62,63)           119.7113         estimate D2E/DX2                !
 ! A211  A(50,63,62)           107.8928         estimate D2E/DX2                !
 ! A212  A(50,63,64)           121.2655         estimate D2E/DX2                !
 ! A213  A(62,63,64)           119.5733         estimate D2E/DX2                !
 ! A214  A(56,64,63)           119.6831         estimate D2E/DX2                !
 ! A215  A(56,64,66)           107.7991         estimate D2E/DX2                !
 ! A216  A(63,64,66)           120.473          estimate D2E/DX2                !
 ! A217  A(59,65,61)           108.8737         estimate D2E/DX2                !
 ! A218  A(59,65,66)           119.8746         estimate D2E/DX2                !
 ! A219  A(61,65,66)           119.4166         estimate D2E/DX2                !
 ! A220  A(60,66,64)           108.4892         estimate D2E/DX2                !
 ! A221  A(60,66,65)           120.0258         estimate D2E/DX2                !
 ! A222  A(64,66,65)           119.9639         estimate D2E/DX2                !
 ! D1    D(4,1,2,3)             -3.9268         estimate D2E/DX2                !
 ! D2    D(4,1,2,10)          -116.5289         estimate D2E/DX2                !
 ! D3    D(4,1,2,68)           121.0211         estimate D2E/DX2                !
 ! D4    D(7,1,2,3)            109.3396         estimate D2E/DX2                !
 ! D5    D(7,1,2,10)            -3.2625         estimate D2E/DX2                !
 ! D6    D(7,1,2,68)          -125.7124         estimate D2E/DX2                !
 ! D7    D(67,1,2,3)          -128.9805         estimate D2E/DX2                !
 ! D8    D(67,1,2,10)          118.4174         estimate D2E/DX2                !
 ! D9    D(67,1,2,68)           -4.0326         estimate D2E/DX2                !
 ! D10   D(2,1,4,5)             15.3096         estimate D2E/DX2                !
 ! D11   D(2,1,4,6)            133.1843         estimate D2E/DX2                !
 ! D12   D(2,1,4,71)          -101.0275         estimate D2E/DX2                !
 ! D13   D(7,1,4,5)           -103.8591         estimate D2E/DX2                !
 ! D14   D(7,1,4,6)             14.0157         estimate D2E/DX2                !
 ! D15   D(7,1,4,71)           139.8039         estimate D2E/DX2                !
 ! D16   D(67,1,4,5)           141.0602         estimate D2E/DX2                !
 ! D17   D(67,1,4,6)          -101.065          estimate D2E/DX2                !
 ! D18   D(67,1,4,71)           24.7231         estimate D2E/DX2                !
 ! D19   D(2,1,7,8)           -129.7685         estimate D2E/DX2                !
 ! D20   D(2,1,7,9)             29.8962         estimate D2E/DX2                !
 ! D21   D(4,1,7,8)            -13.9122         estimate D2E/DX2                !
 ! D22   D(4,1,7,9)            145.7525         estimate D2E/DX2                !
 ! D23   D(67,1,7,8)           104.9203         estimate D2E/DX2                !
 ! D24   D(67,1,7,9)           -95.4149         estimate D2E/DX2                !
 ! D25   D(1,2,3,5)             -9.2524         estimate D2E/DX2                !
 ! D26   D(1,2,3,12)          -120.8077         estimate D2E/DX2                !
 ! D27   D(1,2,3,69)           113.0502         estimate D2E/DX2                !
 ! D28   D(10,2,3,5)           109.7315         estimate D2E/DX2                !
 ! D29   D(10,2,3,12)           -1.8237         estimate D2E/DX2                !
 ! D30   D(10,2,3,69)         -127.9659         estimate D2E/DX2                !
 ! D31   D(68,2,3,5)          -133.3661         estimate D2E/DX2                !
 ! D32   D(68,2,3,12)          115.0786         estimate D2E/DX2                !
 ! D33   D(68,2,3,69)          -11.0636         estimate D2E/DX2                !
 ! D34   D(1,2,10,11)          -24.8672         estimate D2E/DX2                !
 ! D35   D(1,2,10,13)          124.3098         estimate D2E/DX2                !
 ! D36   D(3,2,10,11)         -140.0815         estimate D2E/DX2                !
 ! D37   D(3,2,10,13)            9.0955         estimate D2E/DX2                !
 ! D38   D(68,2,10,11)          99.566          estimate D2E/DX2                !
 ! D39   D(68,2,10,13)        -111.257          estimate D2E/DX2                !
 ! D40   D(2,3,5,4)             21.0449         estimate D2E/DX2                !
 ! D41   D(2,3,5,15)          -145.0967         estimate D2E/DX2                !
 ! D42   D(12,3,5,4)           131.9108         estimate D2E/DX2                !
 ! D43   D(12,3,5,15)          -34.2308         estimate D2E/DX2                !
 ! D44   D(69,3,5,4)          -104.7545         estimate D2E/DX2                !
 ! D45   D(69,3,5,15)           89.1039         estimate D2E/DX2                !
 ! D46   D(2,3,12,13)           -5.7398         estimate D2E/DX2                !
 ! D47   D(2,3,12,14)          145.681          estimate D2E/DX2                !
 ! D48   D(5,3,12,13)         -115.4326         estimate D2E/DX2                !
 ! D49   D(5,3,12,14)           35.9882         estimate D2E/DX2                !
 ! D50   D(69,3,12,13)         122.4708         estimate D2E/DX2                !
 ! D51   D(69,3,12,14)         -86.1084         estimate D2E/DX2                !
 ! D52   D(1,4,5,3)            -23.1017         estimate D2E/DX2                !
 ! D53   D(1,4,5,15)           142.3612         estimate D2E/DX2                !
 ! D54   D(6,4,5,3)           -136.6824         estimate D2E/DX2                !
 ! D55   D(6,4,5,15)            28.7805         estimate D2E/DX2                !
 ! D56   D(71,4,5,3)            96.5999         estimate D2E/DX2                !
 ! D57   D(71,4,5,15)          -97.9372         estimate D2E/DX2                !
 ! D58   D(1,4,6,8)             -9.6493         estimate D2E/DX2                !
 ! D59   D(1,4,6,17)          -128.5647         estimate D2E/DX2                !
 ! D60   D(1,4,6,72)           107.6866         estimate D2E/DX2                !
 ! D61   D(5,4,6,8)            101.0739         estimate D2E/DX2                !
 ! D62   D(5,4,6,17)           -17.8414         estimate D2E/DX2                !
 ! D63   D(5,4,6,72)          -141.5901         estimate D2E/DX2                !
 ! D64   D(71,4,6,8)          -135.0905         estimate D2E/DX2                !
 ! D65   D(71,4,6,17)          105.9941         estimate D2E/DX2                !
 ! D66   D(71,4,6,72)          -17.7546         estimate D2E/DX2                !
 ! D67   D(3,5,15,16)           -1.4298         estimate D2E/DX2                !
 ! D68   D(3,5,15,18)          150.3616         estimate D2E/DX2                !
 ! D69   D(4,5,15,16)         -166.1977         estimate D2E/DX2                !
 ! D70   D(4,5,15,18)          -14.4062         estimate D2E/DX2                !
 ! D71   D(4,6,8,7)              1.2975         estimate D2E/DX2                !
 ! D72   D(4,6,8,20)          -161.7179         estimate D2E/DX2                !
 ! D73   D(17,6,8,7)           125.0109         estimate D2E/DX2                !
 ! D74   D(17,6,8,20)          -38.0044         estimate D2E/DX2                !
 ! D75   D(72,6,8,7)          -118.0688         estimate D2E/DX2                !
 ! D76   D(72,6,8,20)           78.9159         estimate D2E/DX2                !
 ! D77   D(4,6,17,18)           -5.3535         estimate D2E/DX2                !
 ! D78   D(4,6,17,19)          156.4427         estimate D2E/DX2                !
 ! D79   D(8,6,17,18)         -121.2869         estimate D2E/DX2                !
 ! D80   D(8,6,17,19)           40.5093         estimate D2E/DX2                !
 ! D81   D(72,6,17,18)         120.7441         estimate D2E/DX2                !
 ! D82   D(72,6,17,19)         -77.4597         estimate D2E/DX2                !
 ! D83   D(1,7,8,6)              8.3156         estimate D2E/DX2                !
 ! D84   D(1,7,8,20)           170.8906         estimate D2E/DX2                !
 ! D85   D(9,7,8,6)           -152.3612         estimate D2E/DX2                !
 ! D86   D(9,7,8,20)            10.2138         estimate D2E/DX2                !
 ! D87   D(1,7,9,11)           -29.5042         estimate D2E/DX2                !
 ! D88   D(1,7,9,22)          -178.4275         estimate D2E/DX2                !
 ! D89   D(8,7,9,11)           128.5596         estimate D2E/DX2                !
 ! D90   D(8,7,9,22)           -20.3637         estimate D2E/DX2                !
 ! D91   D(6,8,20,21)           15.3076         estimate D2E/DX2                !
 ! D92   D(6,8,20,23)          169.7333         estimate D2E/DX2                !
 ! D93   D(7,8,20,21)         -145.8335         estimate D2E/DX2                !
 ! D94   D(7,8,20,23)            8.5922         estimate D2E/DX2                !
 ! D95   D(7,9,11,10)            0.4179         estimate D2E/DX2                !
 ! D96   D(7,9,11,25)         -146.0799         estimate D2E/DX2                !
 ! D97   D(22,9,11,10)         147.8183         estimate D2E/DX2                !
 ! D98   D(22,9,11,25)           1.3205         estimate D2E/DX2                !
 ! D99   D(7,9,22,23)           12.6363         estimate D2E/DX2                !
 ! D100  D(7,9,22,24)          156.558          estimate D2E/DX2                !
 ! D101  D(11,9,22,23)        -135.5782         estimate D2E/DX2                !
 ! D102  D(11,9,22,24)           8.3434         estimate D2E/DX2                !
 ! D103  D(2,10,11,9)           27.1476         estimate D2E/DX2                !
 ! D104  D(2,10,11,25)         174.008          estimate D2E/DX2                !
 ! D105  D(13,10,11,9)        -121.4012         estimate D2E/DX2                !
 ! D106  D(13,10,11,25)         25.4592         estimate D2E/DX2                !
 ! D107  D(2,10,13,12)         -13.1722         estimate D2E/DX2                !
 ! D108  D(2,10,13,27)        -168.2609         estimate D2E/DX2                !
 ! D109  D(11,10,13,12)        139.8322         estimate D2E/DX2                !
 ! D110  D(11,10,13,27)        -15.2565         estimate D2E/DX2                !
 ! D111  D(9,11,25,26)          -8.2287         estimate D2E/DX2                !
 ! D112  D(9,11,25,28)         142.3552         estimate D2E/DX2                !
 ! D113  D(10,11,25,26)       -154.0399         estimate D2E/DX2                !
 ! D114  D(10,11,25,28)         -3.456          estimate D2E/DX2                !
 ! D115  D(3,12,13,10)          11.5295         estimate D2E/DX2                !
 ! D116  D(3,12,13,27)         168.4103         estimate D2E/DX2                !
 ! D117  D(14,12,13,10)       -141.7696         estimate D2E/DX2                !
 ! D118  D(14,12,13,27)         15.1112         estimate D2E/DX2                !
 ! D119  D(3,12,14,16)          -0.3719         estimate D2E/DX2                !
 ! D120  D(3,12,14,29)        -165.0308         estimate D2E/DX2                !
 ! D121  D(13,12,14,16)        148.5517         estimate D2E/DX2                !
 ! D122  D(13,12,14,29)        -16.1072         estimate D2E/DX2                !
 ! D123  D(10,13,27,28)        -18.1733         estimate D2E/DX2                !
 ! D124  D(10,13,27,30)        147.7179         estimate D2E/DX2                !
 ! D125  D(12,13,27,28)       -170.5614         estimate D2E/DX2                !
 ! D126  D(12,13,27,30)         -4.6703         estimate D2E/DX2                !
 ! D127  D(12,14,16,15)        -34.8225         estimate D2E/DX2                !
 ! D128  D(12,14,16,32)       -144.3684         estimate D2E/DX2                !
 ! D129  D(12,14,16,70)         90.353          estimate D2E/DX2                !
 ! D130  D(29,14,16,15)        129.6933         estimate D2E/DX2                !
 ! D131  D(29,14,16,32)         20.1474         estimate D2E/DX2                !
 ! D132  D(29,14,16,70)       -105.1312         estimate D2E/DX2                !
 ! D133  D(12,14,29,30)          6.9741         estimate D2E/DX2                !
 ! D134  D(12,14,29,31)        165.0389         estimate D2E/DX2                !
 ! D135  D(16,14,29,30)       -156.8699         estimate D2E/DX2                !
 ! D136  D(16,14,29,31)          1.1949         estimate D2E/DX2                !
 ! D137  D(5,15,16,14)          37.7962         estimate D2E/DX2                !
 ! D138  D(5,15,16,32)         154.7238         estimate D2E/DX2                !
 ! D139  D(5,15,16,70)         -83.3002         estimate D2E/DX2                !
 ! D140  D(18,15,16,14)       -115.9649         estimate D2E/DX2                !
 ! D141  D(18,15,16,32)          0.9626         estimate D2E/DX2                !
 ! D142  D(18,15,16,70)        122.9386         estimate D2E/DX2                !
 ! D143  D(5,15,18,17)         -12.8272         estimate D2E/DX2                !
 ! D144  D(5,15,18,33)        -160.8435         estimate D2E/DX2                !
 ! D145  D(16,15,18,17)        142.324          estimate D2E/DX2                !
 ! D146  D(16,15,18,33)         -5.6923         estimate D2E/DX2                !
 ! D147  D(14,16,32,33)        117.4324         estimate D2E/DX2                !
 ! D148  D(14,16,32,34)        -28.4316         estimate D2E/DX2                !
 ! D149  D(15,16,32,33)          4.2076         estimate D2E/DX2                !
 ! D150  D(15,16,32,34)       -141.6564         estimate D2E/DX2                !
 ! D151  D(70,16,32,33)       -119.5342         estimate D2E/DX2                !
 ! D152  D(70,16,32,34)         94.6018         estimate D2E/DX2                !
 ! D153  D(6,17,18,15)          21.8611         estimate D2E/DX2                !
 ! D154  D(6,17,18,33)         164.1861         estimate D2E/DX2                !
 ! D155  D(19,17,18,15)       -140.0405         estimate D2E/DX2                !
 ! D156  D(19,17,18,33)          2.2845         estimate D2E/DX2                !
 ! D157  D(6,17,19,21)         -21.1924         estimate D2E/DX2                !
 ! D158  D(6,17,19,35)        -172.704          estimate D2E/DX2                !
 ! D159  D(18,17,19,21)        140.8974         estimate D2E/DX2                !
 ! D160  D(18,17,19,35)        -10.6142         estimate D2E/DX2                !
 ! D161  D(15,18,33,32)          8.2616         estimate D2E/DX2                !
 ! D162  D(15,18,33,36)        153.4            estimate D2E/DX2                !
 ! D163  D(17,18,33,32)       -138.5092         estimate D2E/DX2                !
 ! D164  D(17,18,33,36)          6.6292         estimate D2E/DX2                !
 ! D165  D(17,19,21,20)         -4.9272         estimate D2E/DX2                !
 ! D166  D(17,19,21,38)       -155.6827         estimate D2E/DX2                !
 ! D167  D(35,19,21,20)        146.1466         estimate D2E/DX2                !
 ! D168  D(35,19,21,38)         -4.6089         estimate D2E/DX2                !
 ! D169  D(17,19,35,36)         10.7945         estimate D2E/DX2                !
 ! D170  D(17,19,35,37)        153.8883         estimate D2E/DX2                !
 ! D171  D(21,19,35,36)       -140.976          estimate D2E/DX2                !
 ! D172  D(21,19,35,37)          2.1177         estimate D2E/DX2                !
 ! D173  D(8,20,21,19)           8.1991         estimate D2E/DX2                !
 ! D174  D(8,20,21,38)         159.6808         estimate D2E/DX2                !
 ! D175  D(23,20,21,19)       -144.7966         estimate D2E/DX2                !
 ! D176  D(23,20,21,38)          6.6852         estimate D2E/DX2                !
 ! D177  D(8,20,23,22)         -16.2296         estimate D2E/DX2                !
 ! D178  D(8,20,23,40)        -158.6562         estimate D2E/DX2                !
 ! D179  D(21,20,23,22)        138.0741         estimate D2E/DX2                !
 ! D180  D(21,20,23,40)         -4.3525         estimate D2E/DX2                !
 ! D181  D(19,21,38,39)          4.1244         estimate D2E/DX2                !
 ! D182  D(19,21,38,42)        146.3542         estimate D2E/DX2                !
 ! D183  D(20,21,38,39)       -147.3243         estimate D2E/DX2                !
 ! D184  D(20,21,38,42)         -5.0945         estimate D2E/DX2                !
 ! D185  D(9,22,23,20)           5.8673         estimate D2E/DX2                !
 ! D186  D(9,22,23,40)         152.9734         estimate D2E/DX2                !
 ! D187  D(24,22,23,20)       -142.2726         estimate D2E/DX2                !
 ! D188  D(24,22,23,40)          4.8335         estimate D2E/DX2                !
 ! D189  D(9,22,24,26)         -10.8807         estimate D2E/DX2                !
 ! D190  D(9,22,24,41)        -153.3128         estimate D2E/DX2                !
 ! D191  D(23,22,24,26)        137.6204         estimate D2E/DX2                !
 ! D192  D(23,22,24,41)         -4.8116         estimate D2E/DX2                !
 ! D193  D(20,23,40,41)        143.2649         estimate D2E/DX2                !
 ! D194  D(20,23,40,42)          0.0057         estimate D2E/DX2                !
 ! D195  D(22,23,40,41)         -3.0252         estimate D2E/DX2                !
 ! D196  D(22,23,40,42)       -146.2843         estimate D2E/DX2                !
 ! D197  D(22,24,26,25)          3.7469         estimate D2E/DX2                !
 ! D198  D(22,24,26,44)       -138.9853         estimate D2E/DX2                !
 ! D199  D(41,24,26,25)        141.418          estimate D2E/DX2                !
 ! D200  D(41,24,26,44)         -1.3143         estimate D2E/DX2                !
 ! D201  D(22,24,41,40)          2.9378         estimate D2E/DX2                !
 ! D202  D(22,24,41,43)        143.1915         estimate D2E/DX2                !
 ! D203  D(26,24,41,40)       -138.2            estimate D2E/DX2                !
 ! D204  D(26,24,41,43)          2.0537         estimate D2E/DX2                !
 ! D205  D(11,25,26,24)          5.7257         estimate D2E/DX2                !
 ! D206  D(11,25,26,44)        151.2826         estimate D2E/DX2                !
 ! D207  D(28,25,26,24)       -149.1726         estimate D2E/DX2                !
 ! D208  D(28,25,26,44)         -3.6157         estimate D2E/DX2                !
 ! D209  D(11,25,28,27)        -27.3492         estimate D2E/DX2                !
 ! D210  D(11,25,28,45)       -144.3957         estimate D2E/DX2                !
 ! D211  D(11,25,28,74)         94.5395         estimate D2E/DX2                !
 ! D212  D(26,25,28,27)        125.8372         estimate D2E/DX2                !
 ! D213  D(26,25,28,45)          8.7907         estimate D2E/DX2                !
 ! D214  D(26,25,28,74)       -112.2741         estimate D2E/DX2                !
 ! D215  D(24,26,44,45)        143.1107         estimate D2E/DX2                !
 ! D216  D(24,26,44,46)         -0.148          estimate D2E/DX2                !
 ! D217  D(25,26,44,45)         -3.583          estimate D2E/DX2                !
 ! D218  D(25,26,44,46)       -146.8417         estimate D2E/DX2                !
 ! D219  D(13,27,28,25)         35.8102         estimate D2E/DX2                !
 ! D220  D(13,27,28,45)        146.4119         estimate D2E/DX2                !
 ! D221  D(13,27,28,74)        -89.8967         estimate D2E/DX2                !
 ! D222  D(30,27,28,25)       -129.6146         estimate D2E/DX2                !
 ! D223  D(30,27,28,45)        -19.0129         estimate D2E/DX2                !
 ! D224  D(30,27,28,74)        104.6785         estimate D2E/DX2                !
 ! D225  D(13,27,30,29)         -4.492          estimate D2E/DX2                !
 ! D226  D(13,27,30,47)       -173.3139         estimate D2E/DX2                !
 ! D227  D(28,27,30,29)        160.3413         estimate D2E/DX2                !
 ! D228  D(28,27,30,47)         -8.4807         estimate D2E/DX2                !
 ! D229  D(25,28,45,44)        -11.2209         estimate D2E/DX2                !
 ! D230  D(25,28,45,48)        138.9081         estimate D2E/DX2                !
 ! D231  D(27,28,45,44)       -125.0451         estimate D2E/DX2                !
 ! D232  D(27,28,45,48)         25.0839         estimate D2E/DX2                !
 ! D233  D(74,28,45,44)        112.5509         estimate D2E/DX2                !
 ! D234  D(74,28,45,48)        -97.3201         estimate D2E/DX2                !
 ! D235  D(14,29,30,27)          3.5068         estimate D2E/DX2                !
 ! D236  D(14,29,30,47)        172.3734         estimate D2E/DX2                !
 ! D237  D(31,29,30,27)       -154.1445         estimate D2E/DX2                !
 ! D238  D(31,29,30,47)         14.7221         estimate D2E/DX2                !
 ! D239  D(14,29,31,34)        -16.6561         estimate D2E/DX2                !
 ! D240  D(14,29,31,49)       -154.1266         estimate D2E/DX2                !
 ! D241  D(30,29,31,34)        141.0367         estimate D2E/DX2                !
 ! D242  D(30,29,31,49)          3.5662         estimate D2E/DX2                !
 ! D243  D(27,30,47,48)         29.6454         estimate D2E/DX2                !
 ! D244  D(27,30,47,50)        141.7453         estimate D2E/DX2                !
 ! D245  D(27,30,47,73)        -92.7715         estimate D2E/DX2                !
 ! D246  D(29,30,47,48)       -139.2204         estimate D2E/DX2                !
 ! D247  D(29,30,47,50)        -27.1205         estimate D2E/DX2                !
 ! D248  D(29,30,47,73)         98.3627         estimate D2E/DX2                !
 ! D249  D(29,31,34,32)          8.8386         estimate D2E/DX2                !
 ! D250  D(29,31,34,51)       -135.3661         estimate D2E/DX2                !
 ! D251  D(49,31,34,32)        151.0742         estimate D2E/DX2                !
 ! D252  D(49,31,34,51)          6.8695         estimate D2E/DX2                !
 ! D253  D(29,31,49,50)         -7.618          estimate D2E/DX2                !
 ! D254  D(29,31,49,54)        137.0909         estimate D2E/DX2                !
 ! D255  D(34,31,49,50)       -149.966          estimate D2E/DX2                !
 ! D256  D(34,31,49,54)         -5.2571         estimate D2E/DX2                !
 ! D257  D(16,32,33,18)         -8.0931         estimate D2E/DX2                !
 ! D258  D(16,32,33,36)       -151.8615         estimate D2E/DX2                !
 ! D259  D(34,32,33,18)        138.7815         estimate D2E/DX2                !
 ! D260  D(34,32,33,36)         -4.9869         estimate D2E/DX2                !
 ! D261  D(16,32,34,31)         15.4304         estimate D2E/DX2                !
 ! D262  D(16,32,34,51)        155.1773         estimate D2E/DX2                !
 ! D263  D(33,32,34,31)       -128.1799         estimate D2E/DX2                !
 ! D264  D(33,32,34,51)         11.567          estimate D2E/DX2                !
 ! D265  D(18,33,36,35)         -6.6196         estimate D2E/DX2                !
 ! D266  D(18,33,36,52)       -145.5623         estimate D2E/DX2                !
 ! D267  D(32,33,36,35)        134.0619         estimate D2E/DX2                !
 ! D268  D(32,33,36,52)         -4.8808         estimate D2E/DX2                !
 ! D269  D(31,34,51,52)        135.7272         estimate D2E/DX2                !
 ! D270  D(31,34,51,54)         -5.8788         estimate D2E/DX2                !
 ! D271  D(32,34,51,52)         -8.5122         estimate D2E/DX2                !
 ! D272  D(32,34,51,54)       -150.1182         estimate D2E/DX2                !
 ! D273  D(19,35,36,33)         -2.1481         estimate D2E/DX2                !
 ! D274  D(19,35,36,52)        140.54           estimate D2E/DX2                !
 ! D275  D(37,35,36,33)       -150.1882         estimate D2E/DX2                !
 ! D276  D(37,35,36,52)         -7.5001         estimate D2E/DX2                !
 ! D277  D(19,35,37,39)          1.0699         estimate D2E/DX2                !
 ! D278  D(19,35,37,53)       -143.2791         estimate D2E/DX2                !
 ! D279  D(36,35,37,39)        149.4214         estimate D2E/DX2                !
 ! D280  D(36,35,37,53)          5.0725         estimate D2E/DX2                !
 ! D281  D(33,36,52,51)          7.9562         estimate D2E/DX2                !
 ! D282  D(33,36,52,53)        149.3828         estimate D2E/DX2                !
 ! D283  D(35,36,52,51)       -134.3382         estimate D2E/DX2                !
 ! D284  D(35,36,52,53)          7.0884         estimate D2E/DX2                !
 ! D285  D(35,37,39,38)         -1.6965         estimate D2E/DX2                !
 ! D286  D(35,37,39,57)       -141.163          estimate D2E/DX2                !
 ! D287  D(53,37,39,38)        138.5856         estimate D2E/DX2                !
 ! D288  D(53,37,39,57)         -0.8809         estimate D2E/DX2                !
 ! D289  D(35,37,53,52)         -0.8177         estimate D2E/DX2                !
 ! D290  D(35,37,53,55)        139.5746         estimate D2E/DX2                !
 ! D291  D(39,37,53,52)       -144.7665         estimate D2E/DX2                !
 ! D292  D(39,37,53,55)         -4.3742         estimate D2E/DX2                !
 ! D293  D(21,38,39,37)         -0.9332         estimate D2E/DX2                !
 ! D294  D(21,38,39,57)        142.6088         estimate D2E/DX2                !
 ! D295  D(42,38,39,37)       -148.2806         estimate D2E/DX2                !
 ! D296  D(42,38,39,57)         -4.7387         estimate D2E/DX2                !
 ! D297  D(21,38,42,40)          0.9892         estimate D2E/DX2                !
 ! D298  D(21,38,42,58)       -142.4846         estimate D2E/DX2                !
 ! D299  D(39,38,42,40)        148.1095         estimate D2E/DX2                !
 ! D300  D(39,38,42,58)          4.6358         estimate D2E/DX2                !
 ! D301  D(37,39,57,58)        146.3535         estimate D2E/DX2                !
 ! D302  D(37,39,57,60)          4.9218         estimate D2E/DX2                !
 ! D303  D(38,39,57,58)          3.0806         estimate D2E/DX2                !
 ! D304  D(38,39,57,60)       -138.3511         estimate D2E/DX2                !
 ! D305  D(23,40,41,24)          0.0652         estimate D2E/DX2                !
 ! D306  D(23,40,41,43)       -140.8257         estimate D2E/DX2                !
 ! D307  D(42,40,41,24)        141.9986         estimate D2E/DX2                !
 ! D308  D(42,40,41,43)          1.1077         estimate D2E/DX2                !
 ! D309  D(23,40,42,38)          1.7146         estimate D2E/DX2                !
 ! D310  D(23,40,42,58)        141.4412         estimate D2E/DX2                !
 ! D311  D(41,40,42,38)       -136.5427         estimate D2E/DX2                !
 ! D312  D(41,40,42,58)          3.1839         estimate D2E/DX2                !
 ! D313  D(24,41,43,46)         -1.266          estimate D2E/DX2                !
 ! D314  D(24,41,43,59)       -138.9453         estimate D2E/DX2                !
 ! D315  D(40,41,43,46)        134.3477         estimate D2E/DX2                !
 ! D316  D(40,41,43,59)         -3.3316         estimate D2E/DX2                !
 ! D317  D(38,42,58,57)         -2.7983         estimate D2E/DX2                !
 ! D318  D(38,42,58,59)        138.6016         estimate D2E/DX2                !
 ! D319  D(40,42,58,57)       -146.6028         estimate D2E/DX2                !
 ! D320  D(40,42,58,59)         -5.2029         estimate D2E/DX2                !
 ! D321  D(41,43,46,44)         -0.2003         estimate D2E/DX2                !
 ! D322  D(41,43,46,61)       -142.2028         estimate D2E/DX2                !
 ! D323  D(59,43,46,44)        141.604          estimate D2E/DX2                !
 ! D324  D(59,43,46,61)         -0.3985         estimate D2E/DX2                !
 ! D325  D(41,43,59,58)          1.2743         estimate D2E/DX2                !
 ! D326  D(41,43,59,65)        142.9454         estimate D2E/DX2                !
 ! D327  D(46,43,59,58)       -140.1673         estimate D2E/DX2                !
 ! D328  D(46,43,59,65)          1.5038         estimate D2E/DX2                !
 ! D329  D(26,44,45,28)          9.5565         estimate D2E/DX2                !
 ! D330  D(26,44,45,48)       -141.2752         estimate D2E/DX2                !
 ! D331  D(46,44,45,28)        152.0988         estimate D2E/DX2                !
 ! D332  D(46,44,45,48)          1.2671         estimate D2E/DX2                !
 ! D333  D(26,44,46,43)          0.9146         estimate D2E/DX2                !
 ! D334  D(26,44,46,61)        138.8663         estimate D2E/DX2                !
 ! D335  D(45,44,46,43)       -136.8956         estimate D2E/DX2                !
 ! D336  D(45,44,46,61)          1.0561         estimate D2E/DX2                !
 ! D337  D(28,45,48,47)         -3.2266         estimate D2E/DX2                !
 ! D338  D(28,45,48,62)       -150.5058         estimate D2E/DX2                !
 ! D339  D(44,45,48,47)        144.3057         estimate D2E/DX2                !
 ! D340  D(44,45,48,62)         -2.9735         estimate D2E/DX2                !
 ! D341  D(43,46,61,62)        141.4723         estimate D2E/DX2                !
 ! D342  D(43,46,61,65)         -0.8762         estimate D2E/DX2                !
 ! D343  D(44,46,61,62)         -1.5697         estimate D2E/DX2                !
 ! D344  D(44,46,61,65)       -143.9183         estimate D2E/DX2                !
 ! D345  D(30,47,48,45)        -24.2303         estimate D2E/DX2                !
 ! D346  D(30,47,48,62)        125.4889         estimate D2E/DX2                !
 ! D347  D(50,47,48,45)       -143.137          estimate D2E/DX2                !
 ! D348  D(50,47,48,62)          6.5822         estimate D2E/DX2                !
 ! D349  D(73,47,48,45)         94.5256         estimate D2E/DX2                !
 ! D350  D(73,47,48,62)       -115.7552         estimate D2E/DX2                !
 ! D351  D(30,47,50,49)         23.75           estimate D2E/DX2                !
 ! D352  D(30,47,50,63)       -125.2334         estimate D2E/DX2                !
 ! D353  D(48,47,50,49)        141.9224         estimate D2E/DX2                !
 ! D354  D(48,47,50,63)         -7.0611         estimate D2E/DX2                !
 ! D355  D(73,47,50,49)        -97.1225         estimate D2E/DX2                !
 ! D356  D(73,47,50,63)        113.8941         estimate D2E/DX2                !
 ! D357  D(45,48,62,61)          2.4608         estimate D2E/DX2                !
 ! D358  D(45,48,62,63)        146.8662         estimate D2E/DX2                !
 ! D359  D(47,48,62,61)       -148.3646         estimate D2E/DX2                !
 ! D360  D(47,48,62,63)         -3.9592         estimate D2E/DX2                !
 ! D361  D(31,49,50,47)         -7.4102         estimate D2E/DX2                !
 ! D362  D(31,49,50,63)        139.335          estimate D2E/DX2                !
 ! D363  D(54,49,50,47)       -147.8176         estimate D2E/DX2                !
 ! D364  D(54,49,50,63)         -1.0725         estimate D2E/DX2                !
 ! D365  D(31,49,54,51)          1.664          estimate D2E/DX2                !
 ! D366  D(31,49,54,56)       -141.351          estimate D2E/DX2                !
 ! D367  D(50,49,54,51)        146.6242         estimate D2E/DX2                !
 ! D368  D(50,49,54,56)          3.6093         estimate D2E/DX2                !
 ! D369  D(47,50,63,62)          5.1524         estimate D2E/DX2                !
 ! D370  D(47,50,63,64)        148.5475         estimate D2E/DX2                !
 ! D371  D(49,50,63,62)       -144.8072         estimate D2E/DX2                !
 ! D372  D(49,50,63,64)         -1.4121         estimate D2E/DX2                !
 ! D373  D(34,51,52,36)         -1.4772         estimate D2E/DX2                !
 ! D374  D(34,51,52,53)       -137.5057         estimate D2E/DX2                !
 ! D375  D(54,51,52,36)        135.7073         estimate D2E/DX2                !
 ! D376  D(54,51,52,53)         -0.3212         estimate D2E/DX2                !
 ! D377  D(34,51,54,49)          2.6219         estimate D2E/DX2                !
 ! D378  D(34,51,54,56)        146.0408         estimate D2E/DX2                !
 ! D379  D(52,51,54,49)       -139.2072         estimate D2E/DX2                !
 ! D380  D(52,51,54,56)          4.2117         estimate D2E/DX2                !
 ! D381  D(36,52,53,37)         -3.7675         estimate D2E/DX2                !
 ! D382  D(36,52,53,55)       -144.0637         estimate D2E/DX2                !
 ! D383  D(51,52,53,37)        136.6222         estimate D2E/DX2                !
 ! D384  D(51,52,53,55)         -3.674          estimate D2E/DX2                !
 ! D385  D(37,53,55,56)       -131.8547         estimate D2E/DX2                !
 ! D386  D(37,53,55,60)          5.5341         estimate D2E/DX2                !
 ! D387  D(52,53,55,56)          3.7123         estimate D2E/DX2                !
 ! D388  D(52,53,55,60)        141.1011         estimate D2E/DX2                !
 ! D389  D(49,54,56,55)        134.936          estimate D2E/DX2                !
 ! D390  D(49,54,56,64)         -3.5637         estimate D2E/DX2                !
 ! D391  D(51,54,56,55)         -4.1736         estimate D2E/DX2                !
 ! D392  D(51,54,56,64)       -142.6733         estimate D2E/DX2                !
 ! D393  D(53,55,56,54)          0.1919         estimate D2E/DX2                !
 ! D394  D(53,55,56,64)        142.6777         estimate D2E/DX2                !
 ! D395  D(60,55,56,54)       -141.6142         estimate D2E/DX2                !
 ! D396  D(60,55,56,64)          0.8715         estimate D2E/DX2                !
 ! D397  D(53,55,60,57)         -1.4939         estimate D2E/DX2                !
 ! D398  D(53,55,60,66)       -143.5416         estimate D2E/DX2                !
 ! D399  D(56,55,60,57)        140.0777         estimate D2E/DX2                !
 ! D400  D(56,55,60,66)         -1.97           estimate D2E/DX2                !
 ! D401  D(54,56,64,63)          1.1028         estimate D2E/DX2                !
 ! D402  D(54,56,64,66)        143.8595         estimate D2E/DX2                !
 ! D403  D(55,56,64,63)       -142.1745         estimate D2E/DX2                !
 ! D404  D(55,56,64,66)          0.5823         estimate D2E/DX2                !
 ! D405  D(39,57,58,42)         -0.1708         estimate D2E/DX2                !
 ! D406  D(39,57,58,59)       -141.1231         estimate D2E/DX2                !
 ! D407  D(60,57,58,42)        140.8706         estimate D2E/DX2                !
 ! D408  D(60,57,58,59)         -0.0817         estimate D2E/DX2                !
 ! D409  D(39,57,60,55)         -3.7443         estimate D2E/DX2                !
 ! D410  D(39,57,60,66)        133.6636         estimate D2E/DX2                !
 ! D411  D(58,57,60,55)       -140.3627         estimate D2E/DX2                !
 ! D412  D(58,57,60,66)         -2.9549         estimate D2E/DX2                !
 ! D413  D(42,58,59,43)          3.0128         estimate D2E/DX2                !
 ! D414  D(42,58,59,65)       -133.7187         estimate D2E/DX2                !
 ! D415  D(57,58,59,43)        139.5645         estimate D2E/DX2                !
 ! D416  D(57,58,59,65)          2.833          estimate D2E/DX2                !
 ! D417  D(43,59,65,61)         -2.049          estimate D2E/DX2                !
 ! D418  D(43,59,65,66)       -144.7031         estimate D2E/DX2                !
 ! D419  D(58,59,65,61)        140.1304         estimate D2E/DX2                !
 ! D420  D(58,59,65,66)         -2.5237         estimate D2E/DX2                !
 ! D421  D(55,60,66,64)          2.3399         estimate D2E/DX2                !
 ! D422  D(55,60,66,65)        145.6158         estimate D2E/DX2                !
 ! D423  D(57,60,66,64)       -140.0222         estimate D2E/DX2                !
 ! D424  D(57,60,66,65)          3.2538         estimate D2E/DX2                !
 ! D425  D(46,61,62,48)         -0.1474         estimate D2E/DX2                !
 ! D426  D(46,61,62,63)       -140.6294         estimate D2E/DX2                !
 ! D427  D(65,61,62,48)        137.2883         estimate D2E/DX2                !
 ! D428  D(65,61,62,63)         -3.1937         estimate D2E/DX2                !
 ! D429  D(46,61,65,59)          1.8329         estimate D2E/DX2                !
 ! D430  D(46,61,65,66)        144.6851         estimate D2E/DX2                !
 ! D431  D(62,61,65,59)       -139.7129         estimate D2E/DX2                !
[...]
 Alpha virt. eigenvalues --    1.23646   1.23750   1.24147   1.25137   1.25374
 Alpha virt. eigenvalues --    1.25709   1.26053   1.26768   1.27385   1.27526
 Alpha virt. eigenvalues --    1.27957   1.28554   1.28814   1.29129   1.29478
 Alpha virt. eigenvalues --    1.29813   1.30266   1.30827   1.30955   1.31468
 Alpha virt. eigenvalues --    1.31691   1.32174   1.32477   1.32647   1.33021
 Alpha virt. eigenvalues --    1.33304   1.33982   1.34042   1.34460   1.34942
 Alpha virt. eigenvalues --    1.35129   1.35655   1.35798   1.35966   1.36309
 Alpha virt. eigenvalues --    1.36887   1.37130   1.37768   1.38188   1.38357
 Alpha virt. eigenvalues --    1.38736   1.39231   1.39478   1.39970   1.40131
 Alpha virt. eigenvalues --    1.40396   1.40546   1.40686   1.41040   1.41262
 Alpha virt. eigenvalues --    1.41724   1.41966   1.42139   1.42303   1.42378
 Alpha virt. eigenvalues --    1.42689   1.43049   1.43134   1.43335   1.43546
 Alpha virt. eigenvalues --    1.43615   1.44135   1.44299   1.44778   1.44917
 Alpha virt. eigenvalues --    1.45108   1.45297   1.45487   1.46060   1.46333
 Alpha virt. eigenvalues --    1.46519   1.46897   1.46934   1.47438   1.47567
 Alpha virt. eigenvalues --    1.47655   1.47799   1.48092   1.48177   1.48621
 Alpha virt. eigenvalues --    1.49228   1.49317   1.49658   1.50115   1.50210
 Alpha virt. eigenvalues --    1.50389   1.50702   1.50997   1.51533   1.51739
 Alpha virt. eigenvalues --    1.52168   1.52305   1.52724   1.52838   1.53476
 Alpha virt. eigenvalues --    1.53942   1.54156   1.54289   1.54458   1.54628
 Alpha virt. eigenvalues --    1.55179   1.55735   1.55836   1.56356   1.56440
 Alpha virt. eigenvalues --    1.57031   1.57078   1.57553   1.58053   1.58218
 Alpha virt. eigenvalues --    1.58693   1.59585   1.59627   1.60276   1.60584
 Alpha virt. eigenvalues --    1.60820   1.61099   1.61922   1.62191   1.62517
 Alpha virt. eigenvalues --    1.62867   1.63379   1.63576   1.63730   1.64353
 Alpha virt. eigenvalues --    1.64511   1.65046   1.65083   1.65418   1.65831
 Alpha virt. eigenvalues --    1.66354   1.66778   1.67430   1.67804   1.67988
 Alpha virt. eigenvalues --    1.68505   1.68882   1.69011   1.69346   1.69667
 Alpha virt. eigenvalues --    1.70138   1.70249   1.71195   1.71408   1.71549
 Alpha virt. eigenvalues --    1.71891   1.72164   1.72511   1.73427   1.73580
 Alpha virt. eigenvalues --    1.73935   1.74016   1.74617   1.75318   1.75688
 Alpha virt. eigenvalues --    1.75914   1.76110   1.76296   1.76361   1.76876
 Alpha virt. eigenvalues --    1.77339   1.78065   1.78513   1.78796   1.79437
 Alpha virt. eigenvalues --    1.79878   1.80092   1.80405   1.80655   1.80964
 Alpha virt. eigenvalues --    1.81846   1.82155   1.83402   1.83788   1.84243
 Alpha virt. eigenvalues --    1.84650   1.86038   1.86128   1.86475   1.86625
 Alpha virt. eigenvalues --    1.87272   1.87618   1.88249   1.88323   1.89208
 Alpha virt. eigenvalues --    1.89725   1.89896   1.90200   1.90984   1.91091
 Alpha virt. eigenvalues --    1.91793   1.92133   1.92997   1.93249   1.93891
 Alpha virt. eigenvalues --    1.94306   1.94595   1.94976   1.95312   1.95958
 Alpha virt. eigenvalues --    1.96720   1.97004   1.97157   1.98138   1.98708
 Alpha virt. eigenvalues --    1.99276   1.99820   2.00081   2.00299   2.00718
 Alpha virt. eigenvalues --    2.00945   2.01290   2.01452   2.01834   2.02314
 Alpha virt. eigenvalues --    2.02380   2.02805   2.03365   2.03862   2.05063
 Alpha virt. eigenvalues --    2.05225   2.05999   2.06601   2.07054   2.07342
 Alpha virt. eigenvalues --    2.07580   2.07688   2.08408   2.08867   2.09222
 Alpha virt. eigenvalues --    2.09304   2.09719   2.10292   2.10634   2.10883
 Alpha virt. eigenvalues --    2.11565   2.12224   2.12504   2.12865   2.13436
 Alpha virt. eigenvalues --    2.13656   2.14192   2.15146   2.15776   2.15869
 Alpha virt. eigenvalues --    2.16149   2.16699   2.16781   2.17171   2.17812
 Alpha virt. eigenvalues --    2.18006   2.18943   2.19348   2.19420   2.20235
 Alpha virt. eigenvalues --    2.20559   2.20888   2.21524   2.21817   2.22238
 Alpha virt. eigenvalues --    2.22714   2.23153   2.23737   2.24297   2.24531
 Alpha virt. eigenvalues --    2.24745   2.25027   2.25471   2.25713   2.26235
 Alpha virt. eigenvalues --    2.26804   2.27573   2.27959   2.28284   2.28693
 Alpha virt. eigenvalues --    2.28866   2.29046   2.29830   2.30306   2.30626
 Alpha virt. eigenvalues --    2.30878   2.31339   2.31676   2.32096   2.32485
 Alpha virt. eigenvalues --    2.32755   2.32950   2.33798   2.34129   2.34323
 Alpha virt. eigenvalues --    2.35182   2.35446   2.36115   2.36337   2.37118
 Alpha virt. eigenvalues --    2.37184   2.37725   2.38354   2.38762   2.39485
 Alpha virt. eigenvalues --    2.39563   2.40578   2.40860   2.40998   2.41379
 Alpha virt. eigenvalues --    2.41522   2.42211   2.42694   2.43170   2.43546
 Alpha virt. eigenvalues --    2.43792   2.44337   2.44433   2.44883   2.45098
 Alpha virt. eigenvalues --    2.45292   2.46379   2.46692   2.47213   2.48182
 Alpha virt. eigenvalues --    2.48760   2.49205   2.49889   2.50070   2.50619
 Alpha virt. eigenvalues --    2.51309   2.52518   2.53086   2.53540   2.53776
 Alpha virt. eigenvalues --    2.53885   2.54307   2.54669   2.55086   2.55448
 Alpha virt. eigenvalues --    2.55878   2.56039   2.56310   2.56994   2.57307
 Alpha virt. eigenvalues --    2.57997   2.58583   2.58717   2.59091   2.59679
 Alpha virt. eigenvalues --    2.61349   2.61916   2.62223   2.62706   2.62920
 Alpha virt. eigenvalues --    2.63479   2.63785   2.64528   2.64627   2.66204
 Alpha virt. eigenvalues --    2.66874   2.67404   2.67611   2.68903   2.69392
 Alpha virt. eigenvalues --    2.70646   2.71256   2.71629   2.72616   2.73331
 Alpha virt. eigenvalues --    2.74133   2.75754   2.76256   2.77031   2.77320
 Alpha virt. eigenvalues --    2.78459   2.79394   2.79703   2.79925   2.80461
 Alpha virt. eigenvalues --    2.81485   2.82603   2.82696   2.83355   2.83596
 Alpha virt. eigenvalues --    2.84721   2.85312   2.85952   2.86597   2.87457
 Alpha virt. eigenvalues --    2.89154   2.89680   2.90912   2.91476   2.92267
 Alpha virt. eigenvalues --    2.92339   2.93052   2.93592   2.94093   2.94720
 Alpha virt. eigenvalues --    2.95081   2.95268   2.95958   2.96274   2.96686
 Alpha virt. eigenvalues --    2.96990   2.97393   2.97498   2.97795   2.98282
 Alpha virt. eigenvalues --    2.98703   2.99351   2.99941   3.00083   3.00723
 Alpha virt. eigenvalues --    3.01053   3.01660   3.01903   3.02521   3.02947
 Alpha virt. eigenvalues --    3.03101   3.03333   3.03600   3.04023   3.04446
 Alpha virt. eigenvalues --    3.04828   3.05203   3.05489   3.06046   3.06299
 Alpha virt. eigenvalues --    3.06534   3.06901   3.07124   3.07612   3.08127
 Alpha virt. eigenvalues --    3.08630   3.08823   3.09261   3.09481   3.10107
 Alpha virt. eigenvalues --    3.10392   3.10817   3.11009   3.11250   3.11675
 Alpha virt. eigenvalues --    3.12039   3.12283   3.12434   3.12635   3.12837
 Alpha virt. eigenvalues --    3.13533   3.13867   3.14398   3.14851   3.15154
 Alpha virt. eigenvalues --    3.15392   3.15677   3.16232   3.16865   3.17399
 Alpha virt. eigenvalues --    3.17732   3.18132   3.18426   3.19169   3.19560
 Alpha virt. eigenvalues --    3.20157   3.20842   3.20989   3.21739   3.22800
 Alpha virt. eigenvalues --    3.24287   3.25387   3.27252   3.29688   3.30983
 Alpha virt. eigenvalues --    3.32444   3.36803   3.38244   3.39017   3.41445
 Alpha virt. eigenvalues --    3.42553   3.43754   3.44974   3.45311   3.46093
 Alpha virt. eigenvalues --    3.48126   3.49050   3.49561   3.49670   3.50597
 Alpha virt. eigenvalues --    3.51114   3.52155   3.52725   3.53362   3.53970
 Alpha virt. eigenvalues --    3.55888   3.56033   3.57017   3.57810   3.58664
 Alpha virt. eigenvalues --    3.60333   3.61619   3.62554   3.63421   3.63895
 Alpha virt. eigenvalues --    3.64853   3.67053   3.67476   3.68313   3.68763
 Alpha virt. eigenvalues --    3.69300   3.70945   3.71237   3.72370   3.72913
 Alpha virt. eigenvalues --    3.74421   3.75151   3.77198   3.78989   3.79526
 Alpha virt. eigenvalues --    3.80014   3.81510   3.82536   3.83235   3.83698
 Alpha virt. eigenvalues --    3.84958   3.86005   3.86355   3.87047   3.87871
 Alpha virt. eigenvalues --    3.87977   3.88675   3.89133   3.89488   3.89849
 Alpha virt. eigenvalues --    3.91968   3.92253   3.94913   4.00722   4.05455
 Alpha virt. eigenvalues --    4.18293   4.20584   4.21628   4.24048   4.25072
 Alpha virt. eigenvalues --    4.27023   4.31849   4.34205   4.35511   4.36242
 Alpha virt. eigenvalues --    4.37291   4.40913   4.41594   4.45848   4.50004
 Alpha virt. eigenvalues --    4.53131   4.54850   4.56780   4.61064   4.61713
 Alpha virt. eigenvalues --    4.62090   4.64286   4.67129   4.69946   4.75212
 Alpha virt. eigenvalues --    4.79719   4.81522   4.83152   4.89676   4.96121
 Alpha virt. eigenvalues --    4.96459   4.99717   5.01917   5.04074   9.49706
 Alpha virt. eigenvalues --    9.55720   9.56975   9.59994   9.64690   9.67203
 Alpha virt. eigenvalues --    9.68176   9.71374  22.99998  23.20227  23.22716
 Alpha virt. eigenvalues --   23.23374  23.41362  23.43704  23.47201  23.50639
 Alpha virt. eigenvalues --   23.51779  23.61127  23.61929  23.66246  23.66813
 Alpha virt. eigenvalues --   23.67508  23.71281  23.72263  23.72872  23.73340
 Alpha virt. eigenvalues --   23.75301  23.77614  23.77982  23.78702  23.78790
 Alpha virt. eigenvalues --   23.80132  23.80967  23.83131  23.84817  23.86746
 Alpha virt. eigenvalues --   23.88203  23.88905  23.89896  23.91887  23.92032
 Alpha virt. eigenvalues --   23.93410  23.94506  23.94805  23.95709  23.95933
 Alpha virt. eigenvalues --   23.96479  23.96869  23.97549  23.97935  23.98464
 Alpha virt. eigenvalues --   23.99005  24.01001  24.01662  24.02212  24.03491
 Alpha virt. eigenvalues --   24.04412  24.06497  24.06594  24.07261  24.07527
 Alpha virt. eigenvalues --   24.07817  24.08739  24.08882  24.09617  24.10284
 Alpha virt. eigenvalues --   24.10838  24.10995  24.12014  24.12291  24.13359
 Alpha virt. eigenvalues --   24.13755  24.16610  24.21482  25.49357  25.56625
 Alpha virt. eigenvalues --   25.59076  25.60920  25.67153  25.69764  25.72917
 Alpha virt. eigenvalues --   25.75338  25.79086  25.79677  25.80886  25.85869
 Alpha virt. eigenvalues --   25.90951  25.91925  25.94551  26.00618  26.17690
 Alpha virt. eigenvalues --   26.22232  26.27712  26.35025  26.37613  26.50179
 Alpha virt. eigenvalues --   26.59507  26.74723 215.44233 215.50917 215.52538
 Alpha virt. eigenvalues --  215.55974 215.61393 215.64261 215.65326 215.68953
          Condensed to atoms (all electrons):
 Mulliken charges:
               1
     1  C   -0.262763
     2  C   -0.272236
     3  C   -0.435565
     4  C   -0.266972
     5  C    0.318422
     6  C   -0.433617
     7  C    0.067854
     8  C    0.157668
     9  C    0.073428
    10  C    0.066633
    11  C    0.088122
    12  C    0.181876
    13  C    0.147289
    14  C    0.160661
    15  C    0.186393
    16  C   -0.663023
    17  C    0.076535
    18  C    0.052079
    19  C    0.093228
    20  C    0.087424
    21  C    0.014731
    22  C   -0.001873
    23  C    0.010975
    24  C   -0.006552
    25  C    0.133005
    26  C    0.041361
    27  C    0.173517
    28  C   -0.656386
    29  C    0.120993
    30  C    0.102497
    31  C   -0.031050
    32  C    0.146982
    33  C    0.024310
    34  C    0.029943
    35  C    0.004117
    36  C   -0.009502
    37  C   -0.001490
    38  C   -0.006259
    39  C   -0.001279
    40  C   -0.007811
    41  C    0.004121
    42  C    0.002338
    43  C    0.007010
    44  C    0.031029
    45  C    0.181719
    46  C    0.000424
    47  C   -0.654395
    48  C    0.178496
    49  C    0.026104
    50  C    0.147301
    51  C    0.006793
    52  C    0.007057
    53  C    0.001420
    54  C    0.000756
    55  C    0.000785
    56  C    0.006212
    57  C    0.002676
    58  C    0.001102
    59  C    0.002847
    60  C    0.002842
    61  C    0.001265
    62  C    0.031258
    63  C    0.038220
    64  C   -0.003487
    65  C    0.003377
    66  C    0.003740
    67  Cl   0.070762
    68  Cl   0.082149
    69  Cl   0.075274
    70  Cl   0.043428
    71  Cl   0.076865
    72  Cl   0.048958
    73  Cl   0.034832
    74  Cl   0.033059
 Sum of Mulliken charges =  -0.00000
 Mulliken charges with hydrogens summed into heavy atoms:
               1
     1  C   -0.262763
     2  C   -0.272236
     3  C   -0.435565
     4  C   -0.266972
     5  C    0.318422
     6  C   -0.433617
     7  C    0.067854
     8  C    0.157668
     9  C    0.073428
    10  C    0.066633
    11  C    0.088122
    12  C    0.181876
    13  C    0.147289
    14  C    0.160661
    15  C    0.186393
    16  C   -0.663023
    17  C    0.076535
    18  C    0.052079
    19  C    0.093228
    20  C    0.087424
    21  C    0.014731
    22  C   -0.001873
    23  C    0.010975
    24  C   -0.006552
    25  C    0.133005
    26  C    0.041361
    27  C    0.173517
    28  C   -0.656386
    29  C    0.120993
    30  C    0.102497
    31  C   -0.031050
    32  C    0.146982
    33  C    0.024310
    34  C    0.029943
    35  C    0.004117
    36  C   -0.009502
    37  C   -0.001490
    38  C   -0.006259
    39  C   -0.001279
    40  C   -0.007811
    41  C    0.004121
    42  C    0.002338
    43  C    0.007010
    44  C    0.031029
    45  C    0.181719
    46  C    0.000424
    47  C   -0.654395
    48  C    0.178496
    49  C    0.026104
    50  C    0.147301
    51  C    0.006793
    52  C    0.007057
    53  C    0.001420
    54  C    0.000756
    55  C    0.000785
    56  C    0.006212
    57  C    0.002676
    58  C    0.001102
    59  C    0.002847
    60  C    0.002842
    61  C    0.001265
    62  C    0.031258
    63  C    0.038220
    64  C   -0.003487
    65  C    0.003377
    66  C    0.003740
    67  Cl   0.070762
    68  Cl   0.082149
    69  Cl   0.075274
    70  Cl   0.043428
    71  Cl   0.076865
    72  Cl   0.048958
    73  Cl   0.034832
    74  Cl   0.033059
 Electronic spatial extent (au):  <R**2>=          36207.1599
 Charge=             -0.0000 electrons
 Dipole moment (field-independent basis, Debye):
    X=             -4.8110    Y=             -2.6293    Z=             -0.9299  Tot=              5.5609
 Quadrupole moment (field-independent basis, Debye-Ang):
   XX=           -485.4023   YY=           -486.6845   ZZ=           -474.1367
   XY=              6.2357   XZ=              0.5867   YZ=             -3.0034
 Traceless Quadrupole moment (field-independent basis, Debye-Ang):
   XX=             -3.3278   YY=             -4.6100   ZZ=              7.9378
   XY=              6.2357   XZ=              0.5867   YZ=             -3.0034
 Octapole moment (field-independent basis, Debye-Ang**2):
  XXX=             89.2745  YYY=             14.6056  ZZZ=            -14.1905  XYY=             58.1711
  XXY=             20.7582  XXZ=             -1.3887  XZZ=             34.7233  YZZ=              9.1889
  YYZ=             11.6716  XYZ=              0.9170
 Hexadecapole moment (field-independent basis, Debye-Ang**3):
 XXXX=         -24214.1140 YYYY=         -15371.9045 ZZZZ=         -13178.4865 XXXY=            -49.2167
 XXXZ=              7.2961 YYYX=             35.6705 YYYZ=             64.1510 ZZZX=            -72.0755
 ZZZY=             24.7583 XXYY=          -6625.4442 XXZZ=          -6205.1434 YYZZ=          -4737.1982
 XXYZ=            -20.9250 YYXZ=             14.6064 ZZXY=            -23.5609
 N-N= 1.531315518804D+04 E-N=-4.520289603566D+04  KE= 6.178376038348D+03
 No NMR shielding tensors so no spin-rotation constants.
 Leave Link  601 at Fri Jul 15 21:53:20 2022, MaxMem=  1342177280 cpu:              58.9 elap:               1.5
 (Enter /home/mkliu/g16/l9999.exe)
 1\1\GINC-NODE05\FOpt\RB3LYP\6-311G(d,p)\C66Cl8\MKLIU\15-Jul-2022\0\\#P
  opt b3lyp/6-311G(d, p) empiricaldispersion=GD3\\force\\0,1\C,-1.34118
 41107,1.8771925356,-3.9345586816\C,0.2179986281,2.2265817694,-3.994560
 3981\C,0.9553786492,0.8537696955,-4.2862197568\C,-1.5072651086,0.34344
 16141,-4.2868703991\C,-0.116621698,-0.1734738888,-4.1470515726\C,-2.50
 23688478,-0.2555793123,-3.1716163075\C,-1.8473941746,1.9475400892,-2.5
 302551123\C,-2.5824893084,0.8493406438,-2.1701590333\C,-1.3870172,2.88
 26802763,-1.5540533027\C,0.7805610382,2.6176163219,-2.6478748955\C,0.0
 206025702,3.240884187,-1.595033883\C,1.9117077303,0.6795843076,-3.1157
 862917\C,1.874401095,1.8478189629,-2.2984130938\C,2.2491654803,-0.5244
 307613,-2.5697286685\C,0.1536173077,-1.357976875,-3.6129730523\C,1.558
 0028394,-1.7563481864,-3.1545564663\C,-2.015819918,-1.5027498107,-2.43
 61885854\C,-0.8400827239,-2.1069159483,-2.8525932129\C,-2.5148135092,-
 1.7857061114,-1.1029357256\C,-3.0520716867,0.6445178713,-0.8416062757\
 C,-3.1174151942,-0.7062788428,-0.3014336413\C,-2.0461052425,2.84349925
 5,-0.3204193098\C,-2.9286080249,1.7476207364,0.018850627\C,-1.40399126
 57,3.275679305,0.8867980303\C,0.6712356416,3.4921379567,-0.3916904796\
 C,-0.0347608363,3.5485430185,0.8376684619\C,2.4375653134,1.8381974654,
 -0.977431614\C,2.1127242697,3.0506738815,-0.1268389253\C,2.8678342207,
 -0.5723957768,-1.2520323012\C,2.9861636641,0.677956884,-0.4880954481\C
 ,2.9085874265,-1.7859430995,-0.5623114539\C,1.2609308949,-2.7803718538
 ,-2.0968523078\C,-0.1401745875,-3.0400296382,-2.0283907271\C,2.0239334
 303,-2.8815659058,-0.9626514166\C,-1.9385702436,-2.8732298316,-0.39788
 77059\C,-0.7242457694,-3.491527639,-0.851132834\C,-1.9277374072,-2.941
 0656058,1.0466636077\C,-3.1608317978,-0.8340992443,1.1016537062\C,-2.5
 432232963,-1.9519691938,1.7858193323\C,-2.9044774469,1.5847715764,1.44
 55321289\C,-1.9459698093,2.5211270481,1.9937266354\C,-3.0319012756,0.3
 138773156,1.9780839315\C,-1.1298229001,2.1296636364,3.0490054898\C,0.8
 277412997,3.1075188175,1.9161128316\C,2.0757869794,2.7008691358,1.3448
 933751\C,0.2893100443,2.439124315,3.0160672474\C,3.4889797984,0.637018
 1967,0.9581743837\C,2.7257897306,1.6099327825,1.8453060895\C,2.9929900
 622,-1.8278178035,0.8921153586\C,3.2017983791,-0.6897945228,1.63095124
 69\C,1.4611341803,-3.4633818599,0.2358264837\C,0.1042721698,-3.7932295
 538,0.2893376538\C,-0.6577607465,-3.4940363388,1.4805200713\C,2.095215
 9958,-2.8510078238,1.3787325797\C,-0.0326003511,-2.9773335293,2.611644
 6842\C,1.3853166488,-2.6560358383,2.5652928682\C,-1.940613901,-1.47384
 38313,3.0129466192\C,-2.2464582497,-0.0684961281,3.1336679978\C,-1.289
 4336179,0.8159800601,3.6404123075\C,-0.6905576695,-1.9595382721,3.4043
 733362\C,0.9992357881,1.3233513086,3.5768209677\C,2.1950804737,0.91696
 79164,2.9828539818\C,2.4966486469,-0.4933393441,2.8522010126\C,1.59730
 47214,-1.4561534048,3.3280366534\C,0.027213831,0.3239936185,3.99272111
 68\C,0.320777283,-1.0312025048,3.8725191471\Cl,-2.4011613425,2.9736718
 942,-4.9100515949\Cl,0.6332581219,3.5645434883,-5.1336933316\Cl,1.8233
 094624,0.7444816572,-5.8751844403\Cl,2.5426624784,-2.5258500511,-4.516
 9628308\Cl,-2.0039715407,0.0194917141,-5.996950208\Cl,-4.183898798,-0.
 6149342777,-3.8254578113\Cl,5.3084561696,0.995108138,0.9269392926\Cl,3
 .3311239375,4.4025111953,-0.4872225016\\Version=ES64L-G16RevA.03\State
 =1-A\HF=-6197.2221181\RMSD=7.439e-09\RMSF=4.136e-05\Dipole=-0.6323278,
 -0.5957643,2.0079407\Quadrupole=-4.4222094,5.4564231,-1.0342137,-3.092
 4153,-4.2580539,-0.3534433\PG=C01 [X(C66Cl8)]\\@


 FROM AN ANONYMOUS WRITER, ON PERSPECTIVE:

 MAN, DESPITE HIS ARTISTIC PRETENSIONS, HIS SOPHISTICATION AND MANY 
 ACCOMPLISHMENTS, OWES THE FACT OF HIS EXISTENCE TO A SIX-INCH LAYER OF 
 TOPSOIL AND THE FACT THAT IT RAINS.
 Job cpu time:       2 days 21 hours 40 minutes 22.9 seconds.
 Elapsed time:       0 days  1 hours 27 minutes 18.0 seconds.
 File lengths (MBytes):  RWF=   1193 Int=      0 D2E=      0 Chk=    146 Scr=      1
 Normal termination of Gaussian 16 at Fri Jul 15 21:53:21 2022.
