 Entering Gaussian System, Link 0=g16
 Input=dqwuc437x7tvk_addon_8.gjf
 Output=dqwuc437x7tvk_addon_8.log
 Initial command:
 /home/mkliu/g16/l1.exe "/data/scratch/Gau-91023.inp" -scrdir="/data/scratch/"
 Entering Link 1 = /home/mkliu/g16/l1.exe PID=     91024.
  
 Copyright (c) 1988,1990,1992,1993,1995,1998,2003,2009,2016,
            Gaussian, Inc.  All Rights Reserved.
  
 This is part of the Gaussian(R) 16 program.  It is based on
 the Gaussian(R) 09 system (copyright 2009, Gaussian, Inc.),
 the Gaussian(R) 03 system (copyright 2003, Gaussian, Inc.),
 the Gaussian(R) 98 system (copyright 1998, Gaussian, Inc.),
 the Gaussian(R) 94 system (copyright 1995, Gaussian, Inc.),
 the Gaussian 92(TM) system (copyright 1992, Gaussian, Inc.),
 the Gaussian 90(TM) system (copyright 1990, Gaussian, Inc.),
 the Gaussian 88(TM) system (copyright 1988, Gaussian, Inc.),
 the Gaussian 86(TM) system (copyright 1986, Carnegie Mellon
 University), and the Gaussian 82(TM) system (copyright 1983,
 Carnegie Mellon University). Gaussian is a federally registered
 trademark of Gaussian, Inc.
  
 This software contains proprietary and confidential information,
 including trade secrets, belonging to Gaussian, Inc.
  
 This software is provided under written license and may be
 used, copied, transmitted, or stored only in accord with that
 written license.
  
 The following legend is applicable only to US Government
 contracts under FAR:
  
                    RESTRICTED RIGHTS LEGEND
  
 Use, reproduction and disclosure by the US Government is
 subject to restrictions as set forth in subparagraphs (a)
 and (c) of the Commercial Computer Software - Restricted
 Rights clause in FAR 52.227-19.
  
 Gaussian, Inc.
 340 Quinnipiac St., Bldg. 40, Wallingford CT 06492
  
  
 ---------------------------------------------------------------
 Warning -- This program may not be used in any manner that
 competes with the business of Gaussian, Inc. or will provide
 assistance to any competitor of Gaussian, Inc.  The licensee
 of this program is prohibited from giving any competitor of
 Gaussian, Inc. access to this program.  By using this program,
 the user acknowledges that Gaussian, Inc. is engaged in the
 business of creating and licensing software in the field of
 computational chemistry and represents and warrants to the
 licensee that it is not a competitor of Gaussian, Inc. and that
 it will not use this program in any manner prohibited above.
 ---------------------------------------------------------------
  

 Cite this work as:
 Gaussian 16, Revision A.03,
 M. J. Frisch, G. W. Trucks, H. B. Schlegel, G. E. Scuseria, 
 M. A. Robb, J. R. Cheeseman, G. Scalmani, V. Barone, 
 G. A. Petersson, H. Nakatsuji, X. Li, M. Caricato, A. V. Marenich, 
 J. Bloino, B. G. Janesko, R. Gomperts, B. Mennucci, H. P. Hratchian, 
 J. V. Ortiz, A. F. Izmaylov, J. L. Sonnenberg, D. Williams-Young, 
 F. Ding, F. Lipparini, F. Egidi, J. Goings, B. Peng, A. Petrone, 
 T. Henderson, D. Ranasinghe, V. G. Zakrzewski, J. Gao, N. Rega, 
 G. Zheng, W. Liang, M. Hada, M. Ehara, K. Toyota, R. Fukuda, 
 J. Hasegawa, M. Ishida, T. Nakajima, Y. Honda, O. Kitao, H. Nakai, 
 T. Vreven, K. Throssell, J. A. Montgomery, Jr., J. E. Peralta, 
 F. Ogliaro, M. J. Bearpark, J. J. Heyd, E. N. Brothers, K. N. Kudin, 
 V. N. Staroverov, T. A. Keith, R. Kobayashi, J. Normand, 
 K. Raghavachari, A. P. Rendell, J. C. Burant, S. S. Iyengar, 
 J. Tomasi, M. Cossi, J. M. Millam, M. Klene, C. Adamo, R. Cammi, 
 J. W. Ochterski, R. L. Martin, K. Morokuma, O. Farkas, 
 J. B. Foresman, and D. J. Fox, Gaussian, Inc., Wallingford CT, 2016.
 
 ******************************************
 Gaussian 16:  ES64L-G16RevA.03 25-Dec-2016
                16-Jul-2022 
 ******************************************
 %mem=10GB
 %chk=dqwuc437x7tvk_addon_8.chk
 %nprocshared=48
 Will use up to   48 processors via shared memory.
 -------------------------------------------------
 #P opt b3lyp/6-311G(d, p) empiricaldispersion=GD3
 -------------------------------------------------
 1/18=20,19=15,26=3,38=1/1,3;
 2/9=110,12=2,17=6,18=5,40=1/2;
 3/5=4,6=6,7=101,11=2,25=1,30=1,71=1,74=-5,124=31/1,2,3;
 4//1;
 5/5=2,38=5/2;
 6/7=2,8=2,9=2,10=2,28=1/1;
 7//1,2,3,16;
 1/18=20,19=15,26=3/3(2);
 2/9=110/2;
 99//99;
 2/9=110/2;
 3/5=4,6=6,7=101,11=2,25=1,30=1,71=1,74=-5,124=31/1,2,3;
 4/5=5,16=3,69=1/1;
 5/5=2,38=5/2;
 7//1,2,3,16;
 1/18=20,19=15,26=3/3(-5);
 2/9=110/2;
 6/7=2,8=2,9=2,10=2,19=2,28=1/1;
 99/9=1/99;
 Leave Link    1 at Sat Jul 16 10:31:22 2022, MaxMem=  1342177280 cpu:               2.2 elap:               0.1
 (Enter /home/mkliu/g16/l101.exe)
 -----
 force
 -----
 Symbolic Z-matrix:
 Charge =  0 Multiplicity = 1
 C                    -1.35241   1.87611  -3.95528 
 C                     0.17393   2.2175   -3.98491 
 C                     0.97723   0.91145  -4.30003 
 C                    -1.25747   0.41454  -3.79882 
 C                    -0.04741  -0.14495  -4.1094 
 C                    -2.11106  -0.10612  -2.85214 
 C                    -2.22383   2.28857  -2.7281 
 C                    -2.71424   0.95974  -2.12758 
 C                    -1.50073   2.9065   -1.55637 
 C                     0.64813   2.49454  -2.61172 
 C                    -0.06591   3.10596  -1.60174 
 C                     1.88213   0.66638  -3.10411 
 C                     1.80881   1.78212  -2.25586 
 C                     2.23333  -0.54858  -2.56672 
 C                     0.23373  -1.38454  -3.58705 
 C                     1.63356  -1.80454  -3.18128 
 C                    -1.89138  -1.37704  -2.32868 
 C                    -0.72205  -2.02884  -2.78677 
 C                    -2.45406  -1.66732  -1.04294 
 C                    -3.1212    0.73821  -0.84938 
 C                    -3.07227  -0.60925  -0.29021 
 C                    -2.09798   2.86747  -0.33663 
 C                    -3.24519   1.9454    0.04446 
 C                    -1.37764   3.2128    0.86795 
 C                     0.64118   3.31758  -0.40016 
 C                    -0.03449   3.48082   0.84176 
 C                     2.39846   1.77328  -0.99546 
 C                     1.89709   2.74169  -0.12115 
 C                     2.87209  -0.59675  -1.26639 
 C                     3.00409   0.55617  -0.5252 
 C                     3.16405  -1.94721  -0.63309 
 C                     1.32944  -2.79953  -2.10003 
 C                    -0.07925  -3.00567  -1.99049 
 C                     2.06418  -2.91564  -0.96927 
 C                    -1.91979  -2.79046  -0.38027 
 C                    -0.70473  -3.41975  -0.84306 
 C                    -1.9364   -2.87771   1.03602 
 C                    -3.1553   -0.76929   1.09534 
 C                    -2.55573  -1.87597   1.76058 
 C                    -2.93112   1.64676   1.47221 
 C                    -1.92648   2.51432   1.98473 
 C                    -3.03835   0.38788   1.98485 
 C                    -1.10462   2.11158   3.03614 
 C                     0.83184   3.04605   1.90079 
 C                     2.04834   2.58068   1.30382 
 C                     0.30246   2.39403   2.99177 
 C                     3.50031   0.56372   0.91398 
 C                     2.73822   1.50966   1.79779 
 C                     3.03463  -1.88809   0.86877 
 C                     3.2125   -0.74923   1.5788 
 C                     1.46076  -3.44912   0.21574 
 C                     0.10816  -3.74374   0.27759 
 C                    -0.6727   -3.43935   1.44397 
 C                     2.08976  -2.85319   1.34384 
 C                    -0.05072  -2.92983   2.56009 
 C                     1.35536  -2.63696   2.50007 
 C                    -1.95106  -1.42186   2.98411 
 C                    -2.23721  -0.02031   3.10609 
 C                    -1.269     0.8232    3.6198 
 C                    -0.71355  -1.91998   3.34806 
 C                     1.02423   1.27904   3.53522 
 C                     2.21157   0.85559   2.94586 
 C                     2.49016  -0.53888   2.79779 
 C                     1.56873  -1.45537   3.2599 
 C                     0.04568   0.32026   3.94987 
 C                     0.31273  -1.02958   3.8138 
 Cl                   -2.0995    2.3179   -5.52125 
 Cl                    0.48184   3.64457  -5.02258 
 Cl                    1.83346   0.81605  -5.84231 
 Cl                    2.67938  -2.434    -4.4894 
 Cl                   -3.59899   3.3569   -3.1498 
 Cl                   -4.88378   2.67733  -0.16719 
 Cl                    4.80093  -2.47705  -1.18855 
 Cl                    5.27458   0.93958   0.81577 
 
 ITRead=  0  0  0  0  0  0  0  0  0  0  0  0  0  0  0  0  0  0  0  0
 ITRead=  0  0  0  0  0  0  0  0  0  0  0  0  0  0  0  0  0  0  0  0
 ITRead=  0  0  0  0  0  0  0  0  0  0  0  0  0  0  0  0  0  0  0  0
 ITRead=  0  0  0  0  0  0  0  0  0  0  0  0  0  0
 MicOpt= -1 -1 -1 -1 -1 -1 -1 -1 -1 -1 -1 -1 -1 -1 -1 -1 -1 -1 -1 -1
 MicOpt= -1 -1 -1 -1 -1 -1 -1 -1 -1 -1 -1 -1 -1 -1 -1 -1 -1 -1 -1 -1
 MicOpt= -1 -1 -1 -1 -1 -1 -1 -1 -1 -1 -1 -1 -1 -1 -1 -1 -1 -1 -1 -1
 MicOpt= -1 -1 -1 -1 -1 -1 -1 -1 -1 -1 -1 -1 -1 -1
 NAtoms=     74 NQM=       74 NQMF=       0 NMMI=      0 NMMIF=      0
                NMic=       0 NMicF=      0.
                    Isotopes and Nuclear Properties:
 (Nuclear quadrupole moments (NQMom) in fm**2, nuclear magnetic moments (NMagM)
  in nuclear magnetons)

  Atom         1           2           3           4           5           6           7           8           9          10
 IAtWgt=          12          12          12          12          12          12          12          12          12          12
 AtmWgt=  12.0000000  12.0000000  12.0000000  12.0000000  12.0000000  12.0000000  12.0000000  12.0000000  12.0000000  12.0000000
 NucSpn=           0           0           0           0           0           0           0           0           0           0
 AtZEff=  -0.0000000  -0.0000000  -0.0000000  -0.0000000  -0.0000000  -0.0000000  -0.0000000  -0.0000000  -0.0000000  -0.0000000
 NQMom=    0.0000000   0.0000000   0.0000000   0.0000000   0.0000000   0.0000000   0.0000000   0.0000000   0.0000000   0.0000000
 NMagM=    0.0000000   0.0000000   0.0000000   0.0000000   0.0000000   0.0000000   0.0000000   0.0000000   0.0000000   0.0000000
 AtZNuc=   6.0000000   6.0000000   6.0000000   6.0000000   6.0000000   6.0000000   6.0000000   6.0000000   6.0000000   6.0000000

  Atom        11          12          13          14          15          16          17          18          19          20
 IAtWgt=          12          12          12          12          12          12          12          12          12          12
 AtmWgt=  12.0000000  12.0000000  12.0000000  12.0000000  12.0000000  12.0000000  12.0000000  12.0000000  12.0000000  12.0000000
 NucSpn=           0           0           0           0           0           0           0           0           0           0
 AtZEff=  -0.0000000  -0.0000000  -0.0000000  -0.0000000  -0.0000000  -0.0000000  -0.0000000  -0.0000000  -0.0000000  -0.0000000
 NQMom=    0.0000000   0.0000000   0.0000000   0.0000000   0.0000000   0.0000000   0.0000000   0.0000000   0.0000000   0.0000000
 NMagM=    0.0000000   0.0000000   0.0000000   0.0000000   0.0000000   0.0000000   0.0000000   0.0000000   0.0000000   0.0000000
 AtZNuc=   6.0000000   6.0000000   6.0000000   6.0000000   6.0000000   6.0000000   6.0000000   6.0000000   6.0000000   6.0000000

  Atom        21          22          23          24          25          26          27          28          29          30
 IAtWgt=          12          12          12          12          12          12          12          12          12          12
 AtmWgt=  12.0000000  12.0000000  12.0000000  12.0000000  12.0000000  12.0000000  12.0000000  12.0000000  12.0000000  12.0000000
 NucSpn=           0           0           0           0           0           0           0           0           0           0
 AtZEff=  -0.0000000  -0.0000000  -0.0000000  -0.0000000  -0.0000000  -0.0000000  -0.0000000  -0.0000000  -0.0000000  -0.0000000
 NQMom=    0.0000000   0.0000000   0.0000000   0.0000000   0.0000000   0.0000000   0.0000000   0.0000000   0.0000000   0.0000000
 NMagM=    0.0000000   0.0000000   0.0000000   0.0000000   0.0000000   0.0000000   0.0000000   0.0000000   0.0000000   0.0000000
 AtZNuc=   6.0000000   6.0000000   6.0000000   6.0000000   6.0000000   6.0000000   6.0000000   6.0000000   6.0000000   6.0000000

  Atom        31          32          33          34          35          36          37          38          39          40
 IAtWgt=          12          12          12          12          12          12          12          12          12          12
 AtmWgt=  12.0000000  12.0000000  12.0000000  12.0000000  12.0000000  12.0000000  12.0000000  12.0000000  12.0000000  12.0000000
 NucSpn=           0           0           0           0           0           0           0           0           0           0
 AtZEff=  -0.0000000  -0.0000000  -0.0000000  -0.0000000  -0.0000000  -0.0000000  -0.0000000  -0.0000000  -0.0000000  -0.0000000
 NQMom=    0.0000000   0.0000000   0.0000000   0.0000000   0.0000000   0.0000000   0.0000000   0.0000000   0.0000000   0.0000000
 NMagM=    0.0000000   0.0000000   0.0000000   0.0000000   0.0000000   0.0000000   0.0000000   0.0000000   0.0000000   0.0000000
 AtZNuc=   6.0000000   6.0000000   6.0000000   6.0000000   6.0000000   6.0000000   6.0000000   6.0000000   6.0000000   6.0000000

  Atom        41          42          43          44          45          46          47          48          49          50
 IAtWgt=          12          12          12          12          12          12          12          12          12          12
 AtmWgt=  12.0000000  12.0000000  12.0000000  12.0000000  12.0000000  12.0000000  12.0000000  12.0000000  12.0000000  12.0000000
 NucSpn=           0           0           0           0           0           0           0           0           0           0
 AtZEff=  -0.0000000  -0.0000000  -0.0000000  -0.0000000  -0.0000000  -0.0000000  -0.0000000  -0.0000000  -0.0000000  -0.0000000
 NQMom=    0.0000000   0.0000000   0.0000000   0.0000000   0.0000000   0.0000000   0.0000000   0.0000000   0.0000000   0.0000000
 NMagM=    0.0000000   0.0000000   0.0000000   0.0000000   0.0000000   0.0000000   0.0000000   0.0000000   0.0000000   0.0000000
 AtZNuc=   6.0000000   6.0000000   6.0000000   6.0000000   6.0000000   6.0000000   6.0000000   6.0000000   6.0000000   6.0000000

  Atom        51          52          53          54          55          56          57          58          59          60
 IAtWgt=          12          12          12          12          12          12          12          12          12          12
 AtmWgt=  12.0000000  12.0000000  12.0000000  12.0000000  12.0000000  12.0000000  12.0000000  12.0000000  12.0000000  12.0000000
 NucSpn=           0           0           0           0           0           0           0           0           0           0
 AtZEff=  -0.0000000  -0.0000000  -0.0000000  -0.0000000  -0.0000000  -0.0000000  -0.0000000  -0.0000000  -0.0000000  -0.0000000
 NQMom=    0.0000000   0.0000000   0.0000000   0.0000000   0.0000000   0.0000000   0.0000000   0.0000000   0.0000000   0.0000000
 NMagM=    0.0000000   0.0000000   0.0000000   0.0000000   0.0000000   0.0000000   0.0000000   0.0000000   0.0000000   0.0000000
 AtZNuc=   6.0000000   6.0000000   6.0000000   6.0000000   6.0000000   6.0000000   6.0000000   6.0000000   6.0000000   6.0000000

  Atom        61          62          63          64          65          66          67          68          69          70
 IAtWgt=          12          12          12          12          12          12          35          35          35          35
 AtmWgt=  12.0000000  12.0000000  12.0000000  12.0000000  12.0000000  12.0000000  34.9688527  34.9688527  34.9688527  34.9688527
 NucSpn=           0           0           0           0           0           0           3           3           3           3
 AtZEff=  -0.0000000  -0.0000000  -0.0000000  -0.0000000  -0.0000000  -0.0000000  -0.0000000  -0.0000000  -0.0000000  -0.0000000
 NQMom=    0.0000000   0.0000000   0.0000000   0.0000000   0.0000000   0.0000000  -8.1650000  -8.1650000  -8.1650000  -8.1650000
 NMagM=    0.0000000   0.0000000   0.0000000   0.0000000   0.0000000   0.0000000   0.8218740   0.8218740   0.8218740   0.8218740
 AtZNuc=   6.0000000   6.0000000   6.0000000   6.0000000   6.0000000   6.0000000  17.0000000  17.0000000  17.0000000  17.0000000

  Atom        71          72          73          74
 IAtWgt=          35          35          35          35
 AtmWgt=  34.9688527  34.9688527  34.9688527  34.9688527
 NucSpn=           3           3           3           3
 AtZEff=  -0.0000000  -0.0000000  -0.0000000  -0.0000000
 NQMom=   -8.1650000  -8.1650000  -8.1650000  -8.1650000
 NMagM=    0.8218740   0.8218740   0.8218740   0.8218740
 AtZNuc=  17.0000000  17.0000000  17.0000000  17.0000000
 Leave Link  101 at Sat Jul 16 10:31:22 2022, MaxMem=  1342177280 cpu:              13.2 elap:               0.3
 (Enter /home/mkliu/g16/l103.exe)

 GradGradGradGradGradGradGradGradGradGradGradGradGradGradGradGradGradGrad
 Berny optimization.
 Initialization pass.
                           ----------------------------
                           !    Initial Parameters    !
                           ! (Angstroms and Degrees)  !
 --------------------------                            --------------------------
 ! Name  Definition              Value          Derivative Info.                !
 --------------------------------------------------------------------------------
 ! R1    R(1,2)                  1.5643         estimate D2E/DX2                !
 ! R2    R(1,4)                  1.473          estimate D2E/DX2                !
 ! R3    R(1,7)                  1.5606         estimate D2E/DX2                !
 ! R4    R(1,67)                 1.7904         estimate D2E/DX2                !
 ! R5    R(2,3)                  1.5654         estimate D2E/DX2                !
 ! R6    R(2,10)                 1.4789         estimate D2E/DX2                !
 ! R7    R(2,68)                 1.7911         estimate D2E/DX2                !
 ! R8    R(3,5)                  1.484          estimate D2E/DX2                !
 ! R9    R(3,12)                 1.5196         estimate D2E/DX2                !
 ! R10   R(3,69)                 1.7666         estimate D2E/DX2                !
 ! R11   R(4,5)                  1.3688         estimate D2E/DX2                !
 ! R12   R(4,6)                  1.3769         estimate D2E/DX2                !
 ! R13   R(5,15)                 1.3742         estimate D2E/DX2                !
 ! R14   R(6,8)                  1.423          estimate D2E/DX2                !
 ! R15   R(6,17)                 1.3919         estimate D2E/DX2                !
 ! R16   R(7,8)                  1.5385         estimate D2E/DX2                !
 ! R17   R(7,9)                  1.5092         estimate D2E/DX2                !
 ! R18   R(7,71)                 1.7917         estimate D2E/DX2                !
 ! R19   R(8,20)                 1.3596         estimate D2E/DX2                !
 ! R20   R(9,11)                 1.4493         estimate D2E/DX2                !
 ! R21   R(9,22)                 1.3587         estimate D2E/DX2                !
 ! R22   R(10,11)                1.3798         estimate D2E/DX2                !
 ! R23   R(10,13)                1.4076         estimate D2E/DX2                !
 ! R24   R(11,25)                1.4102         estimate D2E/DX2                !
 ! R25   R(12,13)                1.4035         estimate D2E/DX2                !
 ! R26   R(12,14)                1.3741         estimate D2E/DX2                !
 ! R27   R(13,27)                1.3915         estimate D2E/DX2                !
 ! R28   R(14,16)                1.5215         estimate D2E/DX2                !
 ! R29   R(14,29)                1.4496         estimate D2E/DX2                !
 ! R30   R(15,16)                1.5168         estimate D2E/DX2                !
 ! R31   R(15,18)                1.4032         estimate D2E/DX2                !
 ! R32   R(16,32)                1.5005         estimate D2E/DX2                !
 ! R33   R(16,70)                1.7892         estimate D2E/DX2                !
 ! R34   R(17,18)                1.4149         estimate D2E/DX2                !
 ! R35   R(17,19)                1.4332         estimate D2E/DX2                !
 ! R36   R(18,33)                1.4147         estimate D2E/DX2                !
 ! R37   R(19,21)                1.4382         estimate D2E/DX2                !
 ! R38   R(19,35)                1.4093         estimate D2E/DX2                !
 ! R39   R(20,21)                1.4597         estimate D2E/DX2                !
 ! R40   R(20,23)                1.5072         estimate D2E/DX2                !
 ! R41   R(21,38)                1.3972         estimate D2E/DX2                !
 ! R42   R(22,23)                1.5204         estimate D2E/DX2                !
 ! R43   R(22,24)                1.4454         estimate D2E/DX2                !
 ! R44   R(23,40)                1.4921         estimate D2E/DX2                !
 ! R45   R(23,72)                1.8071         estimate D2E/DX2                !
 ! R46   R(24,26)                1.3699         estimate D2E/DX2                !
 ! R47   R(24,41)                1.427          estimate D2E/DX2                !
 ! R48   R(25,26)                1.4232         estimate D2E/DX2                !
 ! R49   R(25,28)                1.4095         estimate D2E/DX2                !
 ! R50   R(26,44)                1.4357         estimate D2E/DX2                !
 ! R51   R(27,28)                1.3977         estimate D2E/DX2                !
 ! R52   R(27,30)                1.4385         estimate D2E/DX2                !
 ! R53   R(28,45)                1.442          estimate D2E/DX2                !
 ! R54   R(29,30)                1.377          estimate D2E/DX2                !
 ! R55   R(29,31)                1.5199         estimate D2E/DX2                !
 ! R56   R(30,47)                1.5223         estimate D2E/DX2                !
 ! R57   R(31,34)                1.5035         estimate D2E/DX2                !
 ! R58   R(31,49)                1.5086         estimate D2E/DX2                !
 ! R59   R(31,73)                1.8079         estimate D2E/DX2                !
 ! R60   R(32,33)                1.4279         estimate D2E/DX2                !
 ! R61   R(32,34)                1.3535         estimate D2E/DX2                !
 ! R62   R(33,36)                1.3709         estimate D2E/DX2                !
 ! R63   R(34,51)                1.4328         estimate D2E/DX2                !
 ! R64   R(35,36)                1.4445         estimate D2E/DX2                !
 ! R65   R(35,37)                1.4191         estimate D2E/DX2                !
 ! R66   R(36,52)                1.4218         estimate D2E/DX2                !
 ! R67   R(37,39)                1.3828         estimate D2E/DX2                !
 ! R68   R(37,53)                1.4418         estimate D2E/DX2                !
 ! R69   R(38,39)                1.4236         estimate D2E/DX2                !
 ! R70   R(38,42)                1.4642         estimate D2E/DX2                !
 ! R71   R(39,57)                1.4384         estimate D2E/DX2                !
 ! R72   R(40,41)                1.4229         estimate D2E/DX2                !
 ! R73   R(40,42)                1.3635         estimate D2E/DX2                !
 ! R74   R(41,43)                1.394          estimate D2E/DX2                !
 ! R75   R(42,58)                1.4372         estimate D2E/DX2                !
 ! R76   R(43,46)                1.4358         estimate D2E/DX2                !
 ! R77   R(43,59)                1.4239         estimate D2E/DX2                !
 ! R78   R(44,45)                1.4328         estimate D2E/DX2                !
 ! R79   R(44,46)                1.3768         estimate D2E/DX2                !
 ! R80   R(45,48)                1.3664         estimate D2E/DX2                !
 ! R81   R(46,61)                1.4351         estimate D2E/DX2                !
 ! R82   R(47,48)                1.5022         estimate D2E/DX2                !
 ! R83   R(47,50)                1.4996         estimate D2E/DX2                !
 ! R84   R(47,74)                1.8163         estimate D2E/DX2                !
 ! R85   R(48,62)                1.4224         estimate D2E/DX2                !
 ! R86   R(49,50)                1.3538         estimate D2E/DX2                !
 ! R87   R(49,54)                1.4317         estimate D2E/DX2                !
 ! R88   R(50,63)                1.4325         estimate D2E/DX2                !
 ! R89   R(51,52)                1.3857         estimate D2E/DX2                !
 ! R90   R(51,54)                1.4224         estimate D2E/DX2                !
 ! R91   R(52,53)                1.4362         estimate D2E/DX2                !
 ! R92   R(53,55)                1.3756         estimate D2E/DX2                !
 ! R93   R(54,56)                1.3867         estimate D2E/DX2                !
 ! R94   R(55,56)                1.4375         estimate D2E/DX2                !
 ! R95   R(55,60)                1.4422         estimate D2E/DX2                !
 ! R96   R(56,64)                1.4209         estimate D2E/DX2                !
 ! R97   R(57,58)                1.4357         estimate D2E/DX2                !
 ! R98   R(57,60)                1.3828         estimate D2E/DX2                !
 ! R99   R(58,59)                1.3831         estimate D2E/DX2                !
 ! R100  R(59,65)                1.4458         estimate D2E/DX2                !
 ! R101  R(60,66)                1.4363         estimate D2E/DX2                !
 ! R102  R(61,62)                1.3916         estimate D2E/DX2                !
 ! R103  R(61,65)                1.4313         estimate D2E/DX2                !
 ! R104  R(62,63)                1.4297         estimate D2E/DX2                !
 ! R105  R(63,64)                1.3793         estimate D2E/DX2                !
 ! R106  R(64,66)                1.4372         estimate D2E/DX2                !
 ! R107  R(65,66)                1.3827         estimate D2E/DX2                !
 ! A1    A(2,1,4)               98.9555         estimate D2E/DX2                !
 ! A2    A(2,1,7)              120.1356         estimate D2E/DX2                !
 ! A3    A(2,1,67)             109.6772         estimate D2E/DX2                !
 ! A4    A(4,1,7)              102.3986         estimate D2E/DX2                !
 ! A5    A(4,1,67)             111.3852         estimate D2E/DX2                !
 ! A6    A(7,1,67)             112.927          estimate D2E/DX2                !
 ! A7    A(1,2,3)              108.8106         estimate D2E/DX2                !
 ! A8    A(1,2,10)             109.6414         estimate D2E/DX2                !
 ! A9    A(1,2,68)             110.6456         estimate D2E/DX2                !
 ! A10   A(3,2,10)             100.2922         estimate D2E/DX2                !
 ! A11   A(3,2,68)             117.3818         estimate D2E/DX2                !
 ! A12   A(10,2,68)            109.4843         estimate D2E/DX2                !
 ! A13   A(2,3,5)              102.3427         estimate D2E/DX2                !
 ! A14   A(2,3,12)             106.3628         estimate D2E/DX2                !
 ! A15   A(2,3,69)             118.0037         estimate D2E/DX2                !
 ! A16   A(5,3,12)             101.2597         estimate D2E/DX2                !
 ! A17   A(5,3,69)             114.1017         estimate D2E/DX2                !
 ! A18   A(12,3,69)            112.9386         estimate D2E/DX2                !
 ! A19   A(1,4,5)              116.0046         estimate D2E/DX2                !
 ! A20   A(1,4,6)              114.0965         estimate D2E/DX2                !
 ! A21   A(5,4,6)              123.3297         estimate D2E/DX2                !
 ! A22   A(3,5,4)              110.3987         estimate D2E/DX2                !
 ! A23   A(3,5,15)             123.347          estimate D2E/DX2                !
 ! A24   A(4,5,15)             117.5999         estimate D2E/DX2                !
 ! A25   A(4,6,8)              109.246          estimate D2E/DX2                !
 ! A26   A(4,6,17)             120.396          estimate D2E/DX2                !
 ! A27   A(8,6,17)             124.009          estimate D2E/DX2                !
 ! A28   A(1,7,8)              104.8716         estimate D2E/DX2                !
 ! A29   A(1,7,9)              116.82           estimate D2E/DX2                !
 ! A30   A(1,7,71)             113.6459         estimate D2E/DX2                !
 ! A31   A(8,7,9)              101.7318         estimate D2E/DX2                !
 ! A32   A(8,7,71)             111.2369         estimate D2E/DX2                !
 ! A33   A(9,7,71)             107.8385         estimate D2E/DX2                !
 ! A34   A(6,8,7)              108.2458         estimate D2E/DX2                !
 ! A35   A(6,8,20)             118.9164         estimate D2E/DX2                !
 ! A36   A(7,8,20)             127.0932         estimate D2E/DX2                !
 ! A37   A(7,9,11)             120.4226         estimate D2E/DX2                !
 ! A38   A(7,9,22)             118.3346         estimate D2E/DX2                !
 ! A39   A(11,9,22)            117.8557         estimate D2E/DX2                !
 ! A40   A(2,10,11)            126.6365         estimate D2E/DX2                !
 ! A41   A(2,10,13)            113.848          estimate D2E/DX2                !
 ! A42   A(11,10,13)           117.7718         estimate D2E/DX2                !
 ! A43   A(9,11,10)            118.3112         estimate D2E/DX2                !
 ! A44   A(9,11,25)            119.3652         estimate D2E/DX2                !
 ! A45   A(10,11,25)           115.5143         estimate D2E/DX2                !
 ! A46   A(3,12,13)            108.4413         estimate D2E/DX2                !
 ! A47   A(3,12,14)            127.0537         estimate D2E/DX2                !
 ! A48   A(13,12,14)           118.678          estimate D2E/DX2                !
 ! A49   A(10,13,12)           107.0158         estimate D2E/DX2                !
 ! A50   A(10,13,27)           125.5639         estimate D2E/DX2                !
 ! A51   A(12,13,27)           121.3482         estimate D2E/DX2                !
 ! A52   A(12,14,16)           118.1099         estimate D2E/DX2                !
 ! A53   A(12,14,29)           119.5257         estimate D2E/DX2                !
 ! A54   A(16,14,29)           120.5723         estimate D2E/DX2                !
 ! A55   A(5,15,16)            122.7022         estimate D2E/DX2                !
 ! A56   A(5,15,18)            119.4467         estimate D2E/DX2                !
 ! A57   A(16,15,18)           110.4198         estimate D2E/DX2                !
 ! A58   A(14,16,15)           104.0804         estimate D2E/DX2                !
 ! A59   A(14,16,32)           109.6465         estimate D2E/DX2                !
 ! A60   A(14,16,70)           110.8133         estimate D2E/DX2                !
 ! A61   A(15,16,32)           100.9137         estimate D2E/DX2                !
 ! A62   A(15,16,70)           116.1863         estimate D2E/DX2                !
 ! A63   A(32,16,70)           114.3322         estimate D2E/DX2                !
 ! A64   A(6,17,18)            115.4223         estimate D2E/DX2                !
 ! A65   A(6,17,19)            117.4096         estimate D2E/DX2                !
 ! A66   A(18,17,19)           121.4398         estimate D2E/DX2                !
 ! A67   A(15,18,17)           122.4127         estimate D2E/DX2                !
 ! A68   A(15,18,33)           109.1814         estimate D2E/DX2                !
 ! A69   A(17,18,33)           120.7533         estimate D2E/DX2                !
 ! A70   A(17,19,21)           119.2953         estimate D2E/DX2                !
 ! A71   A(17,19,35)           115.749          estimate D2E/DX2                !
 ! A72   A(21,19,35)           120.2114         estimate D2E/DX2                !
 ! A73   A(8,20,21)            120.0343         estimate D2E/DX2                !
 ! A74   A(8,20,23)            116.8509         estimate D2E/DX2                !
 ! A75   A(21,20,23)           120.9934         estimate D2E/DX2                !
 ! A76   A(19,21,20)           119.5412         estimate D2E/DX2                !
 ! A77   A(19,21,38)           117.4064         estimate D2E/DX2                !
 ! A78   A(20,21,38)           118.9217         estimate D2E/DX2                !
 ! A79   A(9,22,23)            125.0394         estimate D2E/DX2                !
 ! A80   A(9,22,24)            121.4819         estimate D2E/DX2                !
 ! A81   A(23,22,24)           108.1832         estimate D2E/DX2                !
 ! A82   A(20,23,22)           105.9636         estimate D2E/DX2                !
 ! A83   A(20,23,40)           112.9458         estimate D2E/DX2                !
 ! A84   A(20,23,72)           109.2419         estimate D2E/DX2                !
 ! A85   A(22,23,40)           101.6774         estimate D2E/DX2                !
 ! A86   A(22,23,72)           114.1547         estimate D2E/DX2                !
 ! A87   A(40,23,72)           112.5824         estimate D2E/DX2                !
 ! A88   A(22,24,26)           121.2959         estimate D2E/DX2                !
 ! A89   A(22,24,41)           110.096          estimate D2E/DX2                !
 ! A90   A(26,24,41)           119.1987         estimate D2E/DX2                !
 ! A91   A(11,25,26)           121.5141         estimate D2E/DX2                !
 ! A92   A(11,25,28)           123.6504         estimate D2E/DX2                !
 ! A93   A(26,25,28)           107.2861         estimate D2E/DX2                !
 ! A94   A(24,26,25)           117.3697         estimate D2E/DX2                !
 ! A95   A(24,26,44)           121.2189         estimate D2E/DX2                !
 ! A96   A(25,26,44)           108.8127         estimate D2E/DX2                !
 ! A97   A(13,27,28)           114.2157         estimate D2E/DX2                !
 ! A98   A(13,27,30)           118.6778         estimate D2E/DX2                !
 ! A99   A(28,27,30)           122.1914         estimate D2E/DX2                !
 ! A100  A(25,28,27)           118.6115         estimate D2E/DX2                !
 ! A101  A(25,28,45)           109.5533         estimate D2E/DX2                !
 ! A102  A(27,28,45)           120.2089         estimate D2E/DX2                !
 ! A103  A(14,29,30)           119.821          estimate D2E/DX2                !
 ! A104  A(14,29,31)           119.2063         estimate D2E/DX2                !
 ! A105  A(30,29,31)           120.083          estimate D2E/DX2                !
 ! A106  A(27,30,29)           119.4787         estimate D2E/DX2                !
 ! A107  A(27,30,47)           116.2373         estimate D2E/DX2                !
 ! A108  A(29,30,47)           122.9753         estimate D2E/DX2                !
 ! A109  A(29,31,34)           109.7928         estimate D2E/DX2                !
 ! A110  A(29,31,49)           111.3166         estimate D2E/DX2                !
 ! A111  A(29,31,73)           107.836          estimate D2E/DX2                !
 ! A112  A(34,31,49)           100.6664         estimate D2E/DX2                !
 ! A113  A(34,31,73)           113.8816         estimate D2E/DX2                !
 ! A114  A(49,31,73)           113.2671         estimate D2E/DX2                !
 ! A115  A(16,32,33)           110.5461         estimate D2E/DX2                !
 ! A116  A(16,32,34)           123.2887         estimate D2E/DX2                !
 ! A117  A(33,32,34)           117.3273         estimate D2E/DX2                !
 ! A118  A(18,33,32)           107.7816         estimate D2E/DX2                !
 ! A119  A(18,33,36)           118.1882         estimate D2E/DX2                !
 ! A120  A(32,33,36)           123.9137         estimate D2E/DX2                !
 ! A121  A(31,34,32)           121.9145         estimate D2E/DX2                !
 ! A122  A(31,34,51)           111.2824         estimate D2E/DX2                !
 ! A123  A(32,34,51)           119.6216         estimate D2E/DX2                !
 ! A124  A(19,35,36)           121.0273         estimate D2E/DX2                !
 ! A125  A(19,35,37)           120.9216         estimate D2E/DX2                !
 ! A126  A(36,35,37)           107.6266         estimate D2E/DX2                !
 ! A127  A(33,36,35)           121.3566         estimate D2E/DX2                !
 ! A128  A(33,36,52)           117.8841         estimate D2E/DX2                !
 ! A129  A(35,36,52)           109.127          estimate D2E/DX2                !
 ! A130  A(35,37,39)           118.9252         estimate D2E/DX2                !
 ! A131  A(35,37,53)           107.2223         estimate D2E/DX2                !
 ! A132  A(39,37,53)           121.7695         estimate D2E/DX2                !
 ! A133  A(21,38,39)           121.8292         estimate D2E/DX2                !
 ! A134  A(21,38,42)           120.474          estimate D2E/DX2                !
 ! A135  A(39,38,42)           107.2675         estimate D2E/DX2                !
 ! A136  A(37,39,38)           120.4595         estimate D2E/DX2                !
 ! A137  A(37,39,57)           119.0883         estimate D2E/DX2                !
 ! A138  A(38,39,57)           109.2152         estimate D2E/DX2                !
 ! A139  A(23,40,41)           111.793          estimate D2E/DX2                !
 ! A140  A(23,40,42)           121.8707         estimate D2E/DX2                !
 ! A141  A(41,40,42)           118.8844         estimate D2E/DX2                !
 ! A142  A(24,41,40)           106.7449         estimate D2E/DX2                !
 ! A143  A(24,41,43)           120.3283         estimate D2E/DX2                !
 ! A144  A(40,41,43)           120.7842         estimate D2E/DX2                !
 ! A145  A(38,42,40)           120.5007         estimate D2E/DX2                !
 ! A146  A(38,42,58)           107.0978         estimate D2E/DX2                !
 ! A147  A(40,42,58)           120.7769         estimate D2E/DX2                !
 ! A148  A(41,43,46)           119.8437         estimate D2E/DX2                !
 ! A149  A(41,43,59)           120.1662         estimate D2E/DX2                !
 ! A150  A(46,43,59)           107.6851         estimate D2E/DX2                !
 ! A151  A(26,44,45)           107.66           estimate D2E/DX2                !
 ! A152  A(26,44,46)           119.7306         estimate D2E/DX2                !
 ! A153  A(45,44,46)           120.1848         estimate D2E/DX2                !
 ! A154  A(28,45,44)           106.6432         estimate D2E/DX2                !
 ! A155  A(28,45,48)           119.8498         estimate D2E/DX2                !
 ! A156  A(44,45,48)           122.1846         estimate D2E/DX2                !
 ! A157  A(43,46,44)           119.6328         estimate D2E/DX2                !
 ! A158  A(43,46,61)           109.1676         estimate D2E/DX2                !
 ! A159  A(44,46,61)           118.3358         estimate D2E/DX2                !
 ! A160  A(30,47,48)           113.2008         estimate D2E/DX2                !
 ! A161  A(30,47,50)           110.6231         estimate D2E/DX2                !
 ! A162  A(30,47,74)           105.5647         estimate D2E/DX2                !
 ! A163  A(48,47,50)           101.135          estimate D2E/DX2                !
 ! A164  A(48,47,74)           113.3955         estimate D2E/DX2                !
 ! A165  A(50,47,74)           113.1195         estimate D2E/DX2                !
 ! A166  A(45,48,47)           122.4802         estimate D2E/DX2                !
 ! A167  A(45,48,62)           117.7284         estimate D2E/DX2                !
 ! A168  A(47,48,62)           111.9101         estimate D2E/DX2                !
 ! A169  A(31,49,50)           122.9448         estimate D2E/DX2                !
 ! A170  A(31,49,54)           111.1326         estimate D2E/DX2                !
 ! A171  A(50,49,54)           118.6677         estimate D2E/DX2                !
 ! A172  A(47,50,49)           121.9542         estimate D2E/DX2                !
 ! A173  A(47,50,63)           110.2115         estimate D2E/DX2                !
 ! A174  A(49,50,63)           120.2381         estimate D2E/DX2                !
 ! A175  A(34,51,52)           121.814          estimate D2E/DX2                !
 ! A176  A(34,51,54)           108.2821         estimate D2E/DX2                !
 ! A177  A(52,51,54)           119.0327         estimate D2E/DX2                !
 ! A178  A(36,52,51)           118.3223         estimate D2E/DX2                !
 ! A179  A(36,52,53)           106.317          estimate D2E/DX2                !
 ! A180  A(51,52,53)           121.458          estimate D2E/DX2                !
 ! A181  A(37,53,52)           109.2261         estimate D2E/DX2                !
 ! A182  A(37,53,55)           118.7899         estimate D2E/DX2                !
 ! A183  A(52,53,55)           119.446          estimate D2E/DX2                !
 ! A184  A(49,54,51)           108.124          estimate D2E/DX2                !
 ! A185  A(49,54,56)           121.4032         estimate D2E/DX2                !
 ! A186  A(51,54,56)           119.4981         estimate D2E/DX2                !
 ! A187  A(53,55,56)           118.9376         estimate D2E/DX2                !
 ! A188  A(53,55,60)           119.6602         estimate D2E/DX2                !
 ! A189  A(56,55,60)           109.25           estimate D2E/DX2                !
 ! A190  A(54,56,55)           121.4036         estimate D2E/DX2                !
 ! A191  A(54,56,64)           119.7362         estimate D2E/DX2                !
 ! A192  A(55,56,64)           107.0959         estimate D2E/DX2                !
 ! A193  A(39,57,58)           107.2592         estimate D2E/DX2                !
 ! A194  A(39,57,60)           119.104          estimate D2E/DX2                !
 ! A195  A(58,57,60)           120.5107         estimate D2E/DX2                !
 ! A196  A(42,58,57)           108.7888         estimate D2E/DX2                !
 ! A197  A(42,58,59)           120.4494         estimate D2E/DX2                !
 ! A198  A(57,58,59)           119.1716         estimate D2E/DX2                !
 ! A199  A(43,59,58)           118.7116         estimate D2E/DX2                !
 ! A200  A(43,59,65)           107.6592         estimate D2E/DX2                !
 ! A201  A(58,59,65)           120.6109         estimate D2E/DX2                !
 ! A202  A(55,60,57)           121.3154         estimate D2E/DX2                !
 ! A203  A(55,60,66)           106.4304         estimate D2E/DX2                !
 ! A204  A(57,60,66)           120.0992         estimate D2E/DX2                !
 ! A205  A(46,61,62)           120.3425         estimate D2E/DX2                !
 ! A206  A(46,61,65)           106.6365         estimate D2E/DX2                !
 ! A207  A(62,61,65)           120.1448         estimate D2E/DX2                !
 ! A208  A(48,62,61)           121.1874         estimate D2E/DX2                !
 ! A209  A(48,62,63)           107.0229         estimate D2E/DX2                !
 ! A210  A(61,62,63)           120.4587         estimate D2E/DX2                !
 ! A211  A(50,63,62)           109.2458         estimate D2E/DX2                !
 ! A212  A(50,63,64)           121.6273         estimate D2E/DX2                !
 ! A213  A(62,63,64)           118.8948         estimate D2E/DX2                !
 ! A214  A(56,64,63)           118.274          estimate D2E/DX2                !
 ! A215  A(56,64,66)           108.7364         estimate D2E/DX2                !
 ! A216  A(63,64,66)           121.0685         estimate D2E/DX2                !
 ! A217  A(59,65,61)           108.8145         estimate D2E/DX2                !
 ! A218  A(59,65,66)           119.5218         estimate D2E/DX2                !
 ! A219  A(61,65,66)           119.5626         estimate D2E/DX2                !
 ! A220  A(60,66,64)           108.4091         estimate D2E/DX2                !
 ! A221  A(60,66,65)           119.9403         estimate D2E/DX2                !
 ! A222  A(64,66,65)           119.7304         estimate D2E/DX2                !
 ! D1    D(4,1,2,3)             17.9047         estimate D2E/DX2                !
 ! D2    D(4,1,2,10)           -90.8782         estimate D2E/DX2                !
 ! D3    D(4,1,2,68)           148.2624         estimate D2E/DX2                !
 ! D4    D(7,1,2,3)            127.953          estimate D2E/DX2                !
 ! D5    D(7,1,2,10)            19.1702         estimate D2E/DX2                !
 ! D6    D(7,1,2,68)          -101.6893         estimate D2E/DX2                !
 ! D7    D(67,1,2,3)           -98.7353         estimate D2E/DX2                !
 ! D8    D(67,1,2,10)          152.4819         estimate D2E/DX2                !
 ! D9    D(67,1,2,68)           31.6224         estimate D2E/DX2                !
 ! D10   D(2,1,4,5)            -17.6774         estimate D2E/DX2                !
 ! D11   D(2,1,4,6)            134.932          estimate D2E/DX2                !
 ! D12   D(7,1,4,5)           -141.3898         estimate D2E/DX2                !
 ! D13   D(7,1,4,6)             11.2196         estimate D2E/DX2                !
 ! D14   D(67,1,4,5)            97.6502         estimate D2E/DX2                !
 ! D15   D(67,1,4,6)          -109.7404         estimate D2E/DX2                !
 ! D16   D(2,1,7,8)           -116.8909         estimate D2E/DX2                !
 ! D17   D(2,1,7,9)             -5.1758         estimate D2E/DX2                !
 ! D18   D(2,1,7,71)           121.4141         estimate D2E/DX2                !
 ! D19   D(4,1,7,8)             -8.7164         estimate D2E/DX2                !
 ! D20   D(4,1,7,9)            102.9987         estimate D2E/DX2                !
 ! D21   D(4,1,7,71)          -130.4114         estimate D2E/DX2                !
 ! D22   D(67,1,7,8)           111.1746         estimate D2E/DX2                !
 ! D23   D(67,1,7,9)          -137.1103         estimate D2E/DX2                !
 ! D24   D(67,1,7,71)          -10.5204         estimate D2E/DX2                !
 ! D25   D(1,2,3,5)            -13.1659         estimate D2E/DX2                !
 ! D26   D(1,2,3,12)          -118.9825         estimate D2E/DX2                !
 ! D27   D(1,2,3,69)           112.9782         estimate D2E/DX2                !
 ! D28   D(10,2,3,5)           101.8432         estimate D2E/DX2                !
 ! D29   D(10,2,3,12)           -3.9735         estimate D2E/DX2                !
 ! D30   D(10,2,3,69)         -132.0127         estimate D2E/DX2                !
 ! D31   D(68,2,3,5)          -139.7434         estimate D2E/DX2                !
 ! D32   D(68,2,3,12)          114.44           estimate D2E/DX2                !
 ! D33   D(68,2,3,69)          -13.5993         estimate D2E/DX2                !
 ! D34   D(1,2,10,11)          -34.5202         estimate D2E/DX2                !
 ! D35   D(1,2,10,13)          129.9749         estimate D2E/DX2                !
 ! D36   D(3,2,10,11)         -148.8991         estimate D2E/DX2                !
 ! D37   D(3,2,10,13)           15.596          estimate D2E/DX2                !
 ! D38   D(68,2,10,11)          87.0394         estimate D2E/DX2                !
 ! D39   D(68,2,10,13)        -108.4655         estimate D2E/DX2                !
 ! D40   D(2,3,5,4)              2.3602         estimate D2E/DX2                !
 ! D41   D(2,3,5,15)          -144.4043         estimate D2E/DX2                !
 ! D42   D(12,3,5,4)           112.0914         estimate D2E/DX2                !
 ! D43   D(12,3,5,15)          -34.6731         estimate D2E/DX2                !
 ! D44   D(69,3,5,4)          -126.2801         estimate D2E/DX2                !
 ! D45   D(69,3,5,15)           86.9554         estimate D2E/DX2                !
 ! D46   D(2,3,12,13)           -8.2178         estimate D2E/DX2                !
 ! D47   D(2,3,12,14)          144.1108         estimate D2E/DX2                !
 ! D48   D(5,3,12,13)         -114.813          estimate D2E/DX2                !
 ! D49   D(5,3,12,14)           37.5156         estimate D2E/DX2                !
 ! D50   D(69,3,12,13)         122.7494         estimate D2E/DX2                !
 ! D51   D(69,3,12,14)         -84.922          estimate D2E/DX2                !
 ! D52   D(1,4,5,3)             10.4904         estimate D2E/DX2                !
 ! D53   D(1,4,5,15)           159.3836         estimate D2E/DX2                !
 ! D54   D(6,4,5,3)           -139.335          estimate D2E/DX2                !
 ! D55   D(6,4,5,15)             9.5582         estimate D2E/DX2                !
 ! D56   D(1,4,6,8)             -9.0781         estimate D2E/DX2                !
 ! D57   D(1,4,6,17)          -162.1588         estimate D2E/DX2                !
 ! D58   D(5,4,6,8)            141.2605         estimate D2E/DX2                !
 ! D59   D(5,4,6,17)           -11.8202         estimate D2E/DX2                !
 ! D60   D(3,5,15,16)           -1.3989         estimate D2E/DX2                !
 ! D61   D(3,5,15,18)          145.5925         estimate D2E/DX2                !
 ! D62   D(4,5,15,16)         -145.9711         estimate D2E/DX2                !
 ! D63   D(4,5,15,18)            1.0203         estimate D2E/DX2                !
 ! D64   D(4,6,8,7)              2.5057         estimate D2E/DX2                !
 ! D65   D(4,6,8,20)          -152.6704         estimate D2E/DX2                !
 ! D66   D(17,6,8,7)           154.4009         estimate D2E/DX2                !
 ! D67   D(17,6,8,20)           -0.7752         estimate D2E/DX2                !
 ! D68   D(4,6,17,18)            3.0401         estimate D2E/DX2                !
 ! D69   D(4,6,17,19)          156.8114         estimate D2E/DX2                !
 ! D70   D(8,6,17,18)         -145.9202         estimate D2E/DX2                !
 ! D71   D(8,6,17,19)            7.8511         estimate D2E/DX2                !
 ! D72   D(1,7,8,6)              4.2265         estimate D2E/DX2                !
 ! D73   D(1,7,8,20)           156.7935         estimate D2E/DX2                !
 ! D74   D(9,7,8,6)           -117.9096         estimate D2E/DX2                !
 ! D75   D(9,7,8,20)            34.6574         estimate D2E/DX2                !
 ! D76   D(71,7,8,6)           127.4848         estimate D2E/DX2                !
 ! D77   D(71,7,8,20)          -79.9482         estimate D2E/DX2                !
 ! D78   D(1,7,9,11)             0.5237         estimate D2E/DX2                !
 ! D79   D(1,7,9,22)          -158.2653         estimate D2E/DX2                !
 ! D80   D(8,7,9,11)           114.0218         estimate D2E/DX2                !
 ! D81   D(8,7,9,22)           -44.7672         estimate D2E/DX2                !
 ! D82   D(71,7,9,11)         -128.8832         estimate D2E/DX2                !
 ! D83   D(71,7,9,22)           72.3278         estimate D2E/DX2                !
 ! D84   D(6,8,20,21)           -6.7028         estimate D2E/DX2                !
 ! D85   D(6,8,20,23)          156.9094         estimate D2E/DX2                !
 ! D86   D(7,8,20,21)         -156.7116         estimate D2E/DX2                !
 ! D87   D(7,8,20,23)            6.9006         estimate D2E/DX2                !
 ! D88   D(7,9,11,10)          -12.2237         estimate D2E/DX2                !
 ! D89   D(7,9,11,25)         -162.0493         estimate D2E/DX2                !
 ! D90   D(22,9,11,10)         146.6643         estimate D2E/DX2                !
 ! D91   D(22,9,11,25)          -3.1613         estimate D2E/DX2                !
 ! D92   D(7,9,22,23)           17.3851         estimate D2E/DX2                !
 ! D93   D(7,9,22,24)          168.5879         estimate D2E/DX2                !
 ! D94   D(11,9,22,23)        -141.9516         estimate D2E/DX2                !
 ! D95   D(11,9,22,24)           9.2513         estimate D2E/DX2                !
 ! D96   D(2,10,11,9)           32.3003         estimate D2E/DX2                !
 ! D97   D(2,10,11,25)        -176.7375         estimate D2E/DX2                !
 ! D98   D(13,10,11,9)        -131.6585         estimate D2E/DX2                !
 ! D99   D(13,10,11,25)         19.3037         estimate D2E/DX2                !
 ! D100  D(2,10,13,12)         -21.8681         estimate D2E/DX2                !
 ! D101  D(2,10,13,27)        -174.4431         estimate D2E/DX2                !
 ! D102  D(11,10,13,12)        144.1017         estimate D2E/DX2                !
 ! D103  D(11,10,13,27)         -8.4734         estimate D2E/DX2                !
 ! D104  D(9,11,25,26)          -6.7278         estimate D2E/DX2                !
 ! D105  D(9,11,25,28)         139.0496         estimate D2E/DX2                !
 ! D106  D(10,11,25,26)       -157.3656         estimate D2E/DX2                !
 ! D107  D(10,11,25,28)        -11.5882         estimate D2E/DX2                !
 ! D108  D(3,12,13,10)          17.6978         estimate D2E/DX2                !
 ! D109  D(3,12,13,27)         171.6759         estimate D2E/DX2                !
 ! D110  D(14,12,13,10)       -137.3131         estimate D2E/DX2                !
 ! D111  D(14,12,13,27)         16.665          estimate D2E/DX2                !
 ! D112  D(3,12,14,16)          -2.2159         estimate D2E/DX2                !
 ! D113  D(3,12,14,29)        -167.0652         estimate D2E/DX2                !
 ! D114  D(13,12,14,16)        147.6417         estimate D2E/DX2                !
 ! D115  D(13,12,14,29)        -17.2075         estimate D2E/DX2                !
 ! D116  D(10,13,27,28)        -11.5477         estimate D2E/DX2                !
 ! D117  D(10,13,27,30)        144.2114         estimate D2E/DX2                !
 ! D118  D(12,13,27,28)       -160.5031         estimate D2E/DX2                !
 ! D119  D(12,13,27,30)         -4.7439         estimate D2E/DX2                !
 ! D120  D(12,14,16,15)        -35.1016         estimate D2E/DX2                !
 ! D121  D(12,14,16,32)       -142.3672         estimate D2E/DX2                !
 ! D122  D(12,14,16,70)         90.4943         estimate D2E/DX2                !
 ! D123  D(29,14,16,15)        129.5827         estimate D2E/DX2                !
 ! D124  D(29,14,16,32)         22.3171         estimate D2E/DX2                !
 ! D125  D(29,14,16,70)       -104.8214         estimate D2E/DX2                !
 ! D126  D(12,14,29,30)          6.2887         estimate D2E/DX2                !
 ! D127  D(12,14,29,31)        175.5042         estimate D2E/DX2                !
 ! D128  D(16,14,29,30)       -158.1807         estimate D2E/DX2                !
 ! D129  D(16,14,29,31)         11.0348         estimate D2E/DX2                !
 ! D130  D(5,15,16,14)          38.1473         estimate D2E/DX2                !
 ! D131  D(5,15,16,32)         151.8116         estimate D2E/DX2                !
 ! D132  D(5,15,16,70)         -83.9644         estimate D2E/DX2                !
 ! D133  D(18,15,16,14)       -111.4418         estimate D2E/DX2                !
 ! D134  D(18,15,16,32)          2.2225         estimate D2E/DX2                !
 ! D135  D(18,15,16,70)        126.4465         estimate D2E/DX2                !
 ! D136  D(5,15,18,17)          -9.5075         estimate D2E/DX2                !
 ! D137  D(5,15,18,33)        -159.0703         estimate D2E/DX2                !
 ! D138  D(16,15,18,17)        141.2077         estimate D2E/DX2                !
 ! D139  D(16,15,18,33)         -8.3551         estimate D2E/DX2                !
 ! D140  D(14,16,32,33)        114.0281         estimate D2E/DX2                !
 ! D141  D(14,16,32,34)        -32.3371         estimate D2E/DX2                !
 ! D142  D(15,16,32,33)          4.6431         estimate D2E/DX2                !
 ! D143  D(15,16,32,34)       -141.7221         estimate D2E/DX2                !
 ! D144  D(70,16,32,33)       -120.8372         estimate D2E/DX2                !
 ! D145  D(70,16,32,34)         92.7976         estimate D2E/DX2                !
 ! D146  D(6,17,18,15)           7.2808         estimate D2E/DX2                !
 ! D147  D(6,17,18,33)         153.4486         estimate D2E/DX2                !
 ! D148  D(19,17,18,15)       -145.3416         estimate D2E/DX2                !
 ! D149  D(19,17,18,33)          0.8261         estimate D2E/DX2                !
 ! D150  D(6,17,19,21)          -7.2555         estimate D2E/DX2                !
 ! D151  D(6,17,19,35)        -162.9276         estimate D2E/DX2                !
 ! D152  D(18,17,19,21)        144.85           estimate D2E/DX2                !
 ! D153  D(18,17,19,35)        -10.8221         estimate D2E/DX2                !
 ! D154  D(15,18,33,32)         11.1678         estimate D2E/DX2                !
 ! D155  D(15,18,33,36)        157.9565         estimate D2E/DX2                !
 ! D156  D(17,18,33,32)       -138.9874         estimate D2E/DX2                !
 ! D157  D(17,18,33,36)          7.8013         estimate D2E/DX2                !
 ! D158  D(17,19,21,20)          0.2552         estimate D2E/DX2                !
 ! D159  D(17,19,21,38)       -156.6701         estimate D2E/DX2                !
 ! D160  D(35,19,21,20)        154.8275         estimate D2E/DX2                !
 ! D161  D(35,19,21,38)         -2.0979         estimate D2E/DX2                !
 ! D162  D(17,19,35,36)         12.5617         estimate D2E/DX2                !
 ! D163  D(17,19,35,37)        153.1155         estimate D2E/DX2                !
 ! D164  D(21,19,35,36)       -142.8723         estimate D2E/DX2                !
 ! D165  D(21,19,35,37)         -2.3185         estimate D2E/DX2                !
 ! D166  D(8,20,21,19)           6.9552         estimate D2E/DX2                !
 ! D167  D(8,20,21,38)         163.5321         estimate D2E/DX2                !
 ! D168  D(23,20,21,19)       -155.9685         estimate D2E/DX2                !
 ! D169  D(23,20,21,38)          0.6083         estimate D2E/DX2                !
 ! D170  D(8,20,23,22)         -37.0562         estimate D2E/DX2                !
 ! D171  D(8,20,23,40)        -147.526          estimate D2E/DX2                !
 ! D172  D(8,20,23,72)          86.3554         estimate D2E/DX2                !
 ! D173  D(21,20,23,22)        126.3889         estimate D2E/DX2                !
 ! D174  D(21,20,23,40)         15.9191         estimate D2E/DX2                !
 ! D175  D(21,20,23,72)       -110.1995         estimate D2E/DX2                !
 ! D176  D(19,21,38,39)          5.2299         estimate D2E/DX2                !
 ! D177  D(19,21,38,42)        145.6401         estimate D2E/DX2                !
 ! D178  D(20,21,38,39)       -151.8427         estimate D2E/DX2                !
 ! D179  D(20,21,38,42)        -11.4324         estimate D2E/DX2                !
 ! D180  D(9,22,23,20)          26.6644         estimate D2E/DX2                !
 ! D181  D(9,22,23,40)         144.9059         estimate D2E/DX2                !
 ! D182  D(9,22,23,72)         -93.5977         estimate D2E/DX2                !
 ! D183  D(24,22,23,20)       -127.7159         estimate D2E/DX2                !
 ! D184  D(24,22,23,40)         -9.4743         estimate D2E/DX2                !
 ! D185  D(24,22,23,72)        112.0221         estimate D2E/DX2                !
 ! D186  D(9,22,24,26)          -5.736          estimate D2E/DX2                !
 ! D187  D(9,22,24,41)        -151.8693         estimate D2E/DX2                !
 ! D188  D(23,22,24,26)        149.7363         estimate D2E/DX2                !
 ! D189  D(23,22,24,41)          3.603          estimate D2E/DX2                !
 ! D190  D(20,23,40,41)        125.7144         estimate D2E/DX2                !
 ! D191  D(20,23,40,42)        -23.7328         estimate D2E/DX2                !
 ! D192  D(22,23,40,41)         12.6061         estimate D2E/DX2                !
 ! D193  D(22,23,40,42)       -136.8411         estimate D2E/DX2                !
 ! D194  D(72,23,40,41)       -109.9759         estimate D2E/DX2                !
 ! D195  D(72,23,40,42)        100.5769         estimate D2E/DX2                !
 ! D196  D(22,24,26,25)         -4.1616         estimate D2E/DX2                !
 ! D197  D(22,24,26,44)       -141.7537         estimate D2E/DX2                !
 ! D198  D(41,24,26,25)        139.0033         estimate D2E/DX2                !
 ! D199  D(41,24,26,44)          1.4112         estimate D2E/DX2                !
 ! D200  D(22,24,41,40)          4.3344         estimate D2E/DX2                !
 ! D201  D(22,24,41,43)        147.0106         estimate D2E/DX2                !
 ! D202  D(26,24,41,40)       -142.6073         estimate D2E/DX2                !
 ! D203  D(26,24,41,43)          0.069          estimate D2E/DX2                !
 ! D204  D(11,25,26,24)         10.2451         estimate D2E/DX2                !
 ! D205  D(11,25,26,44)        152.7065         estimate D2E/DX2                !
 ! D206  D(28,25,26,24)       -140.3936         estimate D2E/DX2                !
 ! D207  D(28,25,26,44)          2.0678         estimate D2E/DX2                !
 ! D208  D(11,25,28,27)         -8.6526         estimate D2E/DX2                !
 ! D209  D(11,25,28,45)       -151.9696         estimate D2E/DX2                !
 ! D210  D(26,25,28,27)        141.2056         estimate D2E/DX2                !
 ! D211  D(26,25,28,45)         -2.1114         estimate D2E/DX2                !
 ! D212  D(24,26,44,45)        139.5023         estimate D2E/DX2                !
 ! D213  D(24,26,44,46)         -2.6331         estimate D2E/DX2                !
 ! D214  D(25,26,44,45)         -1.2473         estimate D2E/DX2                !
 ! D215  D(25,26,44,46)       -143.3827         estimate D2E/DX2                !
 ! D216  D(13,27,28,25)         19.253          estimate D2E/DX2                !
 ! D217  D(13,27,28,45)        158.6059         estimate D2E/DX2                !
 ! D218  D(30,27,28,25)       -135.5557         estimate D2E/DX2                !
 ! D219  D(30,27,28,45)          3.7972         estimate D2E/DX2                !
 ! D220  D(13,27,30,29)         -6.3917         estimate D2E/DX2                !
 ! D221  D(13,27,30,47)       -173.7203         estimate D2E/DX2                !
 ! D222  D(28,27,30,29)        147.3471         estimate D2E/DX2                !
 ! D223  D(28,27,30,47)        -19.9816         estimate D2E/DX2                !
 ! D224  D(25,28,45,44)          1.3449         estimate D2E/DX2                !
 ! D225  D(25,28,45,48)        145.6879         estimate D2E/DX2                !
 ! D226  D(27,28,45,44)       -141.293          estimate D2E/DX2                !
 ! D227  D(27,28,45,48)          3.0501         estimate D2E/DX2                !
 ! D228  D(14,29,30,27)          5.635          estimate D2E/DX2                !
 ! D229  D(14,29,30,47)        172.0704         estimate D2E/DX2                !
 ! D230  D(31,29,30,27)       -163.485          estimate D2E/DX2                !
 ! D231  D(31,29,30,47)          2.9504         estimate D2E/DX2                !
 ! D232  D(14,29,31,34)        -35.724          estimate D2E/DX2                !
 ! D233  D(14,29,31,49)       -146.3086         estimate D2E/DX2                !
 ! D234  D(14,29,31,73)         88.8719         estimate D2E/DX2                !
 ! D235  D(30,29,31,34)        133.4627         estimate D2E/DX2                !
 ! D236  D(30,29,31,49)         22.8781         estimate D2E/DX2                !
 ! D237  D(30,29,31,73)       -101.9414         estimate D2E/DX2                !
 ! D238  D(27,30,47,48)         27.9623         estimate D2E/DX2                !
 ! D239  D(27,30,47,50)        140.6559         estimate D2E/DX2                !
 ! D240  D(27,30,47,74)        -96.6379         estimate D2E/DX2                !
 ! D241  D(29,30,47,48)       -138.8802         estimate D2E/DX2                !
 ! D242  D(29,30,47,50)        -26.1865         estimate D2E/DX2                !
 ! D243  D(29,30,47,74)         96.5196         estimate D2E/DX2                !
 ! D244  D(29,31,34,32)         27.6276         estimate D2E/DX2                !
 ! D245  D(29,31,34,51)       -122.5423         estimate D2E/DX2                !
 ! D246  D(49,31,34,32)        145.0741         estimate D2E/DX2                !
 ! D247  D(49,31,34,51)         -5.0958         estimate D2E/DX2                !
 ! D248  D(73,31,34,32)        -93.3928         estimate D2E/DX2                !
 ! D249  D(73,31,34,51)        116.4373         estimate D2E/DX2                !
 ! D250  D(29,31,49,50)        -26.2139         estimate D2E/DX2                !
 ! D251  D(29,31,49,54)        123.4812         estimate D2E/DX2                !
 ! D252  D(34,31,49,50)       -142.5333         estimate D2E/DX2                !
 ! D253  D(34,31,49,54)          7.1618         estimate D2E/DX2                !
 ! D254  D(73,31,49,50)         95.5003         estimate D2E/DX2                !
 ! D255  D(73,31,49,54)       -114.8046         estimate D2E/DX2                !
 ! D256  D(16,32,33,18)         -9.8496         estimate D2E/DX2                !
 ! D257  D(16,32,33,36)       -154.2771         estimate D2E/DX2                !
 ! D258  D(34,32,33,18)        138.7393         estimate D2E/DX2                !
 ! D259  D(34,32,33,36)         -5.6882         estimate D2E/DX2                !
 ! D260  D(16,32,34,31)          6.9108         estimate D2E/DX2                !
 ! D261  D(16,32,34,51)        154.6896         estimate D2E/DX2                !
 ! D262  D(33,32,34,31)       -137.3696         estimate D2E/DX2                !
 ! D263  D(33,32,34,51)         10.4092         estimate D2E/DX2                !
 ! D264  D(18,33,36,35)         -6.0507         estimate D2E/DX2                !
 ! D265  D(18,33,36,52)       -145.2102         estimate D2E/DX2                !
 ! D266  D(32,33,36,35)        135.0112         estimate D2E/DX2                !
 ! D267  D(32,33,36,52)         -4.1483         estimate D2E/DX2                !
 ! D268  D(31,34,51,52)        145.1345         estimate D2E/DX2                !
 ! D269  D(31,34,51,54)          1.3866         estimate D2E/DX2                !
 ! D270  D(32,34,51,52)         -5.8061         estimate D2E/DX2                !
 ! D271  D(32,34,51,54)       -149.554          estimate D2E/DX2                !
 ! D272  D(19,35,36,33)         -4.4479         estimate D2E/DX2                !
 ! D273  D(19,35,36,52)        137.8322         estimate D2E/DX2                !
 ! D274  D(37,35,36,33)       -149.5649         estimate D2E/DX2                !
 ! D275  D(37,35,36,52)         -7.2849         estimate D2E/DX2                !
 ! D276  D(19,35,37,39)          3.6741         estimate D2E/DX2                !
 ! D277  D(19,35,37,53)       -139.5591         estimate D2E/DX2                !
 ! D278  D(36,35,37,39)        148.8353         estimate D2E/DX2                !
 ! D279  D(36,35,37,53)          5.6021         estimate D2E/DX2                !
 ! D280  D(33,36,52,51)          8.8448         estimate D2E/DX2                !
 ! D281  D(33,36,52,53)        149.6948         estimate D2E/DX2                !
 ! D282  D(35,36,52,51)       -134.922          estimate D2E/DX2                !
 ! D283  D(35,36,52,53)          5.9279         estimate D2E/DX2                !
 ! D284  D(35,37,39,38)         -0.5941         estimate D2E/DX2                !
 ! D285  D(35,37,39,57)       -140.4203         estimate D2E/DX2                !
 ! D286  D(53,37,39,38)        137.1473         estimate D2E/DX2                !
 ! D287  D(53,37,39,57)         -2.6789         estimate D2E/DX2                !
 ! D288  D(35,37,53,52)         -2.0114         estimate D2E/DX2                !
 ! D289  D(35,37,53,55)        139.7758         estimate D2E/DX2                !
 ! D290  D(39,37,53,52)       -143.971          estimate D2E/DX2                !
 ! D291  D(39,37,53,55)         -2.1838         estimate D2E/DX2                !
 ! D292  D(21,38,39,37)         -3.982          estimate D2E/DX2                !
 ! D293  D(21,38,39,57)        139.3625         estimate D2E/DX2                !
 ! D294  D(42,38,39,37)       -148.8701         estimate D2E/DX2                !
 ! D295  D(42,38,39,57)         -5.5256         estimate D2E/DX2                !
 ! D296  D(21,38,42,40)          4.1368         estimate D2E/DX2                !
 ! D297  D(21,38,42,58)       -139.2357         estimate D2E/DX2                !
 ! D298  D(39,38,42,40)        149.5948         estimate D2E/DX2                !
 ! D299  D(39,38,42,58)          6.2223         estimate D2E/DX2                !
 ! D300  D(37,39,57,58)        146.6113         estimate D2E/DX2                !
 ! D301  D(37,39,57,60)          5.2209         estimate D2E/DX2                !
 ! D302  D(38,39,57,58)          2.6891         estimate D2E/DX2                !
 ! D303  D(38,39,57,60)       -138.7014         estimate D2E/DX2                !
 ! D304  D(23,40,41,24)        -10.9939         estimate D2E/DX2                !
 ! D305  D(23,40,41,43)       -153.4641         estimate D2E/DX2                !
 ! D306  D(42,40,41,24)        139.466          estimate D2E/DX2                !
 ! D307  D(42,40,41,43)         -3.0042         estimate D2E/DX2                !
 ! D308  D(23,40,42,38)         14.6524         estimate D2E/DX2                !
 ! D309  D(23,40,42,58)        153.0684         estimate D2E/DX2                !
 ! D310  D(41,40,42,38)       -132.7277         estimate D2E/DX2                !
 ! D311  D(41,40,42,58)          5.6884         estimate D2E/DX2                !
 ! D312  D(24,41,43,46)         -0.3634         estimate D2E/DX2                !
 ! D313  D(24,41,43,59)       -137.9716         estimate D2E/DX2                !
 ! D314  D(40,41,43,46)        137.1177         estimate D2E/DX2                !
 ! D315  D(40,41,43,59)         -0.4905         estimate D2E/DX2                !
 ! D316  D(38,42,58,57)         -4.6348         estimate D2E/DX2                !
 ! D317  D(38,42,58,59)        138.2316         estimate D2E/DX2                !
 ! D318  D(40,42,58,57)       -147.8854         estimate D2E/DX2                !
 ! D319  D(40,42,58,59)         -5.019          estimate D2E/DX2                !
 ! D320  D(41,43,46,44)         -0.8501         estimate D2E/DX2                !
 ! D321  D(41,43,46,61)       -141.7308         estimate D2E/DX2                !
 ! D322  D(59,43,46,44)        141.4297         estimate D2E/DX2                !
 ! D323  D(59,43,46,61)          0.549          estimate D2E/DX2                !
 ! D324  D(41,43,59,58)          1.2222         estimate D2E/DX2                !
 ! D325  D(41,43,59,65)        142.8209         estimate D2E/DX2                !
 ! D326  D(46,43,59,58)       -140.9132         estimate D2E/DX2                !
 ! D327  D(46,43,59,65)          0.6854         estimate D2E/DX2                !
 ! D328  D(26,44,45,28)         -0.0479         estimate D2E/DX2                !
 ! D329  D(26,44,45,48)       -143.3644         estimate D2E/DX2                !
 ! D330  D(46,44,45,28)        141.8833         estimate D2E/DX2                !
 ! D331  D(46,44,45,48)         -1.4333         estimate D2E/DX2                !
 ! D332  D(26,44,46,43)          2.296          estimate D2E/DX2                !
 ! D333  D(26,44,46,61)        139.6795         estimate D2E/DX2                !
 ! D334  D(45,44,46,43)       -135.1244         estimate D2E/DX2                !
 ! D335  D(45,44,46,61)          2.2591         estimate D2E/DX2                !
 ! D336  D(28,45,48,47)          7.6484         estimate D2E/DX2                !
 ! D337  D(28,45,48,62)       -138.8997         estimate D2E/DX2                !
 ! D338  D(44,45,48,47)        146.355          estimate D2E/DX2                !
 ! D339  D(44,45,48,62)         -0.1931         estimate D2E/DX2                !
 ! D340  D(43,46,61,62)        139.8979         estimate D2E/DX2                !
 ! D341  D(43,46,61,65)         -1.5666         estimate D2E/DX2                !
 ! D342  D(44,46,61,62)         -1.561          estimate D2E/DX2                !
 ! D343  D(44,46,61,65)       -143.0256         estimate D2E/DX2                !
 ! D344  D(30,47,48,45)        -22.9448         estimate D2E/DX2                !
 ! D345  D(30,47,48,62)        125.3249         estimate D2E/DX2                !
 ! D346  D(50,47,48,45)       -141.2993         estimate D2E/DX2                !
 ! D347  D(50,47,48,62)          6.9704         estimate D2E/DX2                !
 ! D348  D(74,47,48,45)         97.2888         estimate D2E/DX2                !
 ! D349  D(74,47,48,62)       -114.4415         estimate D2E/DX2                !
 ! D350  D(30,47,50,49)         23.3201         estimate D2E/DX2                !
 ! D351  D(30,47,50,63)       -126.2349         estimate D2E/DX2                !
 ! D352  D(48,47,50,49)        143.524          estimate D2E/DX2                !
 ! D353  D(48,47,50,63)         -6.031          estimate D2E/DX2                !
 ! D354  D(74,47,50,49)        -94.8706         estimate D2E/DX2                !
 ! D355  D(74,47,50,63)        115.5744         estimate D2E/DX2                !
 ! D356  D(45,48,62,61)          0.9074         estimate D2E/DX2                !
 ! D357  D(45,48,62,63)        144.521          estimate D2E/DX2                !
 ! D358  D(47,48,62,61)       -149.0123         estimate D2E/DX2                !
 ! D359  D(47,48,62,63)         -5.3987         estimate D2E/DX2                !
 ! D360  D(31,49,50,47)          2.5269         estimate D2E/DX2                !
 ! D361  D(31,49,50,63)        149.1327         estimate D2E/DX2                !
 ! D362  D(54,49,50,47)       -145.0326         estimate D2E/DX2                !
 ! D363  D(54,49,50,63)          1.5732         estimate D2E/DX2                !
 ! D364  D(31,49,54,51)         -6.8377         estimate D2E/DX2                !
 ! D365  D(31,49,54,56)       -150.6253         estimate D2E/DX2                !
 ! D366  D(50,49,54,51)        144.3057         estimate D2E/DX2                !
 ! D367  D(50,49,54,56)          0.5181         estimate D2E/DX2                !
 ! D368  D(47,50,63,62)          3.2658         estimate D2E/DX2                !
 ! D369  D(47,50,63,64)        147.9618         estimate D2E/DX2                !
 ! D370  D(49,50,63,62)       -146.8903         estimate D2E/DX2                !
 ! D371  D(49,50,63,64)         -2.1943         estimate D2E/DX2                !
 ! D372  D(34,51,52,36)         -4.204          estimate D2E/DX2                !
 ! D373  D(34,51,52,53)       -138.9426         estimate D2E/DX2                !
 ! D374  D(54,51,52,36)        135.841          estimate D2E/DX2                !
 ! D375  D(54,51,52,53)          1.1024         estimate D2E/DX2                !
 ! D376  D(34,51,54,49)          3.3061         estimate D2E/DX2                !
 ! D377  D(34,51,54,56)        147.9018         estimate D2E/DX2                !
 ! D378  D(52,51,54,49)       -141.6141         estimate D2E/DX2                !
 ! D379  D(52,51,54,56)          2.9816         estimate D2E/DX2                !
 ! D380  D(36,52,53,37)         -2.429          estimate D2E/DX2                !
 ! D381  D(36,52,53,55)       -143.927          estimate D2E/DX2                !
 ! D382  D(51,52,53,37)        136.9134         estimate D2E/DX2                !
 ! D383  D(51,52,53,55)         -4.5845         estimate D2E/DX2                !
 ! D384  D(37,53,55,56)       -134.0337         estimate D2E/DX2                !
 ! D385  D(37,53,55,60)          4.4166         estimate D2E/DX2                !
 ! D386  D(52,53,55,56)          3.843          estimate D2E/DX2                !
 ! D387  D(52,53,55,60)        142.2933         estimate D2E/DX2                !
 ! D388  D(49,54,56,55)        136.1319         estimate D2E/DX2                !
 ! D389  D(49,54,56,64)         -2.0602         estimate D2E/DX2                !
 ! D390  D(51,54,56,55)         -3.6956         estimate D2E/DX2                !
 ! D391  D(51,54,56,64)       -141.8878         estimate D2E/DX2                !
 ! D392  D(53,55,56,54)          0.2177         estimate D2E/DX2                !
 ! D393  D(53,55,56,64)        142.9449         estimate D2E/DX2                !
 ! D394  D(60,55,56,54)       -142.1568         estimate D2E/DX2                !
 ! D395  D(60,55,56,64)          0.5705         estimate D2E/DX2                !
 ! D396  D(53,55,60,57)         -1.8612         estimate D2E/DX2                !
 ! D397  D(53,55,60,66)       -144.179          estimate D2E/DX2                !
 ! D398  D(56,55,60,57)        140.1989         estimate D2E/DX2                !
 ! D399  D(56,55,60,66)         -2.1189         estimate D2E/DX2                !
 ! D400  D(54,56,64,63)          1.4445         estimate D2E/DX2                !
 ! D401  D(54,56,64,66)        144.6894         estimate D2E/DX2                !
 ! D402  D(55,56,64,63)       -142.0224         estimate D2E/DX2                !
 ! D403  D(55,56,64,66)          1.2225         estimate D2E/DX2                !
 ! D404  D(39,57,58,42)          1.2917         estimate D2E/DX2                !
 ! D405  D(39,57,58,59)       -142.1236         estimate D2E/DX2                !
 ! D406  D(60,57,58,42)        142.0311         estimate D2E/DX2                !
 ! D407  D(60,57,58,59)         -1.3843         estimate D2E/DX2                !
 ! D408  D(39,57,60,55)         -3.0294         estimate D2E/DX2                !
 ! D409  D(39,57,60,66)        134.3063         estimate D2E/DX2                !
 ! D410  D(58,57,60,55)       -139.2655         estimate D2E/DX2                !
 ! D411  D(58,57,60,66)         -1.9299         estimate D2E/DX2                !
 ! D412  D(42,58,59,43)          1.4297         estimate D2E/DX2                !
 ! D413  D(42,58,59,65)       -135.1192         estimate D2E/DX2                !
 ! D414  D(57,58,59,43)        140.5462         estimate D2E/DX2                !
 ! D415  D(57,58,59,65)          3.9972         estimate D2E/DX2                !
 ! D416  D(43,59,65,61)         -1.677          estimate D2E/DX2                !
 ! D417  D(43,59,65,66)       -144.0431         estimate D2E/DX2                !
 ! D418  D(58,59,65,61)        139.0508         estimate D2E/DX2                !
 ! D419  D(58,59,65,66)         -3.3153         estimate D2E/DX2                !
 ! D420  D(55,60,66,64)          2.8498         estimate D2E/DX2                !
 ! D421  D(55,60,66,65)        145.4918         estimate D2E/DX2                !
 ! D422  D(57,60,66,64)       -140.0203         estimate D2E/DX2                !
 ! D423  D(57,60,66,65)          2.6216         estimate D2E/DX2                !
 ! D424  D(46,61,62,48)         -0.0401         estimate D2E/DX2                !
 ! D425  D(46,61,62,63)       -138.8886         estimate D2E/DX2                !
 ! D426  D(65,61,62,48)        136.3081         estimate D2E/DX2                !
 ! D427  D(65,61,62,63)         -2.5404         estimate D2E/DX2                !
 ! D428  D(46,61,65,59)          1.9862         estimate D2E/DX2                !
 ! D429  D(46,61,65,66)        144.3345         estimate D2E/DX2                !
 ! D430  D(62,61,65,59)       -139.5701         estimate D2E/DX2                !
 ! D431  D(62,61,65,66)          2.7783         estimate D2E/DX2                !
[...]
 Alpha virt. eigenvalues --    1.33618   1.33860   1.34295   1.34518   1.34902
 Alpha virt. eigenvalues --    1.35261   1.35851   1.35905   1.36378   1.36566
 Alpha virt. eigenvalues --    1.37487   1.37725   1.37946   1.38295   1.38538
 Alpha virt. eigenvalues --    1.38767   1.38993   1.39234   1.39494   1.39959
 Alpha virt. eigenvalues --    1.40199   1.40518   1.40762   1.41197   1.41512
 Alpha virt. eigenvalues --    1.41554   1.41758   1.41952   1.42154   1.42355
 Alpha virt. eigenvalues --    1.42461   1.42634   1.43335   1.43489   1.43734
 Alpha virt. eigenvalues --    1.43814   1.44021   1.44170   1.44546   1.44793
 Alpha virt. eigenvalues --    1.45200   1.45303   1.45476   1.45869   1.46253
 Alpha virt. eigenvalues --    1.46400   1.46699   1.46989   1.47313   1.47458
 Alpha virt. eigenvalues --    1.47596   1.47901   1.48307   1.48606   1.48779
 Alpha virt. eigenvalues --    1.49160   1.49248   1.49343   1.49859   1.50145
 Alpha virt. eigenvalues --    1.50572   1.50970   1.51058   1.51477   1.51618
 Alpha virt. eigenvalues --    1.51917   1.52186   1.52679   1.53033   1.53118
 Alpha virt. eigenvalues --    1.53555   1.53833   1.54000   1.54125   1.54485
 Alpha virt. eigenvalues --    1.55034   1.55275   1.55616   1.55855   1.56488
 Alpha virt. eigenvalues --    1.56661   1.57196   1.57427   1.58017   1.58426
 Alpha virt. eigenvalues --    1.58540   1.59272   1.59446   1.59673   1.60401
 Alpha virt. eigenvalues --    1.60601   1.60822   1.61441   1.61988   1.62485
 Alpha virt. eigenvalues --    1.62541   1.62944   1.63364   1.63478   1.63909
 Alpha virt. eigenvalues --    1.64554   1.64911   1.65118   1.65496   1.66021
 Alpha virt. eigenvalues --    1.66455   1.66570   1.66989   1.67198   1.67872
 Alpha virt. eigenvalues --    1.68409   1.68523   1.68991   1.69288   1.69623
 Alpha virt. eigenvalues --    1.70327   1.70764   1.70879   1.71002   1.71448
 Alpha virt. eigenvalues --    1.71765   1.72590   1.72811   1.73190   1.73265
 Alpha virt. eigenvalues --    1.73626   1.73866   1.74501   1.74643   1.74977
 Alpha virt. eigenvalues --    1.75499   1.75658   1.76049   1.76260   1.76730
 Alpha virt. eigenvalues --    1.77227   1.77432   1.78205   1.78601   1.79170
 Alpha virt. eigenvalues --    1.79728   1.80097   1.80554   1.80749   1.81138
 Alpha virt. eigenvalues --    1.81818   1.82146   1.82320   1.83102   1.83981
 Alpha virt. eigenvalues --    1.84500   1.85000   1.85602   1.86273   1.86637
 Alpha virt. eigenvalues --    1.87201   1.87620   1.88118   1.88369   1.89224
 Alpha virt. eigenvalues --    1.89396   1.90046   1.90599   1.91263   1.91340
 Alpha virt. eigenvalues --    1.92013   1.92434   1.92940   1.93140   1.93316
 Alpha virt. eigenvalues --    1.93530   1.94629   1.94957   1.95390   1.96008
 Alpha virt. eigenvalues --    1.96960   1.97124   1.97245   1.98290   1.99147
 Alpha virt. eigenvalues --    1.99715   1.99901   2.00219   2.00565   2.00882
 Alpha virt. eigenvalues --    2.01081   2.01627   2.01726   2.01956   2.02408
 Alpha virt. eigenvalues --    2.02829   2.03209   2.03512   2.04148   2.05069
 Alpha virt. eigenvalues --    2.05727   2.06004   2.06230   2.06417   2.06726
 Alpha virt. eigenvalues --    2.07180   2.07605   2.08147   2.08703   2.09280
 Alpha virt. eigenvalues --    2.09600   2.10032   2.10107   2.10649   2.11206
 Alpha virt. eigenvalues --    2.11808   2.12131   2.12587   2.13319   2.13546
 Alpha virt. eigenvalues --    2.14043   2.14314   2.14532   2.14998   2.15635
 Alpha virt. eigenvalues --    2.16053   2.16855   2.17026   2.17473   2.17860
 Alpha virt. eigenvalues --    2.18082   2.18460   2.18990   2.19328   2.20030
 Alpha virt. eigenvalues --    2.20501   2.21080   2.21201   2.21826   2.22112
 Alpha virt. eigenvalues --    2.22677   2.22741   2.23061   2.23506   2.24029
 Alpha virt. eigenvalues --    2.24598   2.25090   2.25611   2.25845   2.26249
 Alpha virt. eigenvalues --    2.26639   2.26895   2.27698   2.27971   2.28187
 Alpha virt. eigenvalues --    2.28615   2.29175   2.30165   2.30646   2.31051
 Alpha virt. eigenvalues --    2.31148   2.31951   2.32133   2.32572   2.33037
 Alpha virt. eigenvalues --    2.33277   2.33892   2.34518   2.34712   2.34980
 Alpha virt. eigenvalues --    2.35542   2.35757   2.36208   2.37137   2.37848
 Alpha virt. eigenvalues --    2.38215   2.38492   2.38977   2.39204   2.39995
 Alpha virt. eigenvalues --    2.40299   2.40696   2.41042   2.41290   2.41794
 Alpha virt. eigenvalues --    2.41813   2.42435   2.42508   2.42908   2.43513
 Alpha virt. eigenvalues --    2.43729   2.44420   2.44595   2.45396   2.45591
 Alpha virt. eigenvalues --    2.46311   2.46662   2.47519   2.47872   2.47983
 Alpha virt. eigenvalues --    2.48504   2.49151   2.49199   2.49770   2.50142
 Alpha virt. eigenvalues --    2.51079   2.51901   2.52434   2.52994   2.53312
 Alpha virt. eigenvalues --    2.53730   2.54171   2.54314   2.55165   2.55355
 Alpha virt. eigenvalues --    2.56146   2.56313   2.56943   2.57146   2.57546
 Alpha virt. eigenvalues --    2.57996   2.58332   2.58602   2.59256   2.60222
 Alpha virt. eigenvalues --    2.60611   2.60958   2.61574   2.62107   2.62733
 Alpha virt. eigenvalues --    2.63699   2.64084   2.64363   2.64640   2.65265
 Alpha virt. eigenvalues --    2.66046   2.66594   2.67163   2.68167   2.68677
 Alpha virt. eigenvalues --    2.69187   2.70166   2.70645   2.71836   2.72844
 Alpha virt. eigenvalues --    2.73773   2.74708   2.75404   2.75610   2.77689
 Alpha virt. eigenvalues --    2.77774   2.78547   2.79355   2.79560   2.80586
 Alpha virt. eigenvalues --    2.81339   2.81389   2.82329   2.82682   2.83695
 Alpha virt. eigenvalues --    2.84441   2.84905   2.85980   2.86994   2.87378
 Alpha virt. eigenvalues --    2.88578   2.89478   2.90293   2.90829   2.91410
 Alpha virt. eigenvalues --    2.92460   2.92914   2.93307   2.93584   2.94839
 Alpha virt. eigenvalues --    2.94964   2.95359   2.95443   2.96122   2.96680
 Alpha virt. eigenvalues --    2.96977   2.97192   2.97877   2.97966   2.98640
 Alpha virt. eigenvalues --    2.99156   2.99530   2.99868   3.00193   3.00653
 Alpha virt. eigenvalues --    3.01096   3.01287   3.01745   3.02015   3.02661
 Alpha virt. eigenvalues --    3.03154   3.03218   3.03524   3.04520   3.04894
 Alpha virt. eigenvalues --    3.04988   3.05090   3.05408   3.05533   3.06218
 Alpha virt. eigenvalues --    3.06479   3.07061   3.07484   3.07934   3.08200
 Alpha virt. eigenvalues --    3.08633   3.08775   3.09237   3.09785   3.10065
 Alpha virt. eigenvalues --    3.10175   3.10451   3.11189   3.11475   3.11697
 Alpha virt. eigenvalues --    3.11902   3.12087   3.12376   3.12891   3.13146
 Alpha virt. eigenvalues --    3.13640   3.13895   3.13944   3.14902   3.15079
 Alpha virt. eigenvalues --    3.15963   3.16605   3.16755   3.16977   3.17488
 Alpha virt. eigenvalues --    3.17889   3.18249   3.18570   3.19102   3.19610
 Alpha virt. eigenvalues --    3.20538   3.21000   3.21752   3.22763   3.24188
 Alpha virt. eigenvalues --    3.24428   3.26059   3.27109   3.28626   3.30628
 Alpha virt. eigenvalues --    3.32559   3.34377   3.36068   3.40393   3.41207
 Alpha virt. eigenvalues --    3.41740   3.43021   3.43444   3.44581   3.45228
 Alpha virt. eigenvalues --    3.45709   3.47254   3.47786   3.49514   3.50589
 Alpha virt. eigenvalues --    3.50777   3.51519   3.51995   3.52965   3.55284
 Alpha virt. eigenvalues --    3.55940   3.56636   3.57711   3.58954   3.59886
 Alpha virt. eigenvalues --    3.60771   3.61580   3.62141   3.62465   3.64657
 Alpha virt. eigenvalues --    3.65371   3.66747   3.67347   3.68476   3.68755
 Alpha virt. eigenvalues --    3.69696   3.70742   3.71674   3.72179   3.73084
 Alpha virt. eigenvalues --    3.74711   3.75115   3.76220   3.78318   3.80010
 Alpha virt. eigenvalues --    3.80756   3.82081   3.82528   3.83367   3.83686
 Alpha virt. eigenvalues --    3.85264   3.85911   3.86892   3.87050   3.87539
 Alpha virt. eigenvalues --    3.88029   3.88850   3.89429   3.89573   3.90122
 Alpha virt. eigenvalues --    3.91765   3.92852   3.95636   4.02468   4.06437
 Alpha virt. eigenvalues --    4.17861   4.21014   4.21979   4.23562   4.25463
 Alpha virt. eigenvalues --    4.27751   4.31346   4.33781   4.35525   4.36685
 Alpha virt. eigenvalues --    4.37410   4.38368   4.43762   4.44626   4.48356
 Alpha virt. eigenvalues --    4.50585   4.52161   4.56016   4.58362   4.61042
 Alpha virt. eigenvalues --    4.63598   4.65727   4.69287   4.73640   4.79002
 Alpha virt. eigenvalues --    4.79162   4.81991   4.86049   4.88166   4.93988
 Alpha virt. eigenvalues --    4.96167   4.98958   5.02091   5.04242   9.52735
 Alpha virt. eigenvalues --    9.55146   9.57992   9.61548   9.64166   9.66567
 Alpha virt. eigenvalues --    9.69672   9.71576  23.00260  23.19037  23.21848
 Alpha virt. eigenvalues --   23.24964  23.41874  23.43603  23.46811  23.50340
 Alpha virt. eigenvalues --   23.52843  23.62518  23.64441  23.65086  23.66460
 Alpha virt. eigenvalues --   23.68241  23.68786  23.69417  23.72129  23.73567
 Alpha virt. eigenvalues --   23.74769  23.76113  23.77399  23.78345  23.79707
 Alpha virt. eigenvalues --   23.81060  23.82790  23.84422  23.85322  23.87056
 Alpha virt. eigenvalues --   23.88486  23.90508  23.91465  23.92073  23.92713
 Alpha virt. eigenvalues --   23.93395  23.94493  23.95389  23.95915  23.96181
 Alpha virt. eigenvalues --   23.96545  23.97827  23.98502  23.98941  23.99085
 Alpha virt. eigenvalues --   24.00060  24.00450  24.01219  24.01906  24.02951
 Alpha virt. eigenvalues --   24.04739  24.04896  24.06418  24.06862  24.07493
 Alpha virt. eigenvalues --   24.07786  24.07852  24.08726  24.08988  24.09501
 Alpha virt. eigenvalues --   24.09946  24.10868  24.11099  24.12581  24.13590
 Alpha virt. eigenvalues --   24.14087  24.14957  24.17405  25.53197  25.54526
 Alpha virt. eigenvalues --   25.59136  25.66213  25.68396  25.69983  25.72464
 Alpha virt. eigenvalues --   25.74077  25.79631  25.82094  25.84548  25.85547
 Alpha virt. eigenvalues --   25.88209  25.90670  25.96739  26.04009  26.15979
 Alpha virt. eigenvalues --   26.20776  26.26647  26.33779  26.38710  26.45067
 Alpha virt. eigenvalues --   26.58440  26.67996 215.47708 215.50376 215.53730
 Alpha virt. eigenvalues --  215.57795 215.60731 215.63521 215.66861 215.69108
          Condensed to atoms (all electrons):
 Mulliken charges:
               1
     1  C   -0.264559
     2  C   -0.271303
     3  C   -0.459929
     4  C    0.115962
     5  C    0.243744
     6  C    0.060783
     7  C   -0.519741
     8  C    0.189158
     9  C    0.189946
    10  C    0.053362
    11  C    0.075021
    12  C    0.184621
    13  C    0.076281
    14  C    0.225478
    15  C    0.160383
    16  C   -0.669070
    17  C    0.019739
    18  C    0.035135
    19  C    0.018081
    20  C    0.166683
    21  C    0.046973
    22  C    0.187555
    23  C   -0.637981
    24  C    0.033356
    25  C   -0.007661
    26  C   -0.000399
    27  C    0.085286
    28  C   -0.003410
    29  C    0.156064
    30  C    0.130217
    31  C   -0.667458
    32  C    0.171103
    33  C    0.018313
    34  C    0.177932
    35  C    0.004267
    36  C   -0.008112
    37  C   -0.005051
    38  C   -0.023927
    39  C   -0.000978
    40  C    0.131523
    41  C    0.046156
    42  C    0.027894
    43  C   -0.006058
    44  C   -0.003879
    45  C    0.023844
    46  C    0.010540
    47  C   -0.655160
    48  C    0.142706
    49  C    0.175366
    50  C    0.184915
    51  C    0.040873
    52  C    0.002169
    53  C    0.002603
    54  C    0.029922
    55  C    0.002449
    56  C    0.000144
    57  C    0.003481
    58  C    0.000500
    59  C    0.008567
    60  C    0.005158
    61  C   -0.002870
    62  C    0.037963
    63  C    0.031122
    64  C    0.001197
    65  C    0.001828
    66  C    0.001245
    67  Cl   0.075723
    68  Cl   0.071171
    69  Cl   0.070431
    70  Cl   0.055498
    71  Cl   0.087032
    72  Cl   0.035713
    73  Cl   0.046040
    74  Cl   0.028329
 Sum of Mulliken charges =  -0.00000
 Mulliken charges with hydrogens summed into heavy atoms:
               1
     1  C   -0.264559
     2  C   -0.271303
     3  C   -0.459929
     4  C    0.115962
     5  C    0.243744
     6  C    0.060783
     7  C   -0.519741
     8  C    0.189158
     9  C    0.189946
    10  C    0.053362
    11  C    0.075021
    12  C    0.184621
    13  C    0.076281
    14  C    0.225478
    15  C    0.160383
    16  C   -0.669070
    17  C    0.019739
    18  C    0.035135
    19  C    0.018081
    20  C    0.166683
    21  C    0.046973
    22  C    0.187555
    23  C   -0.637981
    24  C    0.033356
    25  C   -0.007661
    26  C   -0.000399
    27  C    0.085286
    28  C   -0.003410
    29  C    0.156064
    30  C    0.130217
    31  C   -0.667458
    32  C    0.171103
    33  C    0.018313
    34  C    0.177932
    35  C    0.004267
    36  C   -0.008112
    37  C   -0.005051
    38  C   -0.023927
    39  C   -0.000978
    40  C    0.131523
    41  C    0.046156
    42  C    0.027894
    43  C   -0.006058
    44  C   -0.003879
    45  C    0.023844
    46  C    0.010540
    47  C   -0.655160
    48  C    0.142706
    49  C    0.175366
    50  C    0.184915
    51  C    0.040873
    52  C    0.002169
    53  C    0.002603
    54  C    0.029922
    55  C    0.002449
    56  C    0.000144
    57  C    0.003481
    58  C    0.000500
    59  C    0.008567
    60  C    0.005158
    61  C   -0.002870
    62  C    0.037963
    63  C    0.031122
    64  C    0.001197
    65  C    0.001828
    66  C    0.001245
    67  Cl   0.075723
    68  Cl   0.071171
    69  Cl   0.070431
    70  Cl   0.055498
    71  Cl   0.087032
    72  Cl   0.035713
    73  Cl   0.046040
    74  Cl   0.028329
 Electronic spatial extent (au):  <R**2>=          36578.4096
 Charge=             -0.0000 electrons
 Dipole moment (field-independent basis, Debye):
    X=              2.9389    Y=             -2.4539    Z=             -1.3164  Tot=              4.0487
 Quadrupole moment (field-independent basis, Debye-Ang):
   XX=           -485.2902   YY=           -495.3122   ZZ=           -470.4623
   XY=             -8.8012   XZ=             -3.4179   YZ=             -4.1220
 Traceless Quadrupole moment (field-independent basis, Debye-Ang):
   XX=             -1.6020   YY=            -11.6240   ZZ=             13.2259
   XY=             -8.8012   XZ=             -3.4179   YZ=             -4.1220
 Octapole moment (field-independent basis, Debye-Ang**2):
  XXX=            -61.3695  YYY=             55.4795  ZZZ=              7.7405  XYY=            -30.6934
  XXY=              9.4604  XXZ=            -11.1995  XZZ=            -56.8715  YZZ=              9.4446
  YYZ=             17.2104  XYZ=             -9.7121
 Hexadecapole moment (field-independent basis, Debye-Ang**3):
 XXXX=         -22711.2899 YYYY=         -19296.2617 ZZZZ=         -11281.5595 XXXY=             80.8607
 XXXZ=              2.4586 YYYX=            -21.3170 YYYZ=             70.1788 ZZZX=            -24.2402
 ZZZY=             25.9826 XXYY=          -7025.6168 XXZZ=          -5653.5887 YYZZ=          -5065.7778
 XXYZ=            -15.8850 YYXZ=            -30.4221 ZZXY=             13.2133
 N-N= 1.527165871030D+04 E-N=-4.511980730709D+04  KE= 6.178389985279D+03
 No NMR shielding tensors so no spin-rotation constants.
 Leave Link  601 at Sat Jul 16 11:51:29 2022, MaxMem=  1342177280 cpu:              61.6 elap:               1.5
 (Enter /home/mkliu/g16/l9999.exe)
 1\1\GINC-NODE04\FOpt\RB3LYP\6-311G(d,p)\C66Cl8\MKLIU\16-Jul-2022\0\\#P
  opt b3lyp/6-311G(d, p) empiricaldispersion=GD3\\force\\0,1\C,-1.35163
 8136,1.8814178435,-3.9914774766\C,0.1834798941,2.2442224187,-3.9917270
 28\C,0.9682512635,0.8700613757,-4.3300182754\C,-1.3066790176,0.4003693
 598,-3.8776694295\C,-0.0888125191,-0.1755459596,-4.176898967\C,-2.1753
 541014,-0.1298124743,-2.9307820829\C,-2.2338700947,2.2967083715,-2.702
 5151066\C,-2.7274997679,0.9338437052,-2.152828841\C,-1.478960951,2.962
 1965899,-1.5519677531\C,0.6936346326,2.5630907102,-2.626380825\C,-0.04
 61051612,3.1705281503,-1.6062766474\C,1.9026385097,0.6713104654,-3.136
 4963397\C,1.8437408085,1.8149352786,-2.304412148\C,2.2511000097,-0.544
 3122069,-2.5827621685\C,0.197552335,-1.4162767842,-3.6466309696\C,1.60
 76368193,-1.8038283957,-3.1907219211\C,-1.9462401719,-1.4175559524,-2.
 3964537032\C,-0.7665426051,-2.080731393,-2.865456864\C,-2.4741869043,-
 1.7195249678,-1.0852799542\C,-3.1272719532,0.7147411448,-0.865033463\C
 ,-3.0854214381,-0.6397127946,-0.3069457633\C,-2.0863963297,2.923971641
 5,-0.3195393088\C,-3.2173754689,1.9415031225,0.038841983\C,-1.38019333
 7,3.2565284552,0.88525624\C,0.6673341455,3.4040143283,-0.3957029551\C,
 -0.0247618986,3.5515827002,0.8575144721\C,2.4141724159,1.8157629705,-1
 .0074335275\C,1.9261730803,2.8030995467,-0.1285768817\C,2.8521582953,-
 0.5751297212,-1.264477298\C,3.0001891902,0.5948180653,-0.518383982\C,3
 .1468414149,-1.9403238499,-0.6205080886\C,1.3063570037,-2.816990595,-2
 .1084054263\C,-0.1055704904,-3.0481667489,-2.0350127801\C,2.0516691859
 ,-2.9369021225,-0.9746338745\C,-1.9366350147,-2.8428425768,-0.40643190
 02\C,-0.7110259351,-3.4774517957,-0.8731338123\C,-1.9372025769,-2.9199
 447872,1.0149421796\C,-3.1573527538,-0.7977116565,1.0942860481\C,-2.54
 82186303,-1.9053228666,1.7534149185\C,-2.9099002066,1.6284600577,1.486
 1233324\C,-1.9234486007,2.5182736074,2.0041189804\C,-3.0222030001,0.36
 16752677,1.9909212667\C,-1.1046754486,2.1380333981,3.0719449619\C,0.83
 86882814,3.1051244927,1.9246653425\C,2.0581445871,2.6385366052,1.30979
 42584\C,0.314712205,2.4364498756,3.029065329\C,3.497432555,0.581727484
 9,0.9279692213\C,2.7274721829,1.5560235987,1.817962918\C,3.0305246507,
 -1.8876435892,0.8962174642\C,3.2147373876,-0.7408787657,1.608518722\C,
 1.4597820744,-3.4682722747,0.2175244237\C,0.0973187464,-3.7883975295,0
 .268080557\C,-0.6729081401,-3.4819241953,1.4533024256\C,2.0927782762,-
 2.8674390721,1.3629883203\C,-0.0466563841,-2.9721985309,2.5835994244\C
 ,1.3703111681,-2.6680937025,2.5432800762\C,-1.936774682,-1.4452156087,
 2.9891151814\C,-2.2283817468,-0.0375850982,3.127083597\C,-1.2701325608
 ,0.8315839241,3.6585544471\C,-0.6985694844,-1.9480342805,3.3794718174\
 C,1.0230605596,1.310896257,3.5768854432\C,2.2122419208,0.8835527449,2.
 9679350422\C,2.501703454,-0.5248746628,2.8343476329\C,1.5902400673,-1.
 4716392715,3.3094634898\C,0.0434204047,0.321652331,3.9972442838\C,0.32
 3303345,-1.0345784619,3.8616736541\Cl,-2.1295024238,2.2747968411,-5.58
 16104421\Cl,0.6219923861,3.6569464469,-5.0293883376\Cl,1.8434807618,0.
 8187327531,-5.9037509099\Cl,2.6381253991,-2.5292643941,-4.5237373284\C
 l,-3.6185804882,3.3961922882,-3.141830286\Cl,-4.916910371,2.6846316724
 ,-0.0259477374\Cl,4.8187731825,-2.504736187,-1.1592736422\Cl,5.3102558
 522,0.9871080286,0.9304093045\\Version=ES64L-G16RevA.03\State=1-A\HF=-
 6197.2415463\RMSD=9.981e-09\RMSF=5.238e-05\Dipole=-0.5761597,-0.595022
 7,1.3605921\Quadrupole=-9.7789268,7.0874385,2.6914883,8.211712,0.56409
 86,0.8731507\PG=C01 [X(C66Cl8)]\\@


 LORD, MAN... WERE YE BUT WHYLES WHERE I AM, 
 THE GENTILES YE WAD NE'ER ENVY 'EM.        
 IT'S TRUE, THEY NEEDNA STARVE OR SWEAT,     
 THRO' WINTER'S CAULD OR SIMMER'S HEAT...  
 THEY'VE NAE SAIR WARK TO CRAZE THEIR BANES, 
 AND FILL AULD AGE WITH GRIPS AN' GRANES...  
                                             
 BUT HUMAN BODIES ARE SIC FOOLS              
 FOR A' THEIR COLLEGES AND SCHOOLS,           
 THAT WHEN NAE REAL ILLS PERPLEX THEM,       
 THEY MAK ENOW THEMSELVES TO VEX THEM,       
 AN' AYE THE LESS THEY HAE TO STURT THEM,    
 IN LIKE PROPORTION LESS WILL HURT THEM....  
                                             
                (ROBERT BURNS 'THE TWA DOGS')
 Job cpu time:       2 days 15 hours 37 minutes 35.8 seconds.
 Elapsed time:       0 days  1 hours 19 minutes 43.2 seconds.
 File lengths (MBytes):  RWF=   1193 Int=      0 D2E=      0 Chk=    146 Scr=      1
 Normal termination of Gaussian 16 at Sat Jul 16 11:51:31 2022.
