 Entering Gaussian System, Link 0=g16
 Input=dqwuc3ojmdon4_addon_8.gjf
 Output=dqwuc3ojmdon4_addon_8.log
 Initial command:
 /home/mkliu/g16/l1.exe "/data/scratch/Gau-25108.inp" -scrdir="/data/scratch/"
 Entering Link 1 = /home/mkliu/g16/l1.exe PID=     25109.
  
 Copyright (c) 1988,1990,1992,1993,1995,1998,2003,2009,2016,
            Gaussian, Inc.  All Rights Reserved.
  
 This is part of the Gaussian(R) 16 program.  It is based on
 the Gaussian(R) 09 system (copyright 2009, Gaussian, Inc.),
 the Gaussian(R) 03 system (copyright 2003, Gaussian, Inc.),
 the Gaussian(R) 98 system (copyright 1998, Gaussian, Inc.),
 the Gaussian(R) 94 system (copyright 1995, Gaussian, Inc.),
 the Gaussian 92(TM) system (copyright 1992, Gaussian, Inc.),
 the Gaussian 90(TM) system (copyright 1990, Gaussian, Inc.),
 the Gaussian 88(TM) system (copyright 1988, Gaussian, Inc.),
 the Gaussian 86(TM) system (copyright 1986, Carnegie Mellon
 University), and the Gaussian 82(TM) system (copyright 1983,
 Carnegie Mellon University). Gaussian is a federally registered
 trademark of Gaussian, Inc.
  
 This software contains proprietary and confidential information,
 including trade secrets, belonging to Gaussian, Inc.
  
 This software is provided under written license and may be
 used, copied, transmitted, or stored only in accord with that
 written license.
  
 The following legend is applicable only to US Government
 contracts under FAR:
  
                    RESTRICTED RIGHTS LEGEND
  
 Use, reproduction and disclosure by the US Government is
 subject to restrictions as set forth in subparagraphs (a)
 and (c) of the Commercial Computer Software - Restricted
 Rights clause in FAR 52.227-19.
  
 Gaussian, Inc.
 340 Quinnipiac St., Bldg. 40, Wallingford CT 06492
  
  
 ---------------------------------------------------------------
 Warning -- This program may not be used in any manner that
 competes with the business of Gaussian, Inc. or will provide
 assistance to any competitor of Gaussian, Inc.  The licensee
 of this program is prohibited from giving any competitor of
 Gaussian, Inc. access to this program.  By using this program,
 the user acknowledges that Gaussian, Inc. is engaged in the
 business of creating and licensing software in the field of
 computational chemistry and represents and warrants to the
 licensee that it is not a competitor of Gaussian, Inc. and that
 it will not use this program in any manner prohibited above.
 ---------------------------------------------------------------
  

 Cite this work as:
 Gaussian 16, Revision A.03,
 M. J. Frisch, G. W. Trucks, H. B. Schlegel, G. E. Scuseria, 
 M. A. Robb, J. R. Cheeseman, G. Scalmani, V. Barone, 
 G. A. Petersson, H. Nakatsuji, X. Li, M. Caricato, A. V. Marenich, 
 J. Bloino, B. G. Janesko, R. Gomperts, B. Mennucci, H. P. Hratchian, 
 J. V. Ortiz, A. F. Izmaylov, J. L. Sonnenberg, D. Williams-Young, 
 F. Ding, F. Lipparini, F. Egidi, J. Goings, B. Peng, A. Petrone, 
 T. Henderson, D. Ranasinghe, V. G. Zakrzewski, J. Gao, N. Rega, 
 G. Zheng, W. Liang, M. Hada, M. Ehara, K. Toyota, R. Fukuda, 
 J. Hasegawa, M. Ishida, T. Nakajima, Y. Honda, O. Kitao, H. Nakai, 
 T. Vreven, K. Throssell, J. A. Montgomery, Jr., J. E. Peralta, 
 F. Ogliaro, M. J. Bearpark, J. J. Heyd, E. N. Brothers, K. N. Kudin, 
 V. N. Staroverov, T. A. Keith, R. Kobayashi, J. Normand, 
 K. Raghavachari, A. P. Rendell, J. C. Burant, S. S. Iyengar, 
 J. Tomasi, M. Cossi, J. M. Millam, M. Klene, C. Adamo, R. Cammi, 
 J. W. Ochterski, R. L. Martin, K. Morokuma, O. Farkas, 
 J. B. Foresman, and D. J. Fox, Gaussian, Inc., Wallingford CT, 2016.
 
 ******************************************
 Gaussian 16:  ES64L-G16RevA.03 25-Dec-2016
                16-Jul-2022 
 ******************************************
 %mem=10GB
 %chk=dqwuc3ojmdon4_addon_8.chk
 %nprocshared=48
 Will use up to   48 processors via shared memory.
 -------------------------------------------------
 #P opt b3lyp/6-311G(d, p) empiricaldispersion=GD3
 -------------------------------------------------
 1/18=20,19=15,26=3,38=1/1,3;
 2/9=110,12=2,17=6,18=5,40=1/2;
 3/5=4,6=6,7=101,11=2,25=1,30=1,71=1,74=-5,124=31/1,2,3;
 4//1;
 5/5=2,38=5/2;
 6/7=2,8=2,9=2,10=2,28=1/1;
 7//1,2,3,16;
 1/18=20,19=15,26=3/3(2);
 2/9=110/2;
 99//99;
 2/9=110/2;
 3/5=4,6=6,7=101,11=2,25=1,30=1,71=1,74=-5,124=31/1,2,3;
 4/5=5,16=3,69=1/1;
 5/5=2,38=5/2;
 7//1,2,3,16;
 1/18=20,19=15,26=3/3(-5);
 2/9=110/2;
 6/7=2,8=2,9=2,10=2,19=2,28=1/1;
 99/9=1/99;
 Leave Link    1 at Sat Jul 16 01:35:27 2022, MaxMem=  1342177280 cpu:               2.0 elap:               0.0
 (Enter /home/mkliu/g16/l101.exe)
 -----
 force
 -----
 Symbolic Z-matrix:
 Charge =  0 Multiplicity = 1
 C                    -1.33347   1.89565  -3.9583 
 C                     0.19824   2.22759  -3.9828 
 C                     0.99602   0.91204  -4.29963 
 C                    -1.23714   0.43072  -3.82237 
 C                    -0.04287  -0.13239  -4.11039 
 C                    -2.0911   -0.09661  -2.85063 
 C                    -2.20174   2.29075  -2.72515 
 C                    -2.66239   0.95565  -2.11647 
 C                    -1.48609   2.91249  -1.55533 
 C                     0.67135   2.4924   -2.61071 
 C                    -0.06493   3.11013  -1.59603 
 C                     1.9194    0.67078  -3.1198 
 C                     1.82402   1.79659  -2.264 
 C                     2.27204  -0.54105  -2.5865 
 C                     0.23056  -1.38877  -3.57649 
 C                     1.62887  -1.79402  -3.15914 
 C                    -1.88948  -1.3605   -2.32282 
 C                    -0.7297   -2.03421  -2.81295 
 C                    -2.43594  -1.64495  -1.02913 
 C                    -3.06537   0.7217   -0.83198 
 C                    -3.00192  -0.61494  -0.29695 
 C                    -2.08948   2.85519  -0.32907 
 C                    -3.2344    1.93389   0.0487 
 C                    -1.37588   3.20546   0.86774 
 C                     0.63268   3.33509  -0.40551 
 C                    -0.03473   3.49996   0.83224 
 C                     2.42811   1.80077  -0.99643 
 C                     1.89938   2.74863  -0.12688 
 C                     2.92708  -0.60368  -1.2809 
 C                     3.057     0.60245  -0.51388 
 C                     2.95075  -1.81259  -0.57304 
 C                     1.31035  -2.80279  -2.09314 
 C                    -0.09768  -3.01919  -1.98786 
 C                     2.06422  -2.90649  -0.97245 
 C                    -2.08646  -2.99145  -0.42565 
 C                    -0.70811  -3.44685  -0.84298 
 C                    -1.92518  -2.88866   1.06198 
 C                    -3.38197  -0.84303   1.15363 
 C                    -2.52298  -1.90998   1.77809 
 C                    -2.91189   1.60903   1.47437 
 C                    -1.90249   2.48181   1.97707 
 C                    -3.00847   0.3543    1.98206 
 C                    -1.06095   2.10624   3.01168 
 C                     0.84514   3.08648   1.88936 
 C                     2.05579   2.61588   1.27847 
 C                     0.34439   2.4129    2.97801 
 C                     3.26982   0.53529   0.88049 
 C                     2.75393   1.5366    1.77715 
 C                     3.04646  -1.86283   0.84233 
 C                     3.2383   -0.70632   1.57602 
 C                     1.47563  -3.45695   0.21413 
 C                     0.10774  -3.72329   0.27919 
 C                    -0.64615  -3.39827   1.44783 
 C                     2.125    -2.86457   1.33396 
 C                     0.01444  -2.90216   2.553 
 C                     1.42269  -2.62141   2.50366 
 C                    -1.86657  -1.42211   2.95144 
 C                    -2.16278  -0.03552   3.07107 
 C                    -1.20171   0.81632   3.58684 
 C                    -0.62202  -1.89563   3.32992 
 C                     1.08546   1.31023   3.53383 
 C                     2.27928   0.89546   2.97001 
 C                     2.57955  -0.50423   2.84115 
 C                     1.66536  -1.43708   3.28099 
 C                     0.10969   0.3356    3.93934 
 C                     0.39723  -1.00893   3.81269 
 Cl                   -2.06527   2.37112  -5.52427 
 Cl                    0.53182   3.64267  -5.01622 
 Cl                    1.82602   0.80476  -5.85903 
 Cl                    2.65704  -2.42968  -4.49383 
 Cl                   -3.60137   3.32678  -3.13771 
 Cl                   -4.88896   2.6099   -0.14564 
 Cl                   -5.14865  -1.23464   1.21262 
 Cl                   -3.39682  -4.15673  -0.90137 
 
 ITRead=  0  0  0  0  0  0  0  0  0  0  0  0  0  0  0  0  0  0  0  0
 ITRead=  0  0  0  0  0  0  0  0  0  0  0  0  0  0  0  0  0  0  0  0
 ITRead=  0  0  0  0  0  0  0  0  0  0  0  0  0  0  0  0  0  0  0  0
 ITRead=  0  0  0  0  0  0  0  0  0  0  0  0  0  0
 MicOpt= -1 -1 -1 -1 -1 -1 -1 -1 -1 -1 -1 -1 -1 -1 -1 -1 -1 -1 -1 -1
 MicOpt= -1 -1 -1 -1 -1 -1 -1 -1 -1 -1 -1 -1 -1 -1 -1 -1 -1 -1 -1 -1
 MicOpt= -1 -1 -1 -1 -1 -1 -1 -1 -1 -1 -1 -1 -1 -1 -1 -1 -1 -1 -1 -1
 MicOpt= -1 -1 -1 -1 -1 -1 -1 -1 -1 -1 -1 -1 -1 -1
 NAtoms=     74 NQM=       74 NQMF=       0 NMMI=      0 NMMIF=      0
                NMic=       0 NMicF=      0.
                    Isotopes and Nuclear Properties:
 (Nuclear quadrupole moments (NQMom) in fm**2, nuclear magnetic moments (NMagM)
  in nuclear magnetons)

  Atom         1           2           3           4           5           6           7           8           9          10
 IAtWgt=          12          12          12          12          12          12          12          12          12          12
 AtmWgt=  12.0000000  12.0000000  12.0000000  12.0000000  12.0000000  12.0000000  12.0000000  12.0000000  12.0000000  12.0000000
 NucSpn=           0           0           0           0           0           0           0           0           0           0
 AtZEff=  -0.0000000  -0.0000000  -0.0000000  -0.0000000  -0.0000000  -0.0000000  -0.0000000  -0.0000000  -0.0000000  -0.0000000
 NQMom=    0.0000000   0.0000000   0.0000000   0.0000000   0.0000000   0.0000000   0.0000000   0.0000000   0.0000000   0.0000000
 NMagM=    0.0000000   0.0000000   0.0000000   0.0000000   0.0000000   0.0000000   0.0000000   0.0000000   0.0000000   0.0000000
 AtZNuc=   6.0000000   6.0000000   6.0000000   6.0000000   6.0000000   6.0000000   6.0000000   6.0000000   6.0000000   6.0000000

  Atom        11          12          13          14          15          16          17          18          19          20
 IAtWgt=          12          12          12          12          12          12          12          12          12          12
 AtmWgt=  12.0000000  12.0000000  12.0000000  12.0000000  12.0000000  12.0000000  12.0000000  12.0000000  12.0000000  12.0000000
 NucSpn=           0           0           0           0           0           0           0           0           0           0
 AtZEff=  -0.0000000  -0.0000000  -0.0000000  -0.0000000  -0.0000000  -0.0000000  -0.0000000  -0.0000000  -0.0000000  -0.0000000
 NQMom=    0.0000000   0.0000000   0.0000000   0.0000000   0.0000000   0.0000000   0.0000000   0.0000000   0.0000000   0.0000000
 NMagM=    0.0000000   0.0000000   0.0000000   0.0000000   0.0000000   0.0000000   0.0000000   0.0000000   0.0000000   0.0000000
 AtZNuc=   6.0000000   6.0000000   6.0000000   6.0000000   6.0000000   6.0000000   6.0000000   6.0000000   6.0000000   6.0000000

  Atom        21          22          23          24          25          26          27          28          29          30
 IAtWgt=          12          12          12          12          12          12          12          12          12          12
 AtmWgt=  12.0000000  12.0000000  12.0000000  12.0000000  12.0000000  12.0000000  12.0000000  12.0000000  12.0000000  12.0000000
 NucSpn=           0           0           0           0           0           0           0           0           0           0
 AtZEff=  -0.0000000  -0.0000000  -0.0000000  -0.0000000  -0.0000000  -0.0000000  -0.0000000  -0.0000000  -0.0000000  -0.0000000
 NQMom=    0.0000000   0.0000000   0.0000000   0.0000000   0.0000000   0.0000000   0.0000000   0.0000000   0.0000000   0.0000000
 NMagM=    0.0000000   0.0000000   0.0000000   0.0000000   0.0000000   0.0000000   0.0000000   0.0000000   0.0000000   0.0000000
 AtZNuc=   6.0000000   6.0000000   6.0000000   6.0000000   6.0000000   6.0000000   6.0000000   6.0000000   6.0000000   6.0000000

  Atom        31          32          33          34          35          36          37          38          39          40
 IAtWgt=          12          12          12          12          12          12          12          12          12          12
 AtmWgt=  12.0000000  12.0000000  12.0000000  12.0000000  12.0000000  12.0000000  12.0000000  12.0000000  12.0000000  12.0000000
 NucSpn=           0           0           0           0           0           0           0           0           0           0
 AtZEff=  -0.0000000  -0.0000000  -0.0000000  -0.0000000  -0.0000000  -0.0000000  -0.0000000  -0.0000000  -0.0000000  -0.0000000
 NQMom=    0.0000000   0.0000000   0.0000000   0.0000000   0.0000000   0.0000000   0.0000000   0.0000000   0.0000000   0.0000000
 NMagM=    0.0000000   0.0000000   0.0000000   0.0000000   0.0000000   0.0000000   0.0000000   0.0000000   0.0000000   0.0000000
 AtZNuc=   6.0000000   6.0000000   6.0000000   6.0000000   6.0000000   6.0000000   6.0000000   6.0000000   6.0000000   6.0000000

  Atom        41          42          43          44          45          46          47          48          49          50
 IAtWgt=          12          12          12          12          12          12          12          12          12          12
 AtmWgt=  12.0000000  12.0000000  12.0000000  12.0000000  12.0000000  12.0000000  12.0000000  12.0000000  12.0000000  12.0000000
 NucSpn=           0           0           0           0           0           0           0           0           0           0
 AtZEff=  -0.0000000  -0.0000000  -0.0000000  -0.0000000  -0.0000000  -0.0000000  -0.0000000  -0.0000000  -0.0000000  -0.0000000
 NQMom=    0.0000000   0.0000000   0.0000000   0.0000000   0.0000000   0.0000000   0.0000000   0.0000000   0.0000000   0.0000000
 NMagM=    0.0000000   0.0000000   0.0000000   0.0000000   0.0000000   0.0000000   0.0000000   0.0000000   0.0000000   0.0000000
 AtZNuc=   6.0000000   6.0000000   6.0000000   6.0000000   6.0000000   6.0000000   6.0000000   6.0000000   6.0000000   6.0000000

  Atom        51          52          53          54          55          56          57          58          59          60
 IAtWgt=          12          12          12          12          12          12          12          12          12          12
 AtmWgt=  12.0000000  12.0000000  12.0000000  12.0000000  12.0000000  12.0000000  12.0000000  12.0000000  12.0000000  12.0000000
 NucSpn=           0           0           0           0           0           0           0           0           0           0
 AtZEff=  -0.0000000  -0.0000000  -0.0000000  -0.0000000  -0.0000000  -0.0000000  -0.0000000  -0.0000000  -0.0000000  -0.0000000
 NQMom=    0.0000000   0.0000000   0.0000000   0.0000000   0.0000000   0.0000000   0.0000000   0.0000000   0.0000000   0.0000000
 NMagM=    0.0000000   0.0000000   0.0000000   0.0000000   0.0000000   0.0000000   0.0000000   0.0000000   0.0000000   0.0000000
 AtZNuc=   6.0000000   6.0000000   6.0000000   6.0000000   6.0000000   6.0000000   6.0000000   6.0000000   6.0000000   6.0000000

  Atom        61          62          63          64          65          66          67          68          69          70
 IAtWgt=          12          12          12          12          12          12          35          35          35          35
 AtmWgt=  12.0000000  12.0000000  12.0000000  12.0000000  12.0000000  12.0000000  34.9688527  34.9688527  34.9688527  34.9688527
 NucSpn=           0           0           0           0           0           0           3           3           3           3
 AtZEff=  -0.0000000  -0.0000000  -0.0000000  -0.0000000  -0.0000000  -0.0000000  -0.0000000  -0.0000000  -0.0000000  -0.0000000
 NQMom=    0.0000000   0.0000000   0.0000000   0.0000000   0.0000000   0.0000000  -8.1650000  -8.1650000  -8.1650000  -8.1650000
 NMagM=    0.0000000   0.0000000   0.0000000   0.0000000   0.0000000   0.0000000   0.8218740   0.8218740   0.8218740   0.8218740
 AtZNuc=   6.0000000   6.0000000   6.0000000   6.0000000   6.0000000   6.0000000  17.0000000  17.0000000  17.0000000  17.0000000

  Atom        71          72          73          74
 IAtWgt=          35          35          35          35
 AtmWgt=  34.9688527  34.9688527  34.9688527  34.9688527
 NucSpn=           3           3           3           3
 AtZEff=  -0.0000000  -0.0000000  -0.0000000  -0.0000000
 NQMom=   -8.1650000  -8.1650000  -8.1650000  -8.1650000
 NMagM=    0.8218740   0.8218740   0.8218740   0.8218740
 AtZNuc=  17.0000000  17.0000000  17.0000000  17.0000000
 Leave Link  101 at Sat Jul 16 01:35:27 2022, MaxMem=  1342177280 cpu:              19.0 elap:               0.4
 (Enter /home/mkliu/g16/l103.exe)

 GradGradGradGradGradGradGradGradGradGradGradGradGradGradGradGradGradGrad
 Berny optimization.
 Initialization pass.
                           ----------------------------
                           !    Initial Parameters    !
                           ! (Angstroms and Degrees)  !
 --------------------------                            --------------------------
 ! Name  Definition              Value          Derivative Info.                !
 --------------------------------------------------------------------------------
 ! R1    R(1,2)                  1.5675         estimate D2E/DX2                !
 ! R2    R(1,4)                  1.4744         estimate D2E/DX2                !
 ! R3    R(1,7)                  1.5591         estimate D2E/DX2                !
 ! R4    R(1,67)                 1.7927         estimate D2E/DX2                !
 ! R5    R(2,3)                  1.5708         estimate D2E/DX2                !
 ! R6    R(2,10)                 1.4753         estimate D2E/DX2                !
 ! R7    R(2,68)                 1.7837         estimate D2E/DX2                !
 ! R8    R(3,5)                  1.4852         estimate D2E/DX2                !
 ! R9    R(3,12)                 1.5175         estimate D2E/DX2                !
 ! R10   R(3,69)                 1.7698         estimate D2E/DX2                !
 ! R11   R(4,5)                  1.3514         estimate D2E/DX2                !
 ! R12   R(4,6)                  1.397          estimate D2E/DX2                !
 ! R13   R(5,15)                 1.3922         estimate D2E/DX2                !
 ! R14   R(6,8)                  1.4045         estimate D2E/DX2                !
 ! R15   R(6,17)                 1.3844         estimate D2E/DX2                !
 ! R16   R(7,8)                  1.5379         estimate D2E/DX2                !
 ! R17   R(7,9)                  1.5057         estimate D2E/DX2                !
 ! R18   R(7,71)                 1.7896         estimate D2E/DX2                !
 ! R19   R(8,20)                 1.3664         estimate D2E/DX2                !
 ! R20   R(9,11)                 1.4354         estimate D2E/DX2                !
 ! R21   R(9,22)                 1.3679         estimate D2E/DX2                !
 ! R22   R(10,11)                1.3976         estimate D2E/DX2                !
 ! R23   R(10,13)                1.3903         estimate D2E/DX2                !
 ! R24   R(11,25)                1.3981         estimate D2E/DX2                !
 ! R25   R(12,13)                1.4174         estimate D2E/DX2                !
 ! R26   R(12,14)                1.3701         estimate D2E/DX2                !
 ! R27   R(13,27)                1.4042         estimate D2E/DX2                !
 ! R28   R(14,16)                1.5204         estimate D2E/DX2                !
 ! R29   R(14,29)                1.462          estimate D2E/DX2                !
 ! R30   R(15,16)                1.5145         estimate D2E/DX2                !
 ! R31   R(15,18)                1.3862         estimate D2E/DX2                !
 ! R32   R(16,32)                1.5018         estimate D2E/DX2                !
 ! R33   R(16,70)                1.8007         estimate D2E/DX2                !
 ! R34   R(17,18)                1.428          estimate D2E/DX2                !
 ! R35   R(17,19)                1.4329         estimate D2E/DX2                !
 ! R36   R(18,33)                1.4319         estimate D2E/DX2                !
 ! R37   R(19,21)                1.3847         estimate D2E/DX2                !
 ! R38   R(19,35)                1.5164         estimate D2E/DX2                !
 ! R39   R(20,21)                1.4411         estimate D2E/DX2                !
 ! R40   R(20,23)                1.5078         estimate D2E/DX2                !
 ! R41   R(21,38)                1.5168         estimate D2E/DX2                !
 ! R42   R(22,23)                1.5174         estimate D2E/DX2                !
 ! R43   R(22,24)                1.4368         estimate D2E/DX2                !
 ! R44   R(23,40)                1.4974         estimate D2E/DX2                !
 ! R45   R(23,72)                1.7979         estimate D2E/DX2                !
 ! R46   R(24,26)                1.3736         estimate D2E/DX2                !
 ! R47   R(24,41)                1.4253         estimate D2E/DX2                !
 ! R48   R(25,26)                1.4159         estimate D2E/DX2                !
 ! R49   R(25,28)                1.4234         estimate D2E/DX2                !
 ! R50   R(26,44)                1.4362         estimate D2E/DX2                !
 ! R51   R(27,28)                1.3907         estimate D2E/DX2                !
 ! R52   R(27,30)                1.4368         estimate D2E/DX2                !
 ! R53   R(28,45)                1.4202         estimate D2E/DX2                !
 ! R54   R(29,30)                1.4353         estimate D2E/DX2                !
 ! R55   R(29,31)                1.4011         estimate D2E/DX2                !
 ! R56   R(30,47)                1.4121         estimate D2E/DX2                !
 ! R57   R(31,34)                1.4636         estimate D2E/DX2                !
 ! R58   R(31,49)                1.4195         estimate D2E/DX2                !
 ! R59   R(32,33)                1.4284         estimate D2E/DX2                !
 ! R60   R(32,34)                1.3546         estimate D2E/DX2                !
 ! R61   R(33,36)                1.3661         estimate D2E/DX2                !
 ! R62   R(34,51)                1.4344         estimate D2E/DX2                !
 ! R63   R(35,36)                1.5104         estimate D2E/DX2                !
 ! R64   R(35,37)                1.4999         estimate D2E/DX2                !
 ! R65   R(35,74)                1.8169         estimate D2E/DX2                !
 ! R66   R(36,52)                1.4147         estimate D2E/DX2                !
 ! R67   R(37,39)                1.352          estimate D2E/DX2                !
 ! R68   R(37,53)                1.4299         estimate D2E/DX2                !
 ! R69   R(38,39)                1.5054         estimate D2E/DX2                !
 ! R70   R(38,42)                1.5031         estimate D2E/DX2                !
 ! R71   R(38,73)                1.8105         estimate D2E/DX2                !
 ! R72   R(39,57)                1.4303         estimate D2E/DX2                !
 ! R73   R(40,41)                1.426          estimate D2E/DX2                !
 ! R74   R(40,42)                1.357          estimate D2E/DX2                !
 ! R75   R(41,43)                1.3855         estimate D2E/DX2                !
 ! R76   R(42,58)                1.4329         estimate D2E/DX2                !
 ! R77   R(43,46)                1.4388         estimate D2E/DX2                !
 ! R78   R(43,59)                1.4193         estimate D2E/DX2                !
 ! R79   R(44,45)                1.4354         estimate D2E/DX2                !
 ! R80   R(44,46)                1.3746         estimate D2E/DX2                !
 ! R81   R(45,48)                1.3787         estimate D2E/DX2                !
 ! R82   R(46,61)                1.4401         estimate D2E/DX2                !
 ! R83   R(47,48)                1.4397         estimate D2E/DX2                !
 ! R84   R(47,50)                1.4235         estimate D2E/DX2                !
 ! R85   R(48,62)                1.435          estimate D2E/DX2                !
 ! R86   R(49,50)                1.383          estimate D2E/DX2                !
 ! R87   R(49,54)                1.4472         estimate D2E/DX2                !
 ! R88   R(50,63)                1.4406         estimate D2E/DX2                !
 ! R89   R(51,52)                1.3951         estimate D2E/DX2                !
 ! R90   R(51,54)                1.4236         estimate D2E/DX2                !
 ! R91   R(52,53)                1.4282         estimate D2E/DX2                !
 ! R92   R(53,55)                1.3798         estimate D2E/DX2                !
 ! R93   R(54,56)                1.3858         estimate D2E/DX2                !
 ! R94   R(55,56)                1.4368         estimate D2E/DX2                !
 ! R95   R(55,60)                1.4219         estimate D2E/DX2                !
 ! R96   R(56,64)                1.4373         estimate D2E/DX2                !
 ! R97   R(57,58)                1.4229         estimate D2E/DX2                !
 ! R98   R(57,60)                1.3843         estimate D2E/DX2                !
 ! R99   R(58,59)                1.3839         estimate D2E/DX2                !
 ! R100  R(59,65)                1.4405         estimate D2E/DX2                !
 ! R101  R(60,66)                1.4346         estimate D2E/DX2                !
 ! R102  R(61,62)                1.3839         estimate D2E/DX2                !
 ! R103  R(61,65)                1.4375         estimate D2E/DX2                !
 ! R104  R(62,63)                1.4373         estimate D2E/DX2                !
 ! R105  R(63,64)                1.3782         estimate D2E/DX2                !
 ! R106  R(64,66)                1.4402         estimate D2E/DX2                !
 ! R107  R(65,66)                1.3808         estimate D2E/DX2                !
 ! A1    A(2,1,4)               98.5114         estimate D2E/DX2                !
 ! A2    A(2,1,7)              120.1928         estimate D2E/DX2                !
 ! A3    A(2,1,67)             109.2128         estimate D2E/DX2                !
 ! A4    A(4,1,7)              102.4309         estimate D2E/DX2                !
 ! A5    A(4,1,67)             111.7607         estimate D2E/DX2                !
 ! A6    A(7,1,67)             113.3512         estimate D2E/DX2                !
 ! A7    A(1,2,3)              108.789          estimate D2E/DX2                !
 ! A8    A(1,2,10)             109.6847         estimate D2E/DX2                !
 ! A9    A(1,2,68)             111.0883         estimate D2E/DX2                !
 ! A10   A(3,2,10)             100.0809         estimate D2E/DX2                !
 ! A11   A(3,2,68)             116.9084         estimate D2E/DX2                !
 ! A12   A(10,2,68)            109.6612         estimate D2E/DX2                !
 ! A13   A(2,3,5)              102.0042         estimate D2E/DX2                !
 ! A14   A(2,3,12)             106.5803         estimate D2E/DX2                !
 ! A15   A(2,3,69)             117.8183         estimate D2E/DX2                !
 ! A16   A(5,3,12)             102.4013         estimate D2E/DX2                !
 ! A17   A(5,3,69)             113.4339         estimate D2E/DX2                !
 ! A18   A(12,3,69)            112.9574         estimate D2E/DX2                !
 ! A19   A(1,4,5)              116.8786         estimate D2E/DX2                !
 ! A20   A(1,4,6)              113.5312         estimate D2E/DX2                !
 ! A21   A(5,4,6)              122.0838         estimate D2E/DX2                !
 ! A22   A(3,5,4)              110.6271         estimate D2E/DX2                !
 ! A23   A(3,5,15)             123.0985         estimate D2E/DX2                !
 ! A24   A(4,5,15)             117.8948         estimate D2E/DX2                !
 ! A25   A(4,6,8)              109.2346         estimate D2E/DX2                !
 ! A26   A(4,6,17)             121.3845         estimate D2E/DX2                !
 ! A27   A(8,6,17)             122.9512         estimate D2E/DX2                !
 ! A28   A(1,7,8)              105.0619         estimate D2E/DX2                !
 ! A29   A(1,7,9)              117.0299         estimate D2E/DX2                !
 ! A30   A(1,7,71)             113.5743         estimate D2E/DX2                !
 ! A31   A(8,7,9)              101.1475         estimate D2E/DX2                !
 ! A32   A(8,7,71)             111.0734         estimate D2E/DX2                !
 ! A33   A(9,7,71)             108.1666         estimate D2E/DX2                !
 ! A34   A(6,8,7)              108.7648         estimate D2E/DX2                !
 ! A35   A(6,8,20)             118.8862         estimate D2E/DX2                !
 ! A36   A(7,8,20)             127.5197         estimate D2E/DX2                !
 ! A37   A(7,9,11)             120.3576         estimate D2E/DX2                !
 ! A38   A(7,9,22)             118.0037         estimate D2E/DX2                !
 ! A39   A(11,9,22)            117.8995         estimate D2E/DX2                !
 ! A40   A(2,10,11)            125.8456         estimate D2E/DX2                !
 ! A41   A(2,10,13)            114.0769         estimate D2E/DX2                !
 ! A42   A(11,10,13)           118.4848         estimate D2E/DX2                !
 ! A43   A(9,11,10)            118.7713         estimate D2E/DX2                !
 ! A44   A(9,11,25)            119.4745         estimate D2E/DX2                !
 ! A45   A(10,11,25)           115.2442         estimate D2E/DX2                !
 ! A46   A(3,12,13)            107.5905         estimate D2E/DX2                !
 ! A47   A(3,12,14)            126.8585         estimate D2E/DX2                !
 ! A48   A(13,12,14)           119.0007         estimate D2E/DX2                !
 ! A49   A(10,13,12)           107.622          estimate D2E/DX2                !
 ! A50   A(10,13,27)           125.4719         estimate D2E/DX2                !
 ! A51   A(12,13,27)           121.2296         estimate D2E/DX2                !
 ! A52   A(12,14,16)           118.2562         estimate D2E/DX2                !
 ! A53   A(12,14,29)           120.0515         estimate D2E/DX2                !
 ! A54   A(16,14,29)           119.3781         estimate D2E/DX2                !
 ! A55   A(5,15,16)            121.9027         estimate D2E/DX2                !
 ! A56   A(5,15,18)            119.6928         estimate D2E/DX2                !
 ! A57   A(16,15,18)           111.2967         estimate D2E/DX2                !
 ! A58   A(14,16,15)           105.8937         estimate D2E/DX2                !
 ! A59   A(14,16,32)           112.0823         estimate D2E/DX2                !
 ! A60   A(14,16,70)           109.1803         estimate D2E/DX2                !
 ! A61   A(15,16,32)           100.3417         estimate D2E/DX2                !
 ! A62   A(15,16,70)           114.6697         estimate D2E/DX2                !
 ! A63   A(32,16,70)           114.2109         estimate D2E/DX2                !
 ! A64   A(6,17,18)            114.7162         estimate D2E/DX2                !
 ! A65   A(6,17,19)            118.028          estimate D2E/DX2                !
 ! A66   A(18,17,19)           121.7335         estimate D2E/DX2                !
 ! A67   A(15,18,17)           122.1393         estimate D2E/DX2                !
 ! A68   A(15,18,33)           109.3844         estimate D2E/DX2                !
 ! A69   A(17,18,33)           119.0269         estimate D2E/DX2                !
 ! A70   A(17,19,21)           119.0529         estimate D2E/DX2                !
 ! A71   A(17,19,35)           116.5959         estimate D2E/DX2                !
 ! A72   A(21,19,35)           122.9767         estimate D2E/DX2                !
 ! A73   A(8,20,21)            119.6581         estimate D2E/DX2                !
 ! A74   A(8,20,23)            116.3896         estimate D2E/DX2                !
 ! A75   A(21,20,23)           122.2574         estimate D2E/DX2                !
 ! A76   A(19,21,20)           120.7708         estimate D2E/DX2                !
 ! A77   A(19,21,38)           119.7517         estimate D2E/DX2                !
 ! A78   A(20,21,38)           118.9141         estimate D2E/DX2                !
 ! A79   A(9,22,23)            125.554          estimate D2E/DX2                !
 ! A80   A(9,22,24)            121.1616         estimate D2E/DX2                !
 ! A81   A(23,22,24)           108.3854         estimate D2E/DX2                !
 ! A82   A(20,23,22)           104.9587         estimate D2E/DX2                !
 ! A83   A(20,23,40)           110.9491         estimate D2E/DX2                !
 ! A84   A(20,23,72)           110.0182         estimate D2E/DX2                !
 ! A85   A(22,23,40)           101.9029         estimate D2E/DX2                !
 ! A86   A(22,23,72)           116.0525         estimate D2E/DX2                !
 ! A87   A(40,23,72)           112.5021         estimate D2E/DX2                !
 ! A88   A(22,24,26)           121.0439         estimate D2E/DX2                !
 ! A89   A(22,24,41)           109.94           estimate D2E/DX2                !
 ! A90   A(26,24,41)           119.3216         estimate D2E/DX2                !
 ! A91   A(11,25,26)           121.8668         estimate D2E/DX2                !
 ! A92   A(11,25,28)           122.9867         estimate D2E/DX2                !
 ! A93   A(26,25,28)           107.2379         estimate D2E/DX2                !
 ! A94   A(24,26,25)           117.2512         estimate D2E/DX2                !
 ! A95   A(24,26,44)           121.1604         estimate D2E/DX2                !
 ! A96   A(25,26,44)           108.7327         estimate D2E/DX2                !
 ! A97   A(13,27,28)           113.7593         estimate D2E/DX2                !
 ! A98   A(13,27,30)           119.2759         estimate D2E/DX2                !
 ! A99   A(28,27,30)           121.6584         estimate D2E/DX2                !
 ! A100  A(25,28,27)           119.7844         estimate D2E/DX2                !
 ! A101  A(25,28,45)           109.2815         estimate D2E/DX2                !
 ! A102  A(27,28,45)           120.8719         estimate D2E/DX2                !
 ! A103  A(14,29,30)           118.8023         estimate D2E/DX2                !
 ! A104  A(14,29,31)           119.7148         estimate D2E/DX2                !
 ! A105  A(30,29,31)           116.9724         estimate D2E/DX2                !
 ! A106  A(27,30,29)           118.8016         estimate D2E/DX2                !
 ! A107  A(27,30,47)           115.9301         estimate D2E/DX2                !
 ! A108  A(29,30,47)           120.0908         estimate D2E/DX2                !
 ! A109  A(29,31,34)           119.7873         estimate D2E/DX2                !
 ! A110  A(29,31,49)           122.3728         estimate D2E/DX2                !
 ! A111  A(34,31,49)           106.648          estimate D2E/DX2                !
 ! A112  A(16,32,33)           111.2925         estimate D2E/DX2                !
 ! A113  A(16,32,34)           121.3739         estimate D2E/DX2                !
 ! A114  A(33,32,34)           118.4238         estimate D2E/DX2                !
 ! A115  A(18,33,32)           106.7619         estimate D2E/DX2                !
 ! A116  A(18,33,36)           120.0669         estimate D2E/DX2                !
 ! A117  A(32,33,36)           123.3424         estimate D2E/DX2                !
 ! A118  A(31,34,32)           120.3744         estimate D2E/DX2                !
 ! A119  A(31,34,51)           108.0373         estimate D2E/DX2                !
 ! A120  A(32,34,51)           119.0386         estimate D2E/DX2                !
 ! A121  A(19,35,36)           111.5975         estimate D2E/DX2                !
 ! A122  A(19,35,37)           111.0178         estimate D2E/DX2                !
 ! A123  A(19,35,74)           107.4026         estimate D2E/DX2                !
 ! A124  A(36,35,37)           101.3368         estimate D2E/DX2                !
 ! A125  A(36,35,74)           113.1052         estimate D2E/DX2                !
 ! A126  A(37,35,74)           112.4075         estimate D2E/DX2                !
 ! A127  A(33,36,35)           123.02           estimate D2E/DX2                !
 ! A128  A(33,36,52)           117.921          estimate D2E/DX2                !
 ! A129  A(35,36,52)           111.4705         estimate D2E/DX2                !
 ! A130  A(35,37,39)           121.8294         estimate D2E/DX2                !
 ! A131  A(35,37,53)           109.8412         estimate D2E/DX2                !
 ! A132  A(39,37,53)           120.7016         estimate D2E/DX2                !
 ! A133  A(21,38,39)           111.1202         estimate D2E/DX2                !
 ! A134  A(21,38,42)           110.1842         estimate D2E/DX2                !
 ! A135  A(21,38,73)           107.9496         estimate D2E/DX2                !
 ! A136  A(39,38,42)           101.1957         estimate D2E/DX2                !
 ! A137  A(39,38,73)           112.9524         estimate D2E/DX2                !
 ! A138  A(42,38,73)           113.3779         estimate D2E/DX2                !
 ! A139  A(37,39,38)           123.067          estimate D2E/DX2                !
 ! A140  A(37,39,57)           118.5878         estimate D2E/DX2                !
 ! A141  A(38,39,57)           111.1261         estimate D2E/DX2                !
 ! A142  A(23,40,41)           110.8136         estimate D2E/DX2                !
 ! A143  A(23,40,42)           122.7857         estimate D2E/DX2                !
 ! A144  A(41,40,42)           118.9755         estimate D2E/DX2                !
 ! A145  A(24,41,40)           107.3321         estimate D2E/DX2                !
 ! A146  A(24,41,43)           119.6295         estimate D2E/DX2                !
 ! A147  A(40,41,43)           121.8221         estimate D2E/DX2                !
 ! A148  A(38,42,40)           123.2309         estimate D2E/DX2                !
 ! A149  A(38,42,58)           110.415          estimate D2E/DX2                !
 ! A150  A(40,42,58)           119.5972         estimate D2E/DX2                !
 ! A151  A(41,43,46)           121.1988         estimate D2E/DX2                !
 ! A152  A(41,43,59)           119.2562         estimate D2E/DX2                !
 ! A153  A(46,43,59)           107.4612         estimate D2E/DX2                !
 ! A154  A(26,44,45)           107.3285         estimate D2E/DX2                !
 ! A155  A(26,44,46)           120.0549         estimate D2E/DX2                !
 ! A156  A(45,44,46)           118.9237         estimate D2E/DX2                !
 ! A157  A(28,45,44)           107.3135         estimate D2E/DX2                !
 ! A158  A(28,45,48)           119.133          estimate D2E/DX2                !
 ! A159  A(44,45,48)           121.9914         estimate D2E/DX2                !
 ! A160  A(43,46,44)           118.6055         estimate D2E/DX2                !
 ! A161  A(43,46,61)           109.2925         estimate D2E/DX2                !
 ! A162  A(44,46,61)           119.5631         estimate D2E/DX2                !
 ! A163  A(30,47,48)           121.8633         estimate D2E/DX2                !
 ! A164  A(30,47,50)           121.3734         estimate D2E/DX2                !
 ! A165  A(48,47,50)           107.1206         estimate D2E/DX2                !
 ! A166  A(45,48,47)           120.0403         estimate D2E/DX2                !
 ! A167  A(45,48,62)           118.8762         estimate D2E/DX2                !
 ! A168  A(47,48,62)           108.9956         estimate D2E/DX2                !
 ! A169  A(31,49,50)           120.5794         estimate D2E/DX2                !
 ! A170  A(31,49,54)           108.6816         estimate D2E/DX2                !
 ! A171  A(50,49,54)           119.1406         estimate D2E/DX2                !
 ! A172  A(47,50,49)           118.2457         estimate D2E/DX2                !
 ! A173  A(47,50,63)           108.4729         estimate D2E/DX2                !
 ! A174  A(49,50,63)           121.3174         estimate D2E/DX2                !
 ! A175  A(34,51,52)           120.9432         estimate D2E/DX2                !
 ! A176  A(34,51,54)           107.6895         estimate D2E/DX2                !
 ! A177  A(52,51,54)           119.3415         estimate D2E/DX2                !
 ! A178  A(36,52,51)           119.4172         estimate D2E/DX2                !
 ! A179  A(36,52,53)           107.4691         estimate D2E/DX2                !
 ! A180  A(51,52,53)           120.8163         estimate D2E/DX2                !
 ! A181  A(37,53,52)           109.4192         estimate D2E/DX2                !
 ! A182  A(37,53,55)           121.0803         estimate D2E/DX2                !
 ! A183  A(52,53,55)           118.9801         estimate D2E/DX2                !
 ! A184  A(49,54,51)           108.1346         estimate D2E/DX2                !
 ! A185  A(49,54,56)           119.2069         estimate D2E/DX2                !
 ! A186  A(51,54,56)           120.3831         estimate D2E/DX2                !
 ! A187  A(53,55,56)           120.7956         estimate D2E/DX2                !
 ! A188  A(53,55,60)           118.5459         estimate D2E/DX2                !
 ! A189  A(56,55,60)           108.6125         estimate D2E/DX2                !
 ! A190  A(54,56,55)           119.4331         estimate D2E/DX2                !
 ! A191  A(54,56,64)           121.031          estimate D2E/DX2                !
 ! A192  A(55,56,64)           107.9333         estimate D2E/DX2                !
 ! A193  A(39,57,58)           107.8085         estimate D2E/DX2                !
 ! A194  A(39,57,60)           121.3472         estimate D2E/DX2                !
 ! A195  A(58,57,60)           119.8336         estimate D2E/DX2                !
 ! A196  A(42,58,57)           108.9099         estimate D2E/DX2                !
 ! A197  A(42,58,59)           121.7123         estimate D2E/DX2                !
 ! A198  A(57,58,59)           119.1161         estimate D2E/DX2                !
 ! A199  A(43,59,58)           118.5054         estimate D2E/DX2                !
 ! A200  A(43,59,65)           108.1891         estimate D2E/DX2                !
 ! A201  A(58,59,65)           121.1968         estimate D2E/DX2                !
 ! A202  A(55,60,57)           119.6804         estimate D2E/DX2                !
 ! A203  A(55,60,66)           107.6604         estimate D2E/DX2                !
 ! A204  A(57,60,66)           121.2863         estimate D2E/DX2                !
 ! A205  A(46,61,62)           121.0748         estimate D2E/DX2                !
 ! A206  A(46,61,65)           106.1824         estimate D2E/DX2                !
 ! A207  A(62,61,65)           119.8203         estimate D2E/DX2                !
 ! A208  A(48,62,61)           119.3465         estimate D2E/DX2                !
 ! A209  A(48,62,63)           106.9456         estimate D2E/DX2                !
 ! A210  A(61,62,63)           120.5716         estimate D2E/DX2                !
 ! A211  A(50,63,62)           108.1118         estimate D2E/DX2                !
 ! A212  A(50,63,64)           119.2507         estimate D2E/DX2                !
 ! A213  A(62,63,64)           119.4693         estimate D2E/DX2                !
 ! A214  A(56,64,63)           119.8108         estimate D2E/DX2                !
 ! A215  A(56,64,66)           107.2158         estimate D2E/DX2                !
 ! A216  A(63,64,66)           120.0447         estimate D2E/DX2                !
 ! A217  A(59,65,61)           108.824          estimate D2E/DX2                !
 ! A218  A(59,65,66)           119.4783         estimate D2E/DX2                !
 ! A219  A(61,65,66)           119.5365         estimate D2E/DX2                !
 ! A220  A(60,66,64)           108.5178         estimate D2E/DX2                !
 ! A221  A(60,66,65)           118.9972         estimate D2E/DX2                !
 ! A222  A(64,66,65)           120.4452         estimate D2E/DX2                !
 ! D1    D(4,1,2,3)             17.2062         estimate D2E/DX2                !
 ! D2    D(4,1,2,10)           -91.3406         estimate D2E/DX2                !
 ! D3    D(4,1,2,68)           147.2634         estimate D2E/DX2                !
 ! D4    D(7,1,2,3)            127.0159         estimate D2E/DX2                !
 ! D5    D(7,1,2,10)            18.4692         estimate D2E/DX2                !
 ! D6    D(7,1,2,68)          -102.9269         estimate D2E/DX2                !
 ! D7    D(67,1,2,3)           -99.4812         estimate D2E/DX2                !
 ! D8    D(67,1,2,10)          151.9721         estimate D2E/DX2                !
 ! D9    D(67,1,2,68)           30.576          estimate D2E/DX2                !
 ! D10   D(2,1,4,5)            -16.5562         estimate D2E/DX2                !
 ! D11   D(2,1,4,6)            133.928          estimate D2E/DX2                !
 ! D12   D(7,1,4,5)           -140.178          estimate D2E/DX2                !
 ! D13   D(7,1,4,6)             10.3062         estimate D2E/DX2                !
 ! D14   D(67,1,4,5)            98.1528         estimate D2E/DX2                !
 ! D15   D(67,1,4,6)          -111.363          estimate D2E/DX2                !
 ! D16   D(2,1,7,8)           -114.9471         estimate D2E/DX2                !
 ! D17   D(2,1,7,9)             -3.7204         estimate D2E/DX2                !
 ! D18   D(2,1,7,71)           123.4729         estimate D2E/DX2                !
 ! D19   D(4,1,7,8)             -7.2729         estimate D2E/DX2                !
 ! D20   D(4,1,7,9)            103.9538         estimate D2E/DX2                !
 ! D21   D(4,1,7,71)          -128.8529         estimate D2E/DX2                !
 ! D22   D(67,1,7,8)           113.302          estimate D2E/DX2                !
 ! D23   D(67,1,7,9)          -135.4712         estimate D2E/DX2                !
 ! D24   D(67,1,7,71)           -8.278          estimate D2E/DX2                !
 ! D25   D(1,2,3,5)            -13.2327         estimate D2E/DX2                !
 ! D26   D(1,2,3,12)          -120.234          estimate D2E/DX2                !
 ! D27   D(1,2,3,69)           111.6505         estimate D2E/DX2                !
 ! D28   D(10,2,3,5)           101.7199         estimate D2E/DX2                !
 ! D29   D(10,2,3,12)           -5.2814         estimate D2E/DX2                !
 ! D30   D(10,2,3,69)         -133.3969         estimate D2E/DX2                !
 ! D31   D(68,2,3,5)          -140.0215         estimate D2E/DX2                !
 ! D32   D(68,2,3,12)          112.9772         estimate D2E/DX2                !
 ! D33   D(68,2,3,69)          -15.1383         estimate D2E/DX2                !
 ! D34   D(1,2,10,11)          -34.3922         estimate D2E/DX2                !
 ! D35   D(1,2,10,13)          130.9014         estimate D2E/DX2                !
 ! D36   D(3,2,10,11)         -148.6625         estimate D2E/DX2                !
 ! D37   D(3,2,10,13)           16.6311         estimate D2E/DX2                !
 ! D38   D(68,2,10,11)          87.8579         estimate D2E/DX2                !
 ! D39   D(68,2,10,13)        -106.8485         estimate D2E/DX2                !
 ! D40   D(2,3,5,4)              3.1629         estimate D2E/DX2                !
 ! D41   D(2,3,5,15)          -144.199          estimate D2E/DX2                !
 ! D42   D(12,3,5,4)           113.373          estimate D2E/DX2                !
 ! D43   D(12,3,5,15)          -33.9888         estimate D2E/DX2                !
 ! D44   D(69,3,5,4)          -124.5827         estimate D2E/DX2                !
 ! D45   D(69,3,5,15)           88.0555         estimate D2E/DX2                !
 ! D46   D(2,3,12,13)           -6.6754         estimate D2E/DX2                !
 ! D47   D(2,3,12,14)          144.1734         estimate D2E/DX2                !
 ! D48   D(5,3,12,13)         -113.3934         estimate D2E/DX2                !
 ! D49   D(5,3,12,14)           37.4554         estimate D2E/DX2                !
 ! D50   D(69,3,12,13)         124.2382         estimate D2E/DX2                !
 ! D51   D(69,3,12,14)         -84.913          estimate D2E/DX2                !
 ! D52   D(1,4,5,3)              9.2136         estimate D2E/DX2                !
 ! D53   D(1,4,5,15)           158.4688         estimate D2E/DX2                !
 ! D54   D(6,4,5,3)           -138.5701         estimate D2E/DX2                !
 ! D55   D(6,4,5,15)            10.6851         estimate D2E/DX2                !
 ! D56   D(1,4,6,8)             -9.2857         estimate D2E/DX2                !
 ! D57   D(1,4,6,17)          -161.8665         estimate D2E/DX2                !
 ! D58   D(5,4,6,8)            139.4725         estimate D2E/DX2                !
 ! D59   D(5,4,6,17)           -13.1083         estimate D2E/DX2                !
 ! D60   D(3,5,15,16)           -0.7482         estimate D2E/DX2                !
 ! D61   D(3,5,15,18)          147.1881         estimate D2E/DX2                !
 ! D62   D(4,5,15,16)         -145.9201         estimate D2E/DX2                !
 ! D63   D(4,5,15,18)            2.0163         estimate D2E/DX2                !
 ! D64   D(4,6,8,7)              3.7582         estimate D2E/DX2                !
 ! D65   D(4,6,8,20)          -153.4719         estimate D2E/DX2                !
 ! D66   D(17,6,8,7)           155.8221         estimate D2E/DX2                !
 ! D67   D(17,6,8,20)           -1.4079         estimate D2E/DX2                !
 ! D68   D(4,6,17,18)            2.27           estimate D2E/DX2                !
 ! D69   D(4,6,17,19)          156.5562         estimate D2E/DX2                !
 ! D70   D(8,6,17,18)         -146.5223         estimate D2E/DX2                !
 ! D71   D(8,6,17,19)            7.764          estimate D2E/DX2                !
 ! D72   D(1,7,8,6)              2.511          estimate D2E/DX2                !
 ! D73   D(1,7,8,20)           157.2172         estimate D2E/DX2                !
 ! D74   D(9,7,8,6)           -119.6773         estimate D2E/DX2                !
 ! D75   D(9,7,8,20)            35.029          estimate D2E/DX2                !
 ! D76   D(71,7,8,6)           125.7099         estimate D2E/DX2                !
 ! D77   D(71,7,8,20)          -79.5839         estimate D2E/DX2                !
 ! D78   D(1,7,9,11)            -0.5333         estimate D2E/DX2                !
 ! D79   D(1,7,9,22)          -158.301          estimate D2E/DX2                !
 ! D80   D(8,7,9,11)           112.912          estimate D2E/DX2                !
 ! D81   D(8,7,9,22)           -44.8557         estimate D2E/DX2                !
 ! D82   D(71,7,9,11)         -130.3209         estimate D2E/DX2                !
 ! D83   D(71,7,9,22)           71.9114         estimate D2E/DX2                !
 ! D84   D(6,8,20,21)           -5.1901         estimate D2E/DX2                !
 ! D85   D(6,8,20,23)          160.3148         estimate D2E/DX2                !
 ! D86   D(7,8,20,21)         -157.6717         estimate D2E/DX2                !
 ! D87   D(7,8,20,23)            7.8333         estimate D2E/DX2                !
 ! D88   D(7,9,11,10)          -12.1484         estimate D2E/DX2                !
 ! D89   D(7,9,11,25)         -162.5165         estimate D2E/DX2                !
 ! D90   D(22,9,11,10)         145.6419         estimate D2E/DX2                !
 ! D91   D(22,9,11,25)          -4.7262         estimate D2E/DX2                !
 ! D92   D(7,9,22,23)           16.4419         estimate D2E/DX2                !
 ! D93   D(7,9,22,24)          168.7239         estimate D2E/DX2                !
 ! D94   D(11,9,22,23)        -141.8781         estimate D2E/DX2                !
 ! D95   D(11,9,22,24)          10.404          estimate D2E/DX2                !
 ! D96   D(2,10,11,9)           32.7322         estimate D2E/DX2                !
 ! D97   D(2,10,11,25)        -175.6845         estimate D2E/DX2                !
 ! D98   D(13,10,11,9)        -131.9779         estimate D2E/DX2                !
 ! D99   D(13,10,11,25)         19.6053         estimate D2E/DX2                !
 ! D100  D(2,10,13,12)         -22.1331         estimate D2E/DX2                !
 ! D101  D(2,10,13,27)        -175.5526         estimate D2E/DX2                !
 ! D102  D(11,10,13,12)        144.3268         estimate D2E/DX2                !
 ! D103  D(11,10,13,27)         -9.0926         estimate D2E/DX2                !
 ! D104  D(9,11,25,26)          -6.0589         estimate D2E/DX2                !
 ! D105  D(9,11,25,28)         138.9744         estimate D2E/DX2                !
 ! D106  D(10,11,25,26)       -157.4292         estimate D2E/DX2                !
 ! D107  D(10,11,25,28)        -12.3959         estimate D2E/DX2                !
 ! D108  D(3,12,13,10)          16.8707         estimate D2E/DX2                !
 ! D109  D(3,12,13,27)         171.6467         estimate D2E/DX2                !
 ! D110  D(14,12,13,10)       -136.6658         estimate D2E/DX2                !
 ! D111  D(14,12,13,27)         18.1101         estimate D2E/DX2                !
 ! D112  D(3,12,14,16)          -3.8367         estimate D2E/DX2                !
 ! D113  D(3,12,14,29)        -166.4626         estimate D2E/DX2                !
 ! D114  D(13,12,14,16)        144.0965         estimate D2E/DX2                !
 ! D115  D(13,12,14,29)        -18.5294         estimate D2E/DX2                !
 ! D116  D(10,13,27,28)         -9.9481         estimate D2E/DX2                !
 ! D117  D(10,13,27,30)        144.7696         estimate D2E/DX2                !
 ! D118  D(12,13,27,28)       -160.0324         estimate D2E/DX2                !
 ! D119  D(12,13,27,30)         -5.3147         estimate D2E/DX2                !
 ! D120  D(12,14,16,15)        -32.9114         estimate D2E/DX2                !
 ! D121  D(12,14,16,32)       -141.3898         estimate D2E/DX2                !
 ! D122  D(12,14,16,70)         91.0428         estimate D2E/DX2                !
 ! D123  D(29,14,16,15)        129.8344         estimate D2E/DX2                !
 ! D124  D(29,14,16,32)         21.3559         estimate D2E/DX2                !
 ! D125  D(29,14,16,70)       -106.2115         estimate D2E/DX2                !
 ! D126  D(12,14,29,30)          6.7605         estimate D2E/DX2                !
 ! D127  D(12,14,29,31)        162.2319         estimate D2E/DX2                !
 ! D128  D(16,14,29,30)       -155.6711         estimate D2E/DX2                !
 ! D129  D(16,14,29,31)         -0.1998         estimate D2E/DX2                !
 ! D130  D(5,15,16,14)          35.9572         estimate D2E/DX2                !
 ! D131  D(5,15,16,32)         152.6558         estimate D2E/DX2                !
 ! D132  D(5,15,16,70)         -84.4866         estimate D2E/DX2                !
 ! D133  D(18,15,16,14)       -114.3759         estimate D2E/DX2                !
 ! D134  D(18,15,16,32)          2.3226         estimate D2E/DX2                !
 ! D135  D(18,15,16,70)        125.1802         estimate D2E/DX2                !
 ! D136  D(5,15,18,17)         -12.8532         estimate D2E/DX2                !
 ! D137  D(5,15,18,33)        -158.8002         estimate D2E/DX2                !
 ! D138  D(16,15,18,17)        138.2192         estimate D2E/DX2                !
 ! D139  D(16,15,18,33)         -7.7278         estimate D2E/DX2                !
 ! D140  D(14,16,32,33)        115.9319         estimate D2E/DX2                !
 ! D141  D(14,16,32,34)        -30.7878         estimate D2E/DX2                !
 ! D142  D(15,16,32,33)          3.9419         estimate D2E/DX2                !
 ! D143  D(15,16,32,34)       -142.7778         estimate D2E/DX2                !
 ! D144  D(70,16,32,33)       -119.2367         estimate D2E/DX2                !
 ! D145  D(70,16,32,34)         94.0437         estimate D2E/DX2                !
 ! D146  D(6,17,18,15)          10.3771         estimate D2E/DX2                !
 ! D147  D(6,17,18,33)         153.2132         estimate D2E/DX2                !
 ! D148  D(19,17,18,15)       -142.8594         estimate D2E/DX2                !
 ! D149  D(19,17,18,33)         -0.0233         estimate D2E/DX2                !
 ! D150  D(6,17,19,21)          -7.3995         estimate D2E/DX2                !
 ! D151  D(6,17,19,35)        -174.422          estimate D2E/DX2                !
 ! D152  D(18,17,19,21)        144.9934         estimate D2E/DX2                !
 ! D153  D(18,17,19,35)        -22.0291         estimate D2E/DX2                !
 ! D154  D(15,18,33,32)          9.9479         estimate D2E/DX2                !
 ! D155  D(15,18,33,36)        156.8402         estimate D2E/DX2                !
 ! D156  D(17,18,33,32)       -137.2143         estimate D2E/DX2                !
 ! D157  D(17,18,33,36)          9.678          estimate D2E/DX2                !
 ! D158  D(17,19,21,20)          1.0978         estimate D2E/DX2                !
 ! D159  D(17,19,21,38)       -170.2017         estimate D2E/DX2                !
 ! D160  D(35,19,21,20)        167.2484         estimate D2E/DX2                !
 ! D161  D(35,19,21,38)         -4.0511         estimate D2E/DX2                !
 ! D162  D(17,19,35,36)         32.3441         estimate D2E/DX2                !
 ! D163  D(17,19,35,37)        144.5906         estimate D2E/DX2                !
 ! D164  D(17,19,35,74)        -92.1539         estimate D2E/DX2                !
 ! D165  D(21,19,35,36)       -134.1224         estimate D2E/DX2                !
 ! D166  D(21,19,35,37)        -21.8759         estimate D2E/DX2                !
 ! D167  D(21,19,35,74)        101.3796         estimate D2E/DX2                !
 ! D168  D(8,20,21,19)           5.3442         estimate D2E/DX2                !
 ! D169  D(8,20,21,38)         176.7155         estimate D2E/DX2                !
 ! D170  D(23,20,21,19)       -159.2808         estimate D2E/DX2                !
 ! D171  D(23,20,21,38)         12.0905         estimate D2E/DX2                !
 ! D172  D(8,20,23,22)         -38.7159         estimate D2E/DX2                !
 ! D173  D(8,20,23,40)        -148.0385         estimate D2E/DX2                !
 ! D174  D(8,20,23,72)          86.817          estimate D2E/DX2                !
 ! D175  D(21,20,23,22)        126.3799         estimate D2E/DX2                !
 ! D176  D(21,20,23,40)         17.0573         estimate D2E/DX2                !
 ! D177  D(21,20,23,72)       -108.0872         estimate D2E/DX2                !
 ! D178  D(19,21,38,39)         27.2611         estimate D2E/DX2                !
 ! D179  D(19,21,38,42)        138.5924         estimate D2E/DX2                !
 ! D180  D(19,21,38,73)        -97.1113         estimate D2E/DX2                !
 ! D181  D(20,21,38,39)       -144.1999         estimate D2E/DX2                !
 ! D182  D(20,21,38,42)        -32.8686         estimate D2E/DX2                !
 ! D183  D(20,21,38,73)         91.4277         estimate D2E/DX2                !
 ! D184  D(9,22,23,20)          28.6951         estimate D2E/DX2                !
 ! D185  D(9,22,23,40)         144.4505         estimate D2E/DX2                !
 ! D186  D(9,22,23,72)         -92.974          estimate D2E/DX2                !
 ! D187  D(24,22,23,20)       -126.5071         estimate D2E/DX2                !
 ! D188  D(24,22,23,40)        -10.7518         estimate D2E/DX2                !
 ! D189  D(24,22,23,72)        111.8237         estimate D2E/DX2                !
 ! D190  D(9,22,24,26)          -5.556          estimate D2E/DX2                !
 ! D191  D(9,22,24,41)        -151.2854         estimate D2E/DX2                !
 ! D192  D(23,22,24,26)        150.9433         estimate D2E/DX2                !
 ! D193  D(23,22,24,41)          5.2138         estimate D2E/DX2                !
 ! D194  D(20,23,40,41)        124.2708         estimate D2E/DX2                !
 ! D195  D(20,23,40,42)        -25.1925         estimate D2E/DX2                !
 ! D196  D(22,23,40,41)         12.9761         estimate D2E/DX2                !
 ! D197  D(22,23,40,42)       -136.4872         estimate D2E/DX2                !
 ! D198  D(72,23,40,41)       -111.9943         estimate D2E/DX2                !
 ! D199  D(72,23,40,42)         98.5424         estimate D2E/DX2                !
 ! D200  D(22,24,26,25)         -5.1488         estimate D2E/DX2                !
 ! D201  D(22,24,26,44)       -142.338          estimate D2E/DX2                !
 ! D202  D(41,24,26,25)        137.4692         estimate D2E/DX2                !
 ! D203  D(41,24,26,44)          0.28           estimate D2E/DX2                !
 ! D204  D(22,24,41,40)          3.0937         estimate D2E/DX2                !
 ! D205  D(22,24,41,43)        147.4794         estimate D2E/DX2                !
 ! D206  D(26,24,41,40)       -143.3097         estimate D2E/DX2                !
 ! D207  D(26,24,41,43)          1.076          estimate D2E/DX2                !
 ! D208  D(11,25,26,24)         10.881          estimate D2E/DX2                !
 ! D209  D(11,25,26,44)        152.9974         estimate D2E/DX2                !
 ! D210  D(28,25,26,24)       -138.8989         estimate D2E/DX2                !
 ! D211  D(28,25,26,44)          3.2174         estimate D2E/DX2                !
 ! D212  D(11,25,28,27)         -6.8225         estimate D2E/DX2                !
 ! D213  D(11,25,28,45)       -152.5714         estimate D2E/DX2                !
 ! D214  D(26,25,28,27)        142.5396         estimate D2E/DX2                !
 ! D215  D(26,25,28,45)         -3.2094         estimate D2E/DX2                !
 ! D216  D(24,26,44,45)        138.3216         estimate D2E/DX2                !
 ! D217  D(24,26,44,46)         -1.6637         estimate D2E/DX2                !
 ! D218  D(25,26,44,45)         -2.0397         estimate D2E/DX2                !
 ! D219  D(25,26,44,46)       -142.0249         estimate D2E/DX2                !
 ! D220  D(13,27,28,25)         17.2852         estimate D2E/DX2                !
 ! D221  D(13,27,28,45)        159.0461         estimate D2E/DX2                !
 ! D222  D(30,27,28,25)       -136.7604         estimate D2E/DX2                !
 ! D223  D(30,27,28,45)          5.0005         estimate D2E/DX2                !
 ! D224  D(13,27,30,29)         -6.4915         estimate D2E/DX2                !
 ! D225  D(13,27,30,47)       -161.1163         estimate D2E/DX2                !
 ! D226  D(28,27,30,29)        146.1719         estimate D2E/DX2                !
 ! D227  D(28,27,30,47)         -8.4529         estimate D2E/DX2                !
 ! D228  D(25,28,45,44)          1.9521         estimate D2E/DX2                !
 ! D229  D(25,28,45,48)        145.9549         estimate D2E/DX2                !
 ! D230  D(27,28,45,44)       -143.36           estimate D2E/DX2                !
 ! D231  D(27,28,45,48)          0.6428         estimate D2E/DX2                !
 ! D232  D(14,29,30,27)          5.8647         estimate D2E/DX2                !
 ! D233  D(14,29,30,47)        159.4137         estimate D2E/DX2                !
 ! D234  D(31,29,30,27)       -150.2715         estimate D2E/DX2                !
 ! D235  D(31,29,30,47)          3.2775         estimate D2E/DX2                !
 ! D236  D(14,29,31,34)        -14.6322         estimate D2E/DX2                !
 ! D237  D(14,29,31,49)       -153.5471         estimate D2E/DX2                !
 ! D238  D(30,29,31,34)        141.2767         estimate D2E/DX2                !
 ! D239  D(30,29,31,49)          2.3618         estimate D2E/DX2                !
 ! D240  D(27,30,47,48)          6.7145         estimate D2E/DX2                !
 ! D241  D(27,30,47,50)        148.433          estimate D2E/DX2                !
 ! D242  D(29,30,47,48)       -147.5623         estimate D2E/DX2                !
 ! D243  D(29,30,47,50)         -5.8439         estimate D2E/DX2                !
 ! D244  D(29,31,34,32)          6.0238         estimate D2E/DX2                !
 ! D245  D(29,31,34,51)       -135.4719         estimate D2E/DX2                !
 ! D246  D(49,31,34,32)        150.6206         estimate D2E/DX2                !
 ! D247  D(49,31,34,51)          9.125          estimate D2E/DX2                !
 ! D248  D(29,31,49,50)         -5.676          estimate D2E/DX2                !
 ! D249  D(29,31,49,54)        137.1569         estimate D2E/DX2                !
 ! D250  D(34,31,49,50)       -149.1418         estimate D2E/DX2                !
 ! D251  D(34,31,49,54)         -6.3089         estimate D2E/DX2                !
 ! D252  D(16,32,33,18)         -8.5826         estimate D2E/DX2                !
 ! D253  D(16,32,33,36)       -154.1208         estimate D2E/DX2                !
 ! D254  D(34,32,33,18)        139.2278         estimate D2E/DX2                !
 ! D255  D(34,32,33,36)         -6.3104         estimate D2E/DX2                !
 ! D256  D(16,32,34,31)         18.1241         estimate D2E/DX2                !
 ! D257  D(16,32,34,51)        155.5072         estimate D2E/DX2                !
 ! D258  D(33,32,34,31)       -126.3296         estimate D2E/DX2                !
 ! D259  D(33,32,34,51)         11.0535         estimate D2E/DX2                !
 ! D260  D(18,33,36,35)          3.8874         estimate D2E/DX2                !
 ! D261  D(18,33,36,52)       -143.0896         estimate D2E/DX2                !
 ! D262  D(32,33,36,35)        145.1277         estimate D2E/DX2                !
 ! D263  D(32,33,36,52)         -1.8493         estimate D2E/DX2                !
 ! D264  D(31,34,51,52)        133.8196         estimate D2E/DX2                !
 ! D265  D(31,34,51,54)         -8.449          estimate D2E/DX2                !
 ! D266  D(32,34,51,52)         -8.2759         estimate D2E/DX2                !
 ! D267  D(32,34,51,54)       -150.5445         estimate D2E/DX2                !
 ! D268  D(19,35,36,33)        -24.5558         estimate D2E/DX2                !
 ! D269  D(19,35,36,52)        124.2831         estimate D2E/DX2                !
 ! D270  D(37,35,36,33)       -142.771          estimate D2E/DX2                !
 ! D271  D(37,35,36,52)          6.0679         estimate D2E/DX2                !
 ! D272  D(74,35,36,33)         96.6838         estimate D2E/DX2                !
 ! D273  D(74,35,36,52)       -114.4773         estimate D2E/DX2                !
 ! D274  D(19,35,37,39)         24.2646         estimate D2E/DX2                !
 ! D275  D(19,35,37,53)       -125.3726         estimate D2E/DX2                !
 ! D276  D(36,35,37,39)        142.8975         estimate D2E/DX2                !
 ! D277  D(36,35,37,53)         -6.7396         estimate D2E/DX2                !
 ! D278  D(74,35,37,39)        -96.0661         estimate D2E/DX2                !
 ! D279  D(74,35,37,53)        114.2968         estimate D2E/DX2                !
 ! D280  D(33,36,52,51)          4.8096         estimate D2E/DX2                !
 ! D281  D(33,36,52,53)        147.3707         estimate D2E/DX2                !
 ! D282  D(35,36,52,51)       -145.7824         estimate D2E/DX2                !
 ! D283  D(35,36,52,53)         -3.2212         estimate D2E/DX2                !
 ! D284  D(35,37,39,38)         -0.5706         estimate D2E/DX2                !
 ! D285  D(35,37,39,57)       -148.1985         estimate D2E/DX2                !
 ! D286  D(53,37,39,38)        145.8581         estimate D2E/DX2                !
 ! D287  D(53,37,39,57)         -1.7698         estimate D2E/DX2                !
 ! D288  D(35,37,53,52)          5.3413         estimate D2E/DX2                !
 ! D289  D(35,37,53,55)        149.6662         estimate D2E/DX2                !
 ! D290  D(39,37,53,52)       -144.6938         estimate D2E/DX2                !
 ! D291  D(39,37,53,55)         -0.3689         estimate D2E/DX2                !
 ! D292  D(21,38,39,37)        -25.5881         estimate D2E/DX2                !
 ! D293  D(21,38,39,57)        124.1459         estimate D2E/DX2                !
 ! D294  D(42,38,39,37)       -142.5575         estimate D2E/DX2                !
 ! D295  D(42,38,39,57)          7.1764         estimate D2E/DX2                !
 ! D296  D(73,38,39,37)         95.9028         estimate D2E/DX2                !
 ! D297  D(73,38,39,57)       -114.3633         estimate D2E/DX2                !
 ! D298  D(21,38,42,40)         26.3102         estimate D2E/DX2                !
 ! D299  D(21,38,42,58)       -124.6018         estimate D2E/DX2                !
 ! D300  D(39,38,42,40)        143.9628         estimate D2E/DX2                !
 ! D301  D(39,38,42,58)         -6.9491         estimate D2E/DX2                !
 ! D302  D(73,38,42,40)        -94.7958         estimate D2E/DX2                !
 ! D303  D(73,38,42,58)        114.2922         estimate D2E/DX2                !
 ! D304  D(37,39,57,58)        146.3105         estimate D2E/DX2                !
 ! D305  D(37,39,57,60)          2.458          estimate D2E/DX2                !
 ! D306  D(38,39,57,58)         -4.9371         estimate D2E/DX2                !
 ! D307  D(38,39,57,60)       -148.7896         estimate D2E/DX2                !
 ! D308  D(23,40,41,24)        -10.4649         estimate D2E/DX2                !
 ! D309  D(23,40,41,43)       -153.9006         estimate D2E/DX2                !
 ! D310  D(42,40,41,24)        140.3081         estimate D2E/DX2                !
 ! D311  D(42,40,41,43)         -3.1276         estimate D2E/DX2                !
 ! D312  D(23,40,42,38)          3.0865         estimate D2E/DX2                !
 ! D313  D(23,40,42,58)        151.4863         estimate D2E/DX2                !
 ! D314  D(41,40,42,38)       -144.033          estimate D2E/DX2                !
 ! D315  D(41,40,42,58)          4.3668         estimate D2E/DX2                !
 ! D316  D(24,41,43,46)         -1.0968         estimate D2E/DX2                !
 ! D317  D(24,41,43,59)       -138.9404         estimate D2E/DX2                !
 ! D318  D(40,41,43,46)        138.0425         estimate D2E/DX2                !
 ! D319  D(40,41,43,59)          0.199          estimate D2E/DX2                !
 ! D320  D(38,42,58,57)          4.4952         estimate D2E/DX2                !
 ! D321  D(38,42,58,59)        149.2099         estimate D2E/DX2                !
 ! D322  D(40,42,58,57)       -147.6213         estimate D2E/DX2                !
 ! D323  D(40,42,58,59)         -2.9066         estimate D2E/DX2                !
 ! D324  D(41,43,46,44)         -0.2688         estimate D2E/DX2                !
 ! D325  D(41,43,46,61)       -142.1108         estimate D2E/DX2                !
 ! D326  D(59,43,46,44)        141.8641         estimate D2E/DX2                !
 ! D327  D(59,43,46,61)          0.0222         estimate D2E/DX2                !
 ! D328  D(41,43,59,58)          1.3331         estimate D2E/DX2                !
 ! D329  D(41,43,59,65)        144.3561         estimate D2E/DX2                !
 ! D330  D(46,43,59,58)       -141.6663         estimate D2E/DX2                !
 ! D331  D(46,43,59,65)          1.3567         estimate D2E/DX2                !
 ! D332  D(26,44,45,28)          0.0508         estimate D2E/DX2                !
 ! D333  D(26,44,45,48)       -142.6971         estimate D2E/DX2                !
 ! D334  D(46,44,45,28)        140.5682         estimate D2E/DX2                !
 ! D335  D(46,44,45,48)         -2.1797         estimate D2E/DX2                !
 ! D336  D(26,44,46,43)          1.6214         estimate D2E/DX2                !
 ! D337  D(26,44,46,61)        139.5221         estimate D2E/DX2                !
 ! D338  D(45,44,46,43)       -133.8493         estimate D2E/DX2                !
 ! D339  D(45,44,46,61)          4.0514         estimate D2E/DX2                !
 ! D340  D(28,45,48,47)         -2.3586         estimate D2E/DX2                !
 ! D341  D(28,45,48,62)       -140.8027         estimate D2E/DX2                !
 ! D342  D(44,45,48,47)        136.2199         estimate D2E/DX2                !
 ! D343  D(44,45,48,62)         -2.2242         estimate D2E/DX2                !
 ! D344  D(43,46,61,62)        139.8288         estimate D2E/DX2                !
 ! D345  D(43,46,61,65)         -1.3801         estimate D2E/DX2                !
 ! D346  D(44,46,61,62)         -1.5914         estimate D2E/DX2                !
 ! D347  D(44,46,61,65)       -142.8003         estimate D2E/DX2                !
 ! D348  D(30,47,48,45)         -1.5164         estimate D2E/DX2                !
 ! D349  D(30,47,48,62)        140.5806         estimate D2E/DX2                !
 ! D350  D(50,47,48,45)       -147.9108         estimate D2E/DX2                !
 ! D351  D(50,47,48,62)         -5.8138         estimate D2E/DX2                !
 ! D352  D(30,47,50,49)          2.5847         estimate D2E/DX2                !
 ! D353  D(30,47,50,63)       -140.6946         estimate D2E/DX2                !
 ! D354  D(48,47,50,49)        149.1788         estimate D2E/DX2                !
 ! D355  D(48,47,50,63)          5.8994         estimate D2E/DX2                !
 ! D356  D(45,48,62,61)          4.6784         estimate D2E/DX2                !
 ! D357  D(45,48,62,63)        146.0571         estimate D2E/DX2                !
 ! D358  D(47,48,62,61)       -137.9259         estimate D2E/DX2                !
 ! D359  D(47,48,62,63)          3.4528         estimate D2E/DX2                !
 ! D360  D(31,49,50,47)          3.0695         estimate D2E/DX2                !
 ! D361  D(31,49,50,63)        141.4773         estimate D2E/DX2                !
 ! D362  D(54,49,50,47)       -135.9921         estimate D2E/DX2                !
 ! D363  D(54,49,50,63)          2.4157         estimate D2E/DX2                !
 ! D364  D(31,49,54,51)          1.1968         estimate D2E/DX2                !
 ! D365  D(31,49,54,56)       -141.254          estimate D2E/DX2                !
 ! D366  D(50,49,54,51)        144.649          estimate D2E/DX2                !
 ! D367  D(50,49,54,56)          2.1982         estimate D2E/DX2                !
 ! D368  D(47,50,63,62)         -3.8375         estimate D2E/DX2                !
 ! D369  D(47,50,63,64)        137.0971         estimate D2E/DX2                !
 ! D370  D(49,50,63,62)       -145.7729         estimate D2E/DX2                !
 ! D371  D(49,50,63,64)         -4.8383         estimate D2E/DX2                !
 ! D372  D(34,51,52,36)          0.0633         estimate D2E/DX2                !
 ! D373  D(34,51,52,53)       -137.4665         estimate D2E/DX2                !
 ! D374  D(54,51,52,36)        138.0868         estimate D2E/DX2                !
 ! D375  D(54,51,52,53)          0.557          estimate D2E/DX2                !
 ! D376  D(34,51,54,49)          4.5476         estimate D2E/DX2                !
 ! D377  D(34,51,54,56)        146.4757         estimate D2E/DX2                !
 ! D378  D(52,51,54,49)       -138.4316         estimate D2E/DX2                !
 ! D379  D(52,51,54,56)          3.4966         estimate D2E/DX2                !
 ! D380  D(36,52,53,37)         -1.3058         estimate D2E/DX2                !
 ! D381  D(36,52,53,55)       -146.4887         estimate D2E/DX2                !
 ! D382  D(51,52,53,37)        140.6269         estimate D2E/DX2                !
 ! D383  D(51,52,53,55)         -4.556          estimate D2E/DX2                !
 ! D384  D(37,53,55,56)       -136.4861         estimate D2E/DX2                !
 ! D385  D(37,53,55,60)          1.8626         estimate D2E/DX2                !
 ! D386  D(52,53,55,56)          4.557          estimate D2E/DX2                !
 ! D387  D(52,53,55,60)        142.9057         estimate D2E/DX2                !
 ! D388  D(49,54,56,55)        134.3286         estimate D2E/DX2                !
 ! D389  D(49,54,56,64)         -4.4379         estimate D2E/DX2                !
 ! D390  D(51,54,56,55)         -3.4981         estimate D2E/DX2                !
 ! D391  D(51,54,56,64)       -142.2646         estimate D2E/DX2                !
 ! D392  D(53,55,56,54)         -0.5905         estimate D2E/DX2                !
 ! D393  D(53,55,56,64)        142.9936         estimate D2E/DX2                !
 ! D394  D(60,55,56,54)       -142.5643         estimate D2E/DX2                !
 ! D395  D(60,55,56,64)          1.0199         estimate D2E/DX2                !
 ! D396  D(53,55,60,57)         -1.1755         estimate D2E/DX2                !
 ! D397  D(53,55,60,66)       -145.1503         estimate D2E/DX2                !
 ! D398  D(56,55,60,57)        141.783          estimate D2E/DX2                !
 ! D399  D(56,55,60,66)         -2.1918         estimate D2E/DX2                !
 ! D400  D(54,56,64,63)          2.0274         estimate D2E/DX2                !
 ! D401  D(54,56,64,66)        143.4376         estimate D2E/DX2                !
 ! D402  D(55,56,64,63)       -140.861          estimate D2E/DX2                !
 ! D403  D(55,56,64,66)          0.5492         estimate D2E/DX2                !
 ! D404  D(39,57,58,42)          0.2593         estimate D2E/DX2                !
 ! D405  D(39,57,58,59)       -145.5131         estimate D2E/DX2                !
 ! D406  D(60,57,58,42)        144.7578         estimate D2E/DX2                !
 ! D407  D(60,57,58,59)         -1.0146         estimate D2E/DX2                !
 ! D408  D(39,57,60,55)         -0.9714         estimate D2E/DX2                !
 ! D409  D(39,57,60,66)        138.0494         estimate D2E/DX2                !
 ! D410  D(58,57,60,55)       -140.6256         estimate D2E/DX2                !
 ! D411  D(58,57,60,66)         -1.6048         estimate D2E/DX2                !
 ! D412  D(42,58,59,43)         -0.0365         estimate D2E/DX2                !
 ! D413  D(42,58,59,65)       -138.1204         estimate D2E/DX2                !
 ! D414  D(57,58,59,43)        141.2435         estimate D2E/DX2                !
 ! D415  D(57,58,59,65)          3.1597         estimate D2E/DX2                !
 ! D416  D(43,59,65,61)         -2.2502         estimate D2E/DX2                !
 ! D417  D(43,59,65,66)       -144.528          estimate D2E/DX2                !
 ! D418  D(58,59,65,61)        139.5844         estimate D2E/DX2                !
 ! D419  D(58,59,65,66)         -2.6934         estimate D2E/DX2                !
 ! D420  D(55,60,66,64)          2.5384         estimate D2E/DX2                !
 ! D421  D(55,60,66,65)        145.3461         estimate D2E/DX2                !
 ! D422  D(57,60,66,64)       -140.7401         estimate D2E/DX2                !
 ! D423  D(57,60,66,65)          2.0675         estimate D2E/DX2                !
 ! D424  D(46,61,62,48)         -2.8396         estimate D2E/DX2                !
 ! D425  D(46,61,62,63)       -138.9345         estimate D2E/DX2                !
 ! D426  D(65,61,62,48)        133.2538         estimate D2E/DX2                !
 ! D427  D(65,61,62,63)         -2.8411         estimate D2E/DX2                !
 ! D428  D(46,61,65,59)          2.2125         estimate D2E/DX2                !
 ! D429  D(46,61,65,66)        144.4648         estimate D2E/DX2                !
 ! D430  D(62,61,65,59)       -139.583          estimate D2E/DX2                !
 ! D431  D(62,61,65,66)          2.6693         estimate D2E/DX2                !
[...]
 Alpha virt. eigenvalues --    1.19280   1.19505   1.20037   1.20330   1.20582
 Alpha virt. eigenvalues --    1.21197   1.21616   1.21985   1.22381   1.23202
 Alpha virt. eigenvalues --    1.23401   1.23630   1.24644   1.25118   1.25746
 Alpha virt. eigenvalues --    1.25789   1.26639   1.26722   1.26938   1.27035
 Alpha virt. eigenvalues --    1.27682   1.28503   1.29073   1.29227   1.29597
 Alpha virt. eigenvalues --    1.29933   1.30891   1.30996   1.31433   1.31739
 Alpha virt. eigenvalues --    1.32214   1.32338   1.32672   1.33082   1.33298
 Alpha virt. eigenvalues --    1.33730   1.34290   1.34658   1.34814   1.35203
 Alpha virt. eigenvalues --    1.35274   1.35631   1.35856   1.36145   1.36238
 Alpha virt. eigenvalues --    1.36772   1.37092   1.37687   1.38014   1.38288
 Alpha virt. eigenvalues --    1.38516   1.38862   1.39189   1.39660   1.39791
 Alpha virt. eigenvalues --    1.40460   1.40678   1.40810   1.40915   1.41303
 Alpha virt. eigenvalues --    1.41699   1.41961   1.42144   1.42309   1.42417
 Alpha virt. eigenvalues --    1.42727   1.42876   1.43149   1.43291   1.44004
 Alpha virt. eigenvalues --    1.44007   1.44353   1.44411   1.44575   1.45034
 Alpha virt. eigenvalues --    1.45258   1.45371   1.45689   1.45932   1.46033
 Alpha virt. eigenvalues --    1.46579   1.46727   1.46947   1.47198   1.47313
 Alpha virt. eigenvalues --    1.47445   1.47762   1.47940   1.48239   1.48391
 Alpha virt. eigenvalues --    1.48777   1.49114   1.49530   1.49883   1.50306
 Alpha virt. eigenvalues --    1.50624   1.50802   1.51075   1.51416   1.51613
 Alpha virt. eigenvalues --    1.52073   1.52105   1.52421   1.52886   1.53123
 Alpha virt. eigenvalues --    1.53559   1.53589   1.54013   1.54478   1.54638
 Alpha virt. eigenvalues --    1.54693   1.55071   1.55402   1.56249   1.56437
 Alpha virt. eigenvalues --    1.56771   1.57299   1.57387   1.57672   1.58317
 Alpha virt. eigenvalues --    1.58738   1.58925   1.59537   1.59778   1.60000
 Alpha virt. eigenvalues --    1.60560   1.61005   1.61356   1.61751   1.62433
 Alpha virt. eigenvalues --    1.62887   1.63177   1.63606   1.63902   1.64293
 Alpha virt. eigenvalues --    1.64362   1.64844   1.65298   1.65669   1.65957
 Alpha virt. eigenvalues --    1.66471   1.66950   1.67333   1.67554   1.67901
 Alpha virt. eigenvalues --    1.68446   1.68624   1.68736   1.69455   1.69493
 Alpha virt. eigenvalues --    1.69860   1.70666   1.70806   1.71275   1.71472
 Alpha virt. eigenvalues --    1.72002   1.72088   1.72586   1.72877   1.73269
 Alpha virt. eigenvalues --    1.73575   1.73778   1.74349   1.74749   1.74936
 Alpha virt. eigenvalues --    1.75477   1.75773   1.75992   1.76118   1.76550
 Alpha virt. eigenvalues --    1.77180   1.77472   1.78454   1.79168   1.79373
 Alpha virt. eigenvalues --    1.80025   1.80392   1.80675   1.80742   1.81080
 Alpha virt. eigenvalues --    1.81656   1.82476   1.82754   1.83084   1.83531
 Alpha virt. eigenvalues --    1.85051   1.85627   1.85827   1.85981   1.86244
 Alpha virt. eigenvalues --    1.86915   1.87241   1.88077   1.88413   1.88886
 Alpha virt. eigenvalues --    1.89785   1.90083   1.90454   1.91223   1.91265
 Alpha virt. eigenvalues --    1.91824   1.92157   1.93265   1.93489   1.93795
 Alpha virt. eigenvalues --    1.94066   1.94373   1.94996   1.95406   1.96518
 Alpha virt. eigenvalues --    1.96881   1.97283   1.97698   1.97925   1.98968
 Alpha virt. eigenvalues --    1.99341   1.99749   2.00085   2.00395   2.00985
 Alpha virt. eigenvalues --    2.01070   2.01423   2.01729   2.01869   2.02081
 Alpha virt. eigenvalues --    2.02583   2.03249   2.03503   2.04275   2.04716
 Alpha virt. eigenvalues --    2.05389   2.05723   2.06120   2.06353   2.07251
 Alpha virt. eigenvalues --    2.07418   2.07930   2.08029   2.08691   2.09066
 Alpha virt. eigenvalues --    2.09707   2.10159   2.10429   2.10730   2.11350
 Alpha virt. eigenvalues --    2.11460   2.12173   2.12691   2.12922   2.13023
 Alpha virt. eigenvalues --    2.13695   2.14240   2.14734   2.15006   2.15506
 Alpha virt. eigenvalues --    2.15766   2.16206   2.16716   2.17909   2.18189
 Alpha virt. eigenvalues --    2.18366   2.18709   2.18904   2.19692   2.20124
 Alpha virt. eigenvalues --    2.20698   2.20837   2.21321   2.22470   2.22532
 Alpha virt. eigenvalues --    2.22784   2.23033   2.23252   2.23778   2.24230
 Alpha virt. eigenvalues --    2.24350   2.24767   2.25347   2.25998   2.26113
 Alpha virt. eigenvalues --    2.26371   2.26855   2.27654   2.28004   2.28371
 Alpha virt. eigenvalues --    2.29098   2.29513   2.29786   2.30424   2.30861
 Alpha virt. eigenvalues --    2.31230   2.31489   2.31967   2.32306   2.32723
 Alpha virt. eigenvalues --    2.33019   2.33495   2.33592   2.34658   2.34824
 Alpha virt. eigenvalues --    2.35413   2.35928   2.36768   2.37215   2.37877
 Alpha virt. eigenvalues --    2.38040   2.38393   2.38830   2.39493   2.40019
 Alpha virt. eigenvalues --    2.40378   2.40601   2.40836   2.41107   2.41430
 Alpha virt. eigenvalues --    2.42126   2.42309   2.42962   2.43613   2.43791
 Alpha virt. eigenvalues --    2.44090   2.44558   2.44645   2.45213   2.45932
 Alpha virt. eigenvalues --    2.46209   2.46312   2.47026   2.47700   2.47899
 Alpha virt. eigenvalues --    2.48772   2.48859   2.49308   2.49963   2.50560
 Alpha virt. eigenvalues --    2.50640   2.51548   2.52417   2.52783   2.53798
 Alpha virt. eigenvalues --    2.54115   2.54271   2.54770   2.55143   2.55219
 Alpha virt. eigenvalues --    2.55676   2.55785   2.56335   2.57112   2.58214
 Alpha virt. eigenvalues --    2.58246   2.58712   2.58886   2.59624   2.59953
 Alpha virt. eigenvalues --    2.60602   2.61041   2.61727   2.62207   2.62764
 Alpha virt. eigenvalues --    2.63009   2.63196   2.64021   2.64750   2.65372
 Alpha virt. eigenvalues --    2.66115   2.66723   2.67941   2.68565   2.69128
 Alpha virt. eigenvalues --    2.69829   2.70183   2.70615   2.71826   2.72166
 Alpha virt. eigenvalues --    2.73814   2.74697   2.74887   2.75914   2.77893
 Alpha virt. eigenvalues --    2.77923   2.78521   2.79329   2.79740   2.80669
 Alpha virt. eigenvalues --    2.81191   2.81703   2.82139   2.82469   2.83217
 Alpha virt. eigenvalues --    2.84010   2.84556   2.86191   2.87094   2.87351
 Alpha virt. eigenvalues --    2.87790   2.89378   2.90404   2.91693   2.92153
 Alpha virt. eigenvalues --    2.92393   2.92978   2.93591   2.93884   2.94194
 Alpha virt. eigenvalues --    2.94744   2.95128   2.95340   2.95963   2.96715
 Alpha virt. eigenvalues --    2.97148   2.97807   2.97833   2.98156   2.98507
 Alpha virt. eigenvalues --    2.98673   2.99066   2.99640   3.00151   3.00423
 Alpha virt. eigenvalues --    3.00756   3.00951   3.01231   3.01703   3.02314
 Alpha virt. eigenvalues --    3.02861   3.03571   3.03906   3.04186   3.04503
 Alpha virt. eigenvalues --    3.04727   3.05182   3.05572   3.05660   3.06061
 Alpha virt. eigenvalues --    3.06649   3.07153   3.07345   3.07685   3.08358
 Alpha virt. eigenvalues --    3.09005   3.09304   3.09436   3.09660   3.10098
 Alpha virt. eigenvalues --    3.10239   3.10660   3.11310   3.11512   3.11642
 Alpha virt. eigenvalues --    3.11912   3.12193   3.12464   3.12752   3.12996
 Alpha virt. eigenvalues --    3.13175   3.13877   3.14073   3.15022   3.15329
 Alpha virt. eigenvalues --    3.16222   3.16559   3.16620   3.16772   3.17288
 Alpha virt. eigenvalues --    3.17882   3.18141   3.19052   3.19348   3.19702
 Alpha virt. eigenvalues --    3.20077   3.21106   3.21624   3.22545   3.23643
 Alpha virt. eigenvalues --    3.24601   3.25433   3.26849   3.28506   3.31068
 Alpha virt. eigenvalues --    3.31756   3.35980   3.36297   3.39902   3.40136
 Alpha virt. eigenvalues --    3.41418   3.41953   3.43635   3.44095   3.45889
 Alpha virt. eigenvalues --    3.46293   3.46915   3.47716   3.48992   3.50737
 Alpha virt. eigenvalues --    3.51473   3.51623   3.53003   3.53572   3.54244
 Alpha virt. eigenvalues --    3.55741   3.56961   3.58143   3.59011   3.60118
 Alpha virt. eigenvalues --    3.60977   3.61325   3.62589   3.62958   3.63741
 Alpha virt. eigenvalues --    3.65769   3.66361   3.67210   3.68777   3.69190
 Alpha virt. eigenvalues --    3.69657   3.70800   3.71359   3.71957   3.73307
 Alpha virt. eigenvalues --    3.74675   3.75360   3.76324   3.78133   3.80339
 Alpha virt. eigenvalues --    3.80839   3.82238   3.82979   3.83681   3.83952
 Alpha virt. eigenvalues --    3.85193   3.86485   3.86703   3.87616   3.87722
 Alpha virt. eigenvalues --    3.87963   3.88801   3.89062   3.89246   3.89792
 Alpha virt. eigenvalues --    3.91343   3.93026   3.94961   4.02679   4.06299
 Alpha virt. eigenvalues --    4.18141   4.21371   4.21492   4.23062   4.26075
 Alpha virt. eigenvalues --    4.27680   4.31744   4.34080   4.35090   4.36064
 Alpha virt. eigenvalues --    4.37710   4.39452   4.43017   4.45465   4.47579
 Alpha virt. eigenvalues --    4.50199   4.52425   4.54451   4.59517   4.61967
 Alpha virt. eigenvalues --    4.63234   4.65056   4.70013   4.73507   4.77960
 Alpha virt. eigenvalues --    4.79095   4.80492   4.86673   4.89173   4.93842
 Alpha virt. eigenvalues --    4.96248   4.99798   5.02187   5.04133   9.53133
 Alpha virt. eigenvalues --    9.54398   9.58368   9.61699   9.64189   9.66703
 Alpha virt. eigenvalues --    9.68974   9.72103  23.00131  23.20222  23.22071
 Alpha virt. eigenvalues --   23.23205  23.40429  23.45291  23.47003  23.50072
 Alpha virt. eigenvalues --   23.53507  23.61604  23.64822  23.65627  23.66739
 Alpha virt. eigenvalues --   23.67469  23.69348  23.70328  23.72125  23.73213
 Alpha virt. eigenvalues --   23.74405  23.77416  23.78108  23.79697  23.80081
 Alpha virt. eigenvalues --   23.81711  23.81858  23.83360  23.85609  23.86717
 Alpha virt. eigenvalues --   23.88178  23.89986  23.90810  23.91611  23.92909
 Alpha virt. eigenvalues --   23.93290  23.94523  23.95213  23.95779  23.95946
 Alpha virt. eigenvalues --   23.96555  23.96826  23.98128  23.98414  23.98792
 Alpha virt. eigenvalues --   23.99406  24.00698  24.00947  24.02412  24.02810
 Alpha virt. eigenvalues --   24.03752  24.05394  24.06338  24.06700  24.07929
 Alpha virt. eigenvalues --   24.08203  24.08265  24.08792  24.08989  24.09620
 Alpha virt. eigenvalues --   24.09905  24.10511  24.11156  24.12258  24.13759
 Alpha virt. eigenvalues --   24.14178  24.15022  24.18335  25.53081  25.54698
 Alpha virt. eigenvalues --   25.58961  25.65326  25.67986  25.69975  25.71826
 Alpha virt. eigenvalues --   25.74945  25.78608  25.82680  25.84825  25.86092
 Alpha virt. eigenvalues --   25.87866  25.92355  25.96485  26.02160  26.16284
 Alpha virt. eigenvalues --   26.21391  26.25777  26.34932  26.39328  26.44379
 Alpha virt. eigenvalues --   26.58277  26.68315 215.48185 215.49499 215.54136
 Alpha virt. eigenvalues --  215.57925 215.60743 215.63696 215.66109 215.69677
          Condensed to atoms (all electrons):
 Mulliken charges:
               1
     1  C   -0.266153
     2  C   -0.266876
     3  C   -0.457002
     4  C    0.119120
     5  C    0.246027
     6  C    0.067121
     7  C   -0.519979
     8  C    0.205199
     9  C    0.184200
    10  C    0.045487
    11  C    0.078327
    12  C    0.174305
    13  C    0.066084
    14  C    0.154411
    15  C    0.161657
    16  C   -0.650829
    17  C    0.087378
    18  C    0.027915
    19  C    0.132870
    20  C    0.239526
    21  C    0.133573
    22  C    0.188292
    23  C   -0.663400
    24  C    0.034240
    25  C   -0.010556
    26  C    0.002664
    27  C    0.018378
    28  C    0.005813
    29  C    0.046309
    30  C    0.034556
    31  C   -0.008634
    32  C    0.146079
    33  C    0.047181
    34  C    0.020710
    35  C   -0.650118
    36  C    0.137515
    37  C    0.185688
    38  C   -0.683180
    39  C    0.179197
    40  C    0.164532
    41  C    0.040805
    42  C    0.179509
    43  C    0.001581
    44  C    0.000510
    45  C   -0.003594
    46  C    0.004230
    47  C   -0.003556
    48  C    0.001285
    49  C   -0.005946
    50  C   -0.000840
    51  C   -0.000683
    52  C    0.044061
    53  C    0.025526
    54  C    0.007954
    55  C   -0.000219
    56  C    0.000339
    57  C    0.033921
    58  C    0.036270
    59  C    0.002212
    60  C    0.002483
    61  C    0.004025
    62  C    0.001396
    63  C    0.001116
    64  C    0.005880
    65  C    0.002401
    66  C    0.000035
    67  Cl   0.077550
    68  Cl   0.067540
    69  Cl   0.066591
    70  Cl   0.036520
    71  Cl   0.088243
    72  Cl   0.052947
    73  Cl   0.044347
    74  Cl   0.027932
 Sum of Mulliken charges =  -0.00000
 Mulliken charges with hydrogens summed into heavy atoms:
               1
     1  C   -0.266153
     2  C   -0.266876
     3  C   -0.457002
     4  C    0.119120
     5  C    0.246027
     6  C    0.067121
     7  C   -0.519979
     8  C    0.205199
     9  C    0.184200
    10  C    0.045487
    11  C    0.078327
    12  C    0.174305
    13  C    0.066084
    14  C    0.154411
    15  C    0.161657
    16  C   -0.650829
    17  C    0.087378
    18  C    0.027915
    19  C    0.132870
    20  C    0.239526
    21  C    0.133573
    22  C    0.188292
    23  C   -0.663400
    24  C    0.034240
    25  C   -0.010556
    26  C    0.002664
    27  C    0.018378
    28  C    0.005813
    29  C    0.046309
    30  C    0.034556
    31  C   -0.008634
    32  C    0.146079
    33  C    0.047181
    34  C    0.020710
    35  C   -0.650118
    36  C    0.137515
    37  C    0.185688
    38  C   -0.683180
    39  C    0.179197
    40  C    0.164532
    41  C    0.040805
    42  C    0.179509
    43  C    0.001581
    44  C    0.000510
    45  C   -0.003594
    46  C    0.004230
    47  C   -0.003556
    48  C    0.001285
    49  C   -0.005946
    50  C   -0.000840
    51  C   -0.000683
    52  C    0.044061
    53  C    0.025526
    54  C    0.007954
    55  C   -0.000219
    56  C    0.000339
    57  C    0.033921
    58  C    0.036270
    59  C    0.002212
    60  C    0.002483
    61  C    0.004025
    62  C    0.001396
    63  C    0.001116
    64  C    0.005880
    65  C    0.002401
    66  C    0.000035
    67  Cl   0.077550
    68  Cl   0.067540
    69  Cl   0.066591
    70  Cl   0.036520
    71  Cl   0.088243
    72  Cl   0.052947
    73  Cl   0.044347
    74  Cl   0.027932
 Electronic spatial extent (au):  <R**2>=          36346.9458
 Charge=             -0.0000 electrons
 Dipole moment (field-independent basis, Debye):
    X=              3.1868    Y=             -1.9461    Z=             -3.2249  Tot=              4.9339
 Quadrupole moment (field-independent basis, Debye-Ang):
   XX=           -484.0268   YY=           -488.1929   ZZ=           -477.4347
   XY=             -5.6674   XZ=             -5.1272   YZ=             -2.2669
 Traceless Quadrupole moment (field-independent basis, Debye-Ang):
   XX=             -0.8087   YY=             -4.9748   ZZ=              5.7834
   XY=             -5.6674   XZ=             -5.1272   YZ=             -2.2669
 Octapole moment (field-independent basis, Debye-Ang**2):
  XXX=            -52.8682  YYY=             39.7990  ZZZ=             17.1207  XYY=            -22.7908
  XXY=             15.4566  XXZ=             10.8260  XZZ=            -64.8445  YZZ=             20.0364
  YYZ=             -0.4304  XYZ=            -19.4808
 Hexadecapole moment (field-independent basis, Debye-Ang**3):
 XXXX=         -22700.0702 YYYY=         -16935.6571 ZZZZ=         -13402.1818 XXXY=             39.8803
 XXXZ=             78.2144 YYYX=            -37.8147 YYYZ=             70.3928 ZZZX=             25.5384
 ZZZY=             41.8068 XXYY=          -6598.4341 XXZZ=          -5999.1453 YYZZ=          -5009.1307
 XXYZ=             -3.7001 YYXZ=             36.4697 ZZXY=             -4.7310
 N-N= 1.528184479791D+04 E-N=-4.514014727172D+04  KE= 6.178389590415D+03
 No NMR shielding tensors so no spin-rotation constants.
 Leave Link  601 at Sat Jul 16 02:59:07 2022, MaxMem=  1342177280 cpu:              66.7 elap:               1.7
 (Enter /home/mkliu/g16/l9999.exe)
 1\1\GINC-NODE01\FOpt\RB3LYP\6-311G(d,p)\C66Cl8\MKLIU\16-Jul-2022\0\\#P
  opt b3lyp/6-311G(d, p) empiricaldispersion=GD3\\force\\0,1\C,-1.32905
 30172,1.8953405955,-3.9943529646\C,0.2080839112,2.2506146244,-3.989143
 062\C,0.9850849164,0.8739875826,-4.3295626279\C,-1.2823617418,0.414952
 7015,-3.8860514108\C,-0.0801153976,-0.1624519052,-4.1762126398\C,-2.14
 81910249,-0.1140816922,-2.9166193542\C,-2.2131246944,2.3033865446,-2.7
 02919266\C,-2.688538298,0.9365962104,-2.1529883041\C,-1.4618346585,2.9
 638853108,-1.5499265747\C,0.7213914187,2.5618694463,-2.6219582025\C,-0
 .0343052741,3.1808826179,-1.5990552862\C,1.9263187932,0.6697926215,-3.
 1418398678\C,1.8708680035,1.8338877027,-2.3067192188\C,2.2684155257,-0
 .5421230374,-2.6002822\C,0.1943124403,-1.4218942121,-3.6433325542\C,1.
 6032853648,-1.8032470637,-3.18841517\C,-1.9219100534,-1.3998999722,-2.
 3766485415\C,-0.7622092945,-2.0839346754,-2.8761461655\C,-2.4315224098
 ,-1.6748460089,-1.0660496841\C,-3.0772825183,0.702936005,-0.8506373627
 \C,-3.0049101265,-0.6334937646,-0.3193652585\C,-2.076194317,2.91834038
 67,-0.3155973133\C,-3.2061386022,1.9290846682,0.0434903769\C,-1.374136
 9628,3.2548237265,0.8826479065\C,0.6666960638,3.4280379268,-0.39726730
 07\C,-0.0198916665,3.5706694219,0.8512998205\C,2.4516179983,1.85238525
 4,-1.0109330436\C,1.9427422257,2.8226643324,-0.127766535\C,2.907461965
 8,-0.5908767572,-1.2758110069\C,3.0661799514,0.6412848248,-0.504039346
 6\C,2.9473073194,-1.8134423594,-0.5756188153\C,1.3002646996,-2.8212237
 561,-2.1103247684\C,-0.102375637,-3.0576099844,-2.0276124999\C,2.05771
 28107,-2.9177192793,-0.9748992075\C,-2.0832532851,-3.0267222862,-0.441
 6604347\C,-0.6950984726,-3.4925061531,-0.8687795602\C,-1.920246137,-2.
 9328339805,1.0608452219\C,-3.3661520739,-0.8588446349,1.1533338045\C,-
 2.5129737873,-1.9456534958,1.7888570675\C,-2.8902107525,1.6056400983,1
 .4846576214\C,-1.903447534,2.5048388262,1.9973430828\C,-3.0025325887,0
 .350166653,2.0010879213\C,-1.0769099343,2.1345420094,3.0582638873\C,0.
 8527335118,3.1309906032,1.9187301593\C,2.0754818706,2.6713129626,1.297
 0281915\C,0.3402955189,2.4501378841,3.0162333952\C,3.2800311645,0.5645
 586973,0.8961094432\C,2.7507570935,1.574322847,1.7994059769\C,3.039756
 1419,-1.8536084983,0.8524800315\C,3.2342423051,-0.6870267337,1.5835673
 43\C,1.4929719295,-3.4820289169,0.2175907601\C,0.1148263639,-3.7522556
 768,0.265209108\C,-0.6416596493,-3.4497814602,1.4584166587\C,2.1334894
 724,-2.8735397655,1.3580018272\C,0.0073803539,-2.9563594747,2.59038407
 79\C,1.4282855638,-2.6550155596,2.5345338088\C,-1.8732599697,-1.449008
 8612,2.9713031688\C,-2.1722241826,-0.0447635105,3.1014348617\C,-1.2255
 750504,0.8294712223,3.6398118856\C,-0.6321653473,-1.9438485263,3.38044
 69929\C,1.0644251923,1.3267299823,3.5751378629\C,2.2687152862,0.912036
 2819,2.9931234723\C,2.5659156126,-0.4939460688,2.859394797\C,1.6552370
 466,-1.4480970537,3.3108983828\C,0.0951298878,0.3332115344,3.989538480
 1\C,0.3851349638,-1.0222073855,3.8594550519\Cl,-2.1074432911,2.2997055
 465,-5.5797047258\Cl,0.6508779115,3.6671905161,-5.0214470886\Cl,1.8601
 78717,0.8198431731,-5.9052464731\Cl,2.6330921849,-2.5500620744,-4.5232
 22131\Cl,-3.6045302252,3.3960269835,-3.1351582076\Cl,-4.9051922887,2.6
 445607591,-0.037945064\Cl,-5.169276364,-1.2526465005,1.2585193403\Cl,-
 3.3927509504,-4.2563456401,-0.909719245\\Version=ES64L-G16RevA.03\Stat
 e=1-A\HF=-6197.2437395\RMSD=9.187e-09\RMSF=4.627e-05\Dipole=1.2059538,
 0.0911032,1.5183431\Quadrupole=-3.9258436,2.2286857,1.697158,0.6404003
 ,5.9677284,1.9331485\PG=C01 [X(C66Cl8)]\\@


 Everything starts as somebody's daydream.
                           -- Larry Niven
 Job cpu time:       2 days 18 hours 40 minutes  3.3 seconds.
 Elapsed time:       0 days  1 hours 23 minutes 31.8 seconds.
 File lengths (MBytes):  RWF=   1193 Int=      0 D2E=      0 Chk=    145 Scr=      1
 Normal termination of Gaussian 16 at Sat Jul 16 02:59:07 2022.
