 Entering Gaussian System, Link 0=g16
 Input=dr22srs8zlkw0_addon_9.gjf
 Output=dr22srs8zlkw0_addon_9.log
 Initial command:
 /home/mkliu/g16/l1.exe "/data/scratch/Gau-45059.inp" -scrdir="/data/scratch/"
 Entering Link 1 = /home/mkliu/g16/l1.exe PID=     45060.
  
 Copyright (c) 1988,1990,1992,1993,1995,1998,2003,2009,2016,
            Gaussian, Inc.  All Rights Reserved.
  
 This is part of the Gaussian(R) 16 program.  It is based on
 the Gaussian(R) 09 system (copyright 2009, Gaussian, Inc.),
 the Gaussian(R) 03 system (copyright 2003, Gaussian, Inc.),
 the Gaussian(R) 98 system (copyright 1998, Gaussian, Inc.),
 the Gaussian(R) 94 system (copyright 1995, Gaussian, Inc.),
 the Gaussian 92(TM) system (copyright 1992, Gaussian, Inc.),
 the Gaussian 90(TM) system (copyright 1990, Gaussian, Inc.),
 the Gaussian 88(TM) system (copyright 1988, Gaussian, Inc.),
 the Gaussian 86(TM) system (copyright 1986, Carnegie Mellon
 University), and the Gaussian 82(TM) system (copyright 1983,
 Carnegie Mellon University). Gaussian is a federally registered
 trademark of Gaussian, Inc.
  
 This software contains proprietary and confidential information,
 including trade secrets, belonging to Gaussian, Inc.
  
 This software is provided under written license and may be
 used, copied, transmitted, or stored only in accord with that
 written license.
  
 The following legend is applicable only to US Government
 contracts under FAR:
  
                    RESTRICTED RIGHTS LEGEND
  
 Use, reproduction and disclosure by the US Government is
 subject to restrictions as set forth in subparagraphs (a)
 and (c) of the Commercial Computer Software - Restricted
 Rights clause in FAR 52.227-19.
  
 Gaussian, Inc.
 340 Quinnipiac St., Bldg. 40, Wallingford CT 06492
  
  
 ---------------------------------------------------------------
 Warning -- This program may not be used in any manner that
 competes with the business of Gaussian, Inc. or will provide
 assistance to any competitor of Gaussian, Inc.  The licensee
 of this program is prohibited from giving any competitor of
 Gaussian, Inc. access to this program.  By using this program,
 the user acknowledges that Gaussian, Inc. is engaged in the
 business of creating and licensing software in the field of
 computational chemistry and represents and warrants to the
 licensee that it is not a competitor of Gaussian, Inc. and that
 it will not use this program in any manner prohibited above.
 ---------------------------------------------------------------
  

 Cite this work as:
 Gaussian 16, Revision A.03,
 M. J. Frisch, G. W. Trucks, H. B. Schlegel, G. E. Scuseria, 
 M. A. Robb, J. R. Cheeseman, G. Scalmani, V. Barone, 
 G. A. Petersson, H. Nakatsuji, X. Li, M. Caricato, A. V. Marenich, 
 J. Bloino, B. G. Janesko, R. Gomperts, B. Mennucci, H. P. Hratchian, 
 J. V. Ortiz, A. F. Izmaylov, J. L. Sonnenberg, D. Williams-Young, 
 F. Ding, F. Lipparini, F. Egidi, J. Goings, B. Peng, A. Petrone, 
 T. Henderson, D. Ranasinghe, V. G. Zakrzewski, J. Gao, N. Rega, 
 G. Zheng, W. Liang, M. Hada, M. Ehara, K. Toyota, R. Fukuda, 
 J. Hasegawa, M. Ishida, T. Nakajima, Y. Honda, O. Kitao, H. Nakai, 
 T. Vreven, K. Throssell, J. A. Montgomery, Jr., J. E. Peralta, 
 F. Ogliaro, M. J. Bearpark, J. J. Heyd, E. N. Brothers, K. N. Kudin, 
 V. N. Staroverov, T. A. Keith, R. Kobayashi, J. Normand, 
 K. Raghavachari, A. P. Rendell, J. C. Burant, S. S. Iyengar, 
 J. Tomasi, M. Cossi, J. M. Millam, M. Klene, C. Adamo, R. Cammi, 
 J. W. Ochterski, R. L. Martin, K. Morokuma, O. Farkas, 
 J. B. Foresman, and D. J. Fox, Gaussian, Inc., Wallingford CT, 2016.
 
 ******************************************
 Gaussian 16:  ES64L-G16RevA.03 25-Dec-2016
                16-Jul-2022 
 ******************************************
 %mem=10GB
 %chk=dr22srs8zlkw0_addon_9.chk
 %nprocshared=48
 Will use up to   48 processors via shared memory.
 -------------------------------------------------
 #P opt b3lyp/6-311G(d, p) empiricaldispersion=GD3
 -------------------------------------------------
 1/18=20,19=15,26=3,38=1/1,3;
 2/9=110,12=2,17=6,18=5,40=1/2;
 3/5=4,6=6,7=101,11=2,25=1,30=1,71=1,74=-5,124=31/1,2,3;
 4//1;
 5/5=2,38=5/2;
 6/7=2,8=2,9=2,10=2,28=1/1;
 7//1,2,3,16;
 1/18=20,19=15,26=3/3(2);
 2/9=110/2;
 99//99;
 2/9=110/2;
 3/5=4,6=6,7=101,11=2,25=1,30=1,71=1,74=-5,124=31/1,2,3;
 4/5=5,16=3,69=1/1;
 5/5=2,38=5/2;
 7//1,2,3,16;
 1/18=20,19=15,26=3/3(-5);
 2/9=110/2;
 6/7=2,8=2,9=2,10=2,19=2,28=1/1;
 99/9=1/99;
 Leave Link    1 at Sat Jul 16 06:23:10 2022, MaxMem=  1342177280 cpu:               2.2 elap:               0.1
 (Enter /home/mkliu/g16/l101.exe)
 -----
 force
 -----
 Symbolic Z-matrix:
 Charge =  0 Multiplicity = 2
 C                    -1.3135    1.88808  -3.9421 
 C                     0.20945   2.22904  -3.95309 
 C                     0.997     0.92569  -4.35127 
 C                    -1.23266   0.40986  -3.82341 
 C                    -0.03744  -0.11087  -4.10861 
 C                    -2.09857  -0.12098  -2.82648 
 C                    -2.18554   2.26417  -2.70316 
 C                    -2.64272   0.92688  -2.10608 
 C                    -1.47053   2.89487  -1.53981 
 C                     0.70903   2.48015  -2.591 
 C                    -0.05543   3.10396  -1.57276 
 C                     2.17651   0.75468  -3.31026 
 C                     1.84587   1.78989  -2.29164 
 C                     2.28082  -0.5741   -2.58337 
 C                     0.26476  -1.49815  -3.79184 
 C                     1.51239  -1.64043  -2.94493 
 C                    -1.87032  -1.39975  -2.30895 
 C                    -0.76796  -2.11434  -2.87061 
 C                    -2.41798  -1.65651  -1.01977 
 C                    -3.07281   0.6932   -0.81221 
 C                    -2.99669  -0.62014  -0.27707 
 C                    -2.08946   2.84141  -0.31663 
 C                    -3.23684   1.91672   0.0541 
 C                    -1.38121   3.19509   0.87642 
 C                     0.63744   3.32407  -0.40127 
 C                    -0.03665   3.48467   0.83915 
 C                     2.44561   1.81139  -1.0113 
 C                     1.90866   2.73627  -0.13319 
 C                     2.95491  -0.59746  -1.28642 
 C                     3.09503   0.61921  -0.51598 
 C                     2.91307  -1.79008  -0.55675 
 C                     1.28423  -2.74382  -2.06179 
 C                    -0.13303  -3.03496  -2.02269 
 C                     2.03522  -2.8621   -0.92981 
 C                    -2.10166  -3.00649  -0.40572 
 C                    -0.72685  -3.46072  -0.8368 
 C                    -1.92846  -2.89928   1.07923 
 C                    -3.38745  -0.85497   1.17087 
 C                    -2.52965  -1.91935   1.79811 
 C                    -2.92224   1.60126   1.48495 
 C                    -1.91172   2.47197   1.98428 
 C                    -3.02012   0.34742   1.99723 
 C                    -1.06659   2.10445   3.01791 
 C                     0.84334   3.08141   1.89286 
 C                     2.05664   2.6147    1.27543 
 C                     0.33844   2.41282   2.98513 
 C                     3.27231   0.54572   0.87456 
 C                     2.74963   1.53995   1.77245 
 C                     3.02514  -1.84705   0.86427 
 C                     3.22435  -0.69659   1.58126 
 C                     1.46969  -3.44873   0.24582 
 C                     0.09423  -3.71409   0.27451 
 C                    -0.65409  -3.40053   1.46617 
 C                     2.11594  -2.85889   1.36438 
 C                     0.00619  -2.90061   2.56901 
 C                     1.4159   -2.61909   2.53427 
 C                    -1.87345  -1.42611   2.96706 
 C                    -2.17059  -0.03696   3.08521 
 C                    -1.20957   0.81618   3.5976 
 C                    -0.6297   -1.89669   3.35147 
 C                     1.07958   1.31438   3.54049 
 C                     2.27506   0.89995   2.9699 
 C                     2.57383  -0.49142   2.85283 
 C                     1.66147  -1.4309    3.2977 
 C                     0.1053    0.33969   3.94929 
 C                     0.39099  -1.0049    3.82886 
 Cl                   -2.04036   2.34438  -5.51278 
 Cl                    0.5442    3.66721  -4.94822 
 Cl                    1.53254   0.86821  -6.03614 
 Cl                    3.78529   1.09028  -4.06156 
 Cl                   -3.60267   3.27672  -3.13824 
 Cl                   -4.88473   2.60813  -0.16144 
 Cl                   -5.14992  -1.2534    1.20459 
 Cl                   -3.44598  -4.13628  -0.86975 
 Cl                    0.52206  -2.42797  -5.35307 
 
 ITRead=  0  0  0  0  0  0  0  0  0  0  0  0  0  0  0  0  0  0  0  0
 ITRead=  0  0  0  0  0  0  0  0  0  0  0  0  0  0  0  0  0  0  0  0
 ITRead=  0  0  0  0  0  0  0  0  0  0  0  0  0  0  0  0  0  0  0  0
 ITRead=  0  0  0  0  0  0  0  0  0  0  0  0  0  0  0
 MicOpt= -1 -1 -1 -1 -1 -1 -1 -1 -1 -1 -1 -1 -1 -1 -1 -1 -1 -1 -1 -1
 MicOpt= -1 -1 -1 -1 -1 -1 -1 -1 -1 -1 -1 -1 -1 -1 -1 -1 -1 -1 -1 -1
 MicOpt= -1 -1 -1 -1 -1 -1 -1 -1 -1 -1 -1 -1 -1 -1 -1 -1 -1 -1 -1 -1
 MicOpt= -1 -1 -1 -1 -1 -1 -1 -1 -1 -1 -1 -1 -1 -1 -1
 NAtoms=     75 NQM=       75 NQMF=       0 NMMI=      0 NMMIF=      0
                NMic=       0 NMicF=      0.
                    Isotopes and Nuclear Properties:
 (Nuclear quadrupole moments (NQMom) in fm**2, nuclear magnetic moments (NMagM)
  in nuclear magnetons)

  Atom         1           2           3           4           5           6           7           8           9          10
 IAtWgt=          12          12          12          12          12          12          12          12          12          12
 AtmWgt=  12.0000000  12.0000000  12.0000000  12.0000000  12.0000000  12.0000000  12.0000000  12.0000000  12.0000000  12.0000000
 NucSpn=           0           0           0           0           0           0           0           0           0           0
 AtZEff=  -0.0000000  -0.0000000  -0.0000000  -0.0000000  -0.0000000  -0.0000000  -0.0000000  -0.0000000  -0.0000000  -0.0000000
 NQMom=    0.0000000   0.0000000   0.0000000   0.0000000   0.0000000   0.0000000   0.0000000   0.0000000   0.0000000   0.0000000
 NMagM=    0.0000000   0.0000000   0.0000000   0.0000000   0.0000000   0.0000000   0.0000000   0.0000000   0.0000000   0.0000000
 AtZNuc=   6.0000000   6.0000000   6.0000000   6.0000000   6.0000000   6.0000000   6.0000000   6.0000000   6.0000000   6.0000000

  Atom        11          12          13          14          15          16          17          18          19          20
 IAtWgt=          12          12          12          12          12          12          12          12          12          12
 AtmWgt=  12.0000000  12.0000000  12.0000000  12.0000000  12.0000000  12.0000000  12.0000000  12.0000000  12.0000000  12.0000000
 NucSpn=           0           0           0           0           0           0           0           0           0           0
 AtZEff=  -0.0000000  -0.0000000  -0.0000000  -0.0000000  -0.0000000  -0.0000000  -0.0000000  -0.0000000  -0.0000000  -0.0000000
 NQMom=    0.0000000   0.0000000   0.0000000   0.0000000   0.0000000   0.0000000   0.0000000   0.0000000   0.0000000   0.0000000
 NMagM=    0.0000000   0.0000000   0.0000000   0.0000000   0.0000000   0.0000000   0.0000000   0.0000000   0.0000000   0.0000000
 AtZNuc=   6.0000000   6.0000000   6.0000000   6.0000000   6.0000000   6.0000000   6.0000000   6.0000000   6.0000000   6.0000000

  Atom        21          22          23          24          25          26          27          28          29          30
 IAtWgt=          12          12          12          12          12          12          12          12          12          12
 AtmWgt=  12.0000000  12.0000000  12.0000000  12.0000000  12.0000000  12.0000000  12.0000000  12.0000000  12.0000000  12.0000000
 NucSpn=           0           0           0           0           0           0           0           0           0           0
 AtZEff=  -0.0000000  -0.0000000  -0.0000000  -0.0000000  -0.0000000  -0.0000000  -0.0000000  -0.0000000  -0.0000000  -0.0000000
 NQMom=    0.0000000   0.0000000   0.0000000   0.0000000   0.0000000   0.0000000   0.0000000   0.0000000   0.0000000   0.0000000
 NMagM=    0.0000000   0.0000000   0.0000000   0.0000000   0.0000000   0.0000000   0.0000000   0.0000000   0.0000000   0.0000000
 AtZNuc=   6.0000000   6.0000000   6.0000000   6.0000000   6.0000000   6.0000000   6.0000000   6.0000000   6.0000000   6.0000000

  Atom        31          32          33          34          35          36          37          38          39          40
 IAtWgt=          12          12          12          12          12          12          12          12          12          12
 AtmWgt=  12.0000000  12.0000000  12.0000000  12.0000000  12.0000000  12.0000000  12.0000000  12.0000000  12.0000000  12.0000000
 NucSpn=           0           0           0           0           0           0           0           0           0           0
 AtZEff=  -0.0000000  -0.0000000  -0.0000000  -0.0000000  -0.0000000  -0.0000000  -0.0000000  -0.0000000  -0.0000000  -0.0000000
 NQMom=    0.0000000   0.0000000   0.0000000   0.0000000   0.0000000   0.0000000   0.0000000   0.0000000   0.0000000   0.0000000
 NMagM=    0.0000000   0.0000000   0.0000000   0.0000000   0.0000000   0.0000000   0.0000000   0.0000000   0.0000000   0.0000000
 AtZNuc=   6.0000000   6.0000000   6.0000000   6.0000000   6.0000000   6.0000000   6.0000000   6.0000000   6.0000000   6.0000000

  Atom        41          42          43          44          45          46          47          48          49          50
 IAtWgt=          12          12          12          12          12          12          12          12          12          12
 AtmWgt=  12.0000000  12.0000000  12.0000000  12.0000000  12.0000000  12.0000000  12.0000000  12.0000000  12.0000000  12.0000000
 NucSpn=           0           0           0           0           0           0           0           0           0           0
 AtZEff=  -0.0000000  -0.0000000  -0.0000000  -0.0000000  -0.0000000  -0.0000000  -0.0000000  -0.0000000  -0.0000000  -0.0000000
 NQMom=    0.0000000   0.0000000   0.0000000   0.0000000   0.0000000   0.0000000   0.0000000   0.0000000   0.0000000   0.0000000
 NMagM=    0.0000000   0.0000000   0.0000000   0.0000000   0.0000000   0.0000000   0.0000000   0.0000000   0.0000000   0.0000000
 AtZNuc=   6.0000000   6.0000000   6.0000000   6.0000000   6.0000000   6.0000000   6.0000000   6.0000000   6.0000000   6.0000000

  Atom        51          52          53          54          55          56          57          58          59          60
 IAtWgt=          12          12          12          12          12          12          12          12          12          12
 AtmWgt=  12.0000000  12.0000000  12.0000000  12.0000000  12.0000000  12.0000000  12.0000000  12.0000000  12.0000000  12.0000000
 NucSpn=           0           0           0           0           0           0           0           0           0           0
 AtZEff=  -0.0000000  -0.0000000  -0.0000000  -0.0000000  -0.0000000  -0.0000000  -0.0000000  -0.0000000  -0.0000000  -0.0000000
 NQMom=    0.0000000   0.0000000   0.0000000   0.0000000   0.0000000   0.0000000   0.0000000   0.0000000   0.0000000   0.0000000
 NMagM=    0.0000000   0.0000000   0.0000000   0.0000000   0.0000000   0.0000000   0.0000000   0.0000000   0.0000000   0.0000000
 AtZNuc=   6.0000000   6.0000000   6.0000000   6.0000000   6.0000000   6.0000000   6.0000000   6.0000000   6.0000000   6.0000000

  Atom        61          62          63          64          65          66          67          68          69          70
 IAtWgt=          12          12          12          12          12          12          35          35          35          35
 AtmWgt=  12.0000000  12.0000000  12.0000000  12.0000000  12.0000000  12.0000000  34.9688527  34.9688527  34.9688527  34.9688527
 NucSpn=           0           0           0           0           0           0           3           3           3           3
 AtZEff=  -0.0000000  -0.0000000  -0.0000000  -0.0000000  -0.0000000  -0.0000000  -0.0000000  -0.0000000  -0.0000000  -0.0000000
 NQMom=    0.0000000   0.0000000   0.0000000   0.0000000   0.0000000   0.0000000  -8.1650000  -8.1650000  -8.1650000  -8.1650000
 NMagM=    0.0000000   0.0000000   0.0000000   0.0000000   0.0000000   0.0000000   0.8218740   0.8218740   0.8218740   0.8218740
 AtZNuc=   6.0000000   6.0000000   6.0000000   6.0000000   6.0000000   6.0000000  17.0000000  17.0000000  17.0000000  17.0000000

  Atom        71          72          73          74          75
 IAtWgt=          35          35          35          35          35
 AtmWgt=  34.9688527  34.9688527  34.9688527  34.9688527  34.9688527
 NucSpn=           3           3           3           3           3
 AtZEff=  -0.0000000  -0.0000000  -0.0000000  -0.0000000  -0.0000000
 NQMom=   -8.1650000  -8.1650000  -8.1650000  -8.1650000  -8.1650000
 NMagM=    0.8218740   0.8218740   0.8218740   0.8218740   0.8218740
 AtZNuc=  17.0000000  17.0000000  17.0000000  17.0000000  17.0000000
 Leave Link  101 at Sat Jul 16 06:23:11 2022, MaxMem=  1342177280 cpu:              13.7 elap:               0.3
 (Enter /home/mkliu/g16/l103.exe)

 GradGradGradGradGradGradGradGradGradGradGradGradGradGradGradGradGradGrad
 Berny optimization.
 Initialization pass.
                           ----------------------------
                           !    Initial Parameters    !
                           ! (Angstroms and Degrees)  !
 --------------------------                            --------------------------
 ! Name  Definition              Value          Derivative Info.                !
 --------------------------------------------------------------------------------
 ! R1    R(1,2)                  1.5607         estimate D2E/DX2                !
 ! R2    R(1,4)                  1.4852         estimate D2E/DX2                !
 ! R3    R(1,7)                  1.5611         estimate D2E/DX2                !
 ! R4    R(1,67)                 1.7898         estimate D2E/DX2                !
 ! R5    R(2,3)                  1.574          estimate D2E/DX2                !
 ! R6    R(2,10)                 1.4724         estimate D2E/DX2                !
 ! R7    R(2,68)                 1.7806         estimate D2E/DX2                !
 ! R8    R(3,5)                  1.4844         estimate D2E/DX2                !
 ! R9    R(3,12)                 1.5825         estimate D2E/DX2                !
 ! R10   R(3,69)                 1.7689         estimate D2E/DX2                !
 ! R11   R(4,5)                  1.3346         estimate D2E/DX2                !
 ! R12   R(4,6)                  1.4232         estimate D2E/DX2                !
 ! R13   R(5,15)                 1.4547         estimate D2E/DX2                !
 ! R14   R(6,8)                  1.3831         estimate D2E/DX2                !
 ! R15   R(6,17)                 1.3983         estimate D2E/DX2                !
 ! R16   R(7,8)                  1.5342         estimate D2E/DX2                !
 ! R17   R(7,9)                  1.5041         estimate D2E/DX2                !
 ! R18   R(7,71)                 1.7952         estimate D2E/DX2                !
 ! R19   R(8,20)                 1.3834         estimate D2E/DX2                !
 ! R20   R(9,11)                 1.4308         estimate D2E/DX2                !
 ! R21   R(9,22)                 1.3719         estimate D2E/DX2                !
 ! R22   R(10,11)                1.4179         estimate D2E/DX2                !
 ! R23   R(10,13)                1.3633         estimate D2E/DX2                !
 ! R24   R(11,25)                1.3787         estimate D2E/DX2                !
 ! R25   R(12,13)                1.4895         estimate D2E/DX2                !
 ! R26   R(12,14)                1.5182         estimate D2E/DX2                !
 ! R27   R(12,70)                1.807          estimate D2E/DX2                !
 ! R28   R(13,27)                1.414          estimate D2E/DX2                !
 ! R29   R(14,16)                1.3632         estimate D2E/DX2                !
 ! R30   R(14,29)                1.4619         estimate D2E/DX2                !
 ! R31   R(15,16)                1.5146         estimate D2E/DX2                !
 ! R32   R(15,18)                1.5149         estimate D2E/DX2                !
 ! R33   R(15,75)                1.8353         estimate D2E/DX2                !
 ! R34   R(16,32)                1.4316         estimate D2E/DX2                !
 ! R35   R(17,18)                1.4287         estimate D2E/DX2                !
 ! R36   R(17,19)                1.424          estimate D2E/DX2                !
 ! R37   R(18,33)                1.4034         estimate D2E/DX2                !
 ! R38   R(19,21)                1.4002         estimate D2E/DX2                !
 ! R39   R(19,35)                1.5164         estimate D2E/DX2                !
 ! R40   R(20,21)                1.4202         estimate D2E/DX2                !
 ! R41   R(20,23)                1.5081         estimate D2E/DX2                !
 ! R42   R(21,38)                1.518          estimate D2E/DX2                !
 ! R43   R(22,23)                1.5195         estimate D2E/DX2                !
 ! R44   R(22,24)                1.4318         estimate D2E/DX2                !
 ! R45   R(23,40)                1.4986         estimate D2E/DX2                !
 ! R46   R(23,72)                1.8            estimate D2E/DX2                !
 ! R47   R(24,26)                1.3759         estimate D2E/DX2                !
 ! R48   R(24,41)                1.4254         estimate D2E/DX2                !
 ! R49   R(25,26)                1.4209         estimate D2E/DX2                !
 ! R50   R(25,28)                1.426          estimate D2E/DX2                !
 ! R51   R(26,44)                1.4308         estimate D2E/DX2                !
 ! R52   R(27,28)                1.3838         estimate D2E/DX2                !
 ! R53   R(27,30)                1.4451         estimate D2E/DX2                !
 ! R54   R(28,45)                1.4216         estimate D2E/DX2                !
 ! R55   R(29,30)                1.4469         estimate D2E/DX2                !
 ! R56   R(29,31)                1.3987         estimate D2E/DX2                !
 ! R57   R(30,47)                1.4037         estimate D2E/DX2                !
 ! R58   R(31,34)                1.4349         estimate D2E/DX2                !
 ! R59   R(31,49)                1.4266         estimate D2E/DX2                !
 ! R60   R(32,33)                1.4474         estimate D2E/DX2                !
 ! R61   R(32,34)                1.3636         estimate D2E/DX2                !
 ! R62   R(33,36)                1.3929         estimate D2E/DX2                !
 ! R63   R(34,51)                1.4304         estimate D2E/DX2                !
 ! R64   R(35,36)                1.5107         estimate D2E/DX2                !
 ! R65   R(35,37)                1.4989         estimate D2E/DX2                !
 ! R66   R(35,74)                1.8163         estimate D2E/DX2                !
 ! R67   R(36,52)                1.4048         estimate D2E/DX2                !
 ! R68   R(37,39)                1.3559         estimate D2E/DX2                !
 ! R69   R(37,53)                1.423          estimate D2E/DX2                !
 ! R70   R(38,39)                1.504          estimate D2E/DX2                !
 ! R71   R(38,42)                1.5045         estimate D2E/DX2                !
 ! R72   R(38,73)                1.8073         estimate D2E/DX2                !
 ! R73   R(39,57)                1.4284         estimate D2E/DX2                !
 ! R74   R(40,41)                1.4243         estimate D2E/DX2                !
 ! R75   R(40,42)                1.358          estimate D2E/DX2                !
 ! R76   R(41,43)                1.3848         estimate D2E/DX2                !
 ! R77   R(42,58)                1.4329         estimate D2E/DX2                !
 ! R78   R(43,46)                1.4388         estimate D2E/DX2                !
 ! R79   R(43,59)                1.4199         estimate D2E/DX2                !
 ! R80   R(44,45)                1.4391         estimate D2E/DX2                !
 ! R81   R(44,46)                1.3766         estimate D2E/DX2                !
 ! R82   R(45,48)                1.372          estimate D2E/DX2                !
 ! R83   R(46,61)                1.4368         estimate D2E/DX2                !
 ! R84   R(47,48)                1.438          estimate D2E/DX2                !
 ! R85   R(47,50)                1.4301         estimate D2E/DX2                !
 ! R86   R(48,62)                1.4383         estimate D2E/DX2                !
 ! R87   R(49,50)                1.3702         estimate D2E/DX2                !
 ! R88   R(49,54)                1.4493         estimate D2E/DX2                !
 ! R89   R(50,63)                1.443          estimate D2E/DX2                !
 ! R90   R(51,52)                1.4011         estimate D2E/DX2                !
 ! R91   R(51,54)                1.4201         estimate D2E/DX2                !
 ! R92   R(52,53)                1.4417         estimate D2E/DX2                !
 ! R93   R(53,55)                1.3792         estimate D2E/DX2                !
 ! R94   R(54,56)                1.3843         estimate D2E/DX2                !
 ! R95   R(55,56)                1.438          estimate D2E/DX2                !
 ! R96   R(55,60)                1.4228         estimate D2E/DX2                !
 ! R97   R(56,64)                1.4335         estimate D2E/DX2                !
 ! R98   R(57,58)                1.4255         estimate D2E/DX2                !
 ! R99   R(57,60)                1.3842         estimate D2E/DX2                !
 ! R100  R(58,59)                1.3835         estimate D2E/DX2                !
 ! R101  R(59,65)                1.4421         estimate D2E/DX2                !
 ! R102  R(60,66)                1.437          estimate D2E/DX2                !
 ! R103  R(61,62)                1.388          estimate D2E/DX2                !
 ! R104  R(61,65)                1.4375         estimate D2E/DX2                !
 ! R105  R(62,63)                1.4279         estimate D2E/DX2                !
 ! R106  R(63,64)                1.3831         estimate D2E/DX2                !
 ! R107  R(64,66)                1.4414         estimate D2E/DX2                !
 ! R108  R(65,66)                1.3799         estimate D2E/DX2                !
 ! A1    A(2,1,4)               99.4909         estimate D2E/DX2                !
 ! A2    A(2,1,7)              119.8722         estimate D2E/DX2                !
 ! A3    A(2,1,67)             109.5369         estimate D2E/DX2                !
 ! A4    A(4,1,7)              101.9328         estimate D2E/DX2                !
 ! A5    A(4,1,67)             110.2416         estimate D2E/DX2                !
 ! A6    A(7,1,67)             114.0917         estimate D2E/DX2                !
 ! A7    A(1,2,3)              108.0066         estimate D2E/DX2                !
 ! A8    A(1,2,10)             111.2133         estimate D2E/DX2                !
 ! A9    A(1,2,68)             111.3356         estimate D2E/DX2                !
 ! A10   A(3,2,10)             101.8577         estimate D2E/DX2                !
 ! A11   A(3,2,68)             115.6798         estimate D2E/DX2                !
 ! A12   A(10,2,68)            108.3892         estimate D2E/DX2                !
 ! A13   A(2,3,5)              100.8473         estimate D2E/DX2                !
 ! A14   A(2,3,12)             107.2176         estimate D2E/DX2                !
 ! A15   A(2,3,69)             114.7939         estimate D2E/DX2                !
 ! A16   A(5,3,12)             109.659          estimate D2E/DX2                !
 ! A17   A(5,3,69)             110.1211         estimate D2E/DX2                !
 ! A18   A(12,3,69)            113.4178         estimate D2E/DX2                !
 ! A19   A(1,4,5)              114.8362         estimate D2E/DX2                !
 ! A20   A(1,4,6)              113.2108         estimate D2E/DX2                !
 ! A21   A(5,4,6)              123.303          estimate D2E/DX2                !
 ! A22   A(3,5,4)              112.7423         estimate D2E/DX2                !
 ! A23   A(3,5,15)             123.8323         estimate D2E/DX2                !
 ! A24   A(4,5,15)             120.7709         estimate D2E/DX2                !
 ! A25   A(4,6,8)              108.7618         estimate D2E/DX2                !
 ! A26   A(4,6,17)             120.0705         estimate D2E/DX2                !
 ! A27   A(8,6,17)             124.3527         estimate D2E/DX2                !
 ! A28   A(1,7,8)              105.3869         estimate D2E/DX2                !
 ! A29   A(1,7,9)              116.6998         estimate D2E/DX2                !
 ! A30   A(1,7,71)             112.6132         estimate D2E/DX2                !
 ! A31   A(8,7,9)              101.8965         estimate D2E/DX2                !
 ! A32   A(8,7,71)             110.5314         estimate D2E/DX2                !
 ! A33   A(9,7,71)             109.0379         estimate D2E/DX2                !
 ! A34   A(6,8,7)              109.9023         estimate D2E/DX2                !
 ! A35   A(6,8,20)             118.7829         estimate D2E/DX2                !
 ! A36   A(7,8,20)             127.148          estimate D2E/DX2                !
 ! A37   A(7,9,11)             120.904          estimate D2E/DX2                !
 ! A38   A(7,9,22)             117.309          estimate D2E/DX2                !
 ! A39   A(11,9,22)            118.1912         estimate D2E/DX2                !
 ! A40   A(2,10,11)            123.8108         estimate D2E/DX2                !
 ! A41   A(2,10,13)            113.5616         estimate D2E/DX2                !
 ! A42   A(11,10,13)           120.976          estimate D2E/DX2                !
 ! A43   A(9,11,10)            119.0433         estimate D2E/DX2                !
 ! A44   A(9,11,25)            120.0512         estimate D2E/DX2                !
 ! A45   A(10,11,25)           114.1726         estimate D2E/DX2                !
 ! A46   A(3,12,13)            102.0826         estimate D2E/DX2                !
 ! A47   A(3,12,14)            117.4366         estimate D2E/DX2                !
 ! A48   A(3,12,70)            111.7162         estimate D2E/DX2                !
 ! A49   A(13,12,14)           107.2249         estimate D2E/DX2                !
 ! A50   A(13,12,70)           110.6639         estimate D2E/DX2                !
 ! A51   A(14,12,70)           107.4844         estimate D2E/DX2                !
 ! A52   A(10,13,12)           112.7581         estimate D2E/DX2                !
 ! A53   A(10,13,27)           123.0132         estimate D2E/DX2                !
 ! A54   A(12,13,27)           122.3876         estimate D2E/DX2                !
 ! A55   A(12,14,16)           121.2599         estimate D2E/DX2                !
 ! A56   A(12,14,29)           118.0636         estimate D2E/DX2                !
 ! A57   A(16,14,29)           118.8645         estimate D2E/DX2                !
 ! A58   A(5,15,16)            112.4862         estimate D2E/DX2                !
 ! A59   A(5,15,18)            112.2539         estimate D2E/DX2                !
 ! A60   A(5,15,75)            109.089          estimate D2E/DX2                !
 ! A61   A(16,15,18)           100.562          estimate D2E/DX2                !
 ! A62   A(16,15,75)           108.2152         estimate D2E/DX2                !
 ! A63   A(18,15,75)           114.0043         estimate D2E/DX2                !
 ! A64   A(14,16,15)           122.6263         estimate D2E/DX2                !
 ! A65   A(14,16,32)           121.9465         estimate D2E/DX2                !
 ! A66   A(15,16,32)           106.6221         estimate D2E/DX2                !
 ! A67   A(6,17,18)            115.9669         estimate D2E/DX2                !
 ! A68   A(6,17,19)            115.9249         estimate D2E/DX2                !
 ! A69   A(18,17,19)           124.2248         estimate D2E/DX2                !
 ! A70   A(15,18,17)           124.1665         estimate D2E/DX2                !
 ! A71   A(15,18,33)           109.0155         estimate D2E/DX2                !
 ! A72   A(17,18,33)           116.0805         estimate D2E/DX2                !
 ! A73   A(17,19,21)           120.3773         estimate D2E/DX2                !
 ! A74   A(17,19,35)           116.5439         estimate D2E/DX2                !
 ! A75   A(21,19,35)           122.0284         estimate D2E/DX2                !
 ! A76   A(8,20,21)            119.4702         estimate D2E/DX2                !
 ! A77   A(8,20,23)            115.7244         estimate D2E/DX2                !
 ! A78   A(21,20,23)           122.6576         estimate D2E/DX2                !
 ! A79   A(19,21,20)           120.4469         estimate D2E/DX2                !
 ! A80   A(19,21,38)           119.8566         estimate D2E/DX2                !
 ! A81   A(20,21,38)           119.2528         estimate D2E/DX2                !
 ! A82   A(9,22,23)            125.5844         estimate D2E/DX2                !
 ! A83   A(9,22,24)            120.6723         estimate D2E/DX2                !
 ! A84   A(23,22,24)           108.6954         estimate D2E/DX2                !
 ! A85   A(20,23,22)           105.7493         estimate D2E/DX2                !
 ! A86   A(20,23,40)           110.7846         estimate D2E/DX2                !
 ! A87   A(20,23,72)           110.0239         estimate D2E/DX2                !
 ! A88   A(22,23,40)           101.685          estimate D2E/DX2                !
 ! A89   A(22,23,72)           115.3605         estimate D2E/DX2                !
 ! A90   A(40,23,72)           112.7909         estimate D2E/DX2                !
 ! A91   A(22,24,26)           120.8515         estimate D2E/DX2                !
 ! A92   A(22,24,41)           109.7679         estimate D2E/DX2                !
 ! A93   A(26,24,41)           119.4417         estimate D2E/DX2                !
 ! A94   A(11,25,26)           121.4268         estimate D2E/DX2                !
 ! A95   A(11,25,28)           122.8157         estimate D2E/DX2                !
 ! A96   A(26,25,28)           107.7831         estimate D2E/DX2                !
 ! A97   A(24,26,25)           117.6115         estimate D2E/DX2                !
 ! A98   A(24,26,44)           121.4498         estimate D2E/DX2                !
 ! A99   A(25,26,44)           108.6183         estimate D2E/DX2                !
 ! A100  A(13,27,28)           114.8453         estimate D2E/DX2                !
 ! A101  A(13,27,30)           119.2362         estimate D2E/DX2                !
 ! A102  A(28,27,30)           120.5488         estimate D2E/DX2                !
 ! A103  A(25,28,27)           120.1422         estimate D2E/DX2                !
 ! A104  A(25,28,45)           108.3208         estimate D2E/DX2                !
 ! A105  A(27,28,45)           122.0894         estimate D2E/DX2                !
 ! A106  A(14,29,30)           120.2402         estimate D2E/DX2                !
 ! A107  A(14,29,31)           117.5582         estimate D2E/DX2                !
 ! A108  A(30,29,31)           116.2373         estimate D2E/DX2                !
 ! A109  A(27,30,29)           117.8836         estimate D2E/DX2                !
 ! A110  A(27,30,47)           116.0704         estimate D2E/DX2                !
 ! A111  A(29,30,47)           119.715          estimate D2E/DX2                !
 ! A112  A(29,31,34)           121.3099         estimate D2E/DX2                !
 ! A113  A(29,31,49)           123.4583         estimate D2E/DX2                !
 ! A114  A(34,31,49)           106.0933         estimate D2E/DX2                !
 ! A115  A(16,32,33)           109.1326         estimate D2E/DX2                !
 ! A116  A(16,32,34)           119.4187         estimate D2E/DX2                !
 ! A117  A(33,32,34)           119.9614         estimate D2E/DX2                !
 ! A118  A(18,33,32)           107.1411         estimate D2E/DX2                !
 ! A119  A(18,33,36)           121.4676         estimate D2E/DX2                !
 ! A120  A(32,33,36)           120.1272         estimate D2E/DX2                !
 ! A121  A(31,34,32)           119.2066         estimate D2E/DX2                !
 ! A122  A(31,34,51)           109.5474         estimate D2E/DX2                !
 ! A123  A(32,34,51)           120.0074         estimate D2E/DX2                !
 ! A124  A(19,35,36)           109.9957         estimate D2E/DX2                !
 ! A125  A(19,35,37)           111.1987         estimate D2E/DX2                !
 ! A126  A(19,35,74)           107.2119         estimate D2E/DX2                !
 ! A127  A(36,35,37)           101.4814         estimate D2E/DX2                !
 ! A128  A(36,35,74)           114.4331         estimate D2E/DX2                !
 ! A129  A(37,35,74)           112.5278         estimate D2E/DX2                !
 ! A130  A(33,36,35)           122.6151         estimate D2E/DX2                !
 ! A131  A(33,36,52)           118.6507         estimate D2E/DX2                !
 ! A132  A(35,36,52)           111.1252         estimate D2E/DX2                !
 ! A133  A(35,37,39)           121.717          estimate D2E/DX2                !
 ! A134  A(35,37,53)           110.3452         estimate D2E/DX2                !
 ! A135  A(39,37,53)           120.4958         estimate D2E/DX2                !
 ! A136  A(21,38,39)           111.1274         estimate D2E/DX2                !
 ! A137  A(21,38,42)           109.7199         estimate D2E/DX2                !
 ! A138  A(21,38,73)           107.6339         estimate D2E/DX2                !
 ! A139  A(39,38,42)           101.3768         estimate D2E/DX2                !
 ! A140  A(39,38,73)           113.1039         estimate D2E/DX2                !
 ! A141  A(42,38,73)           113.8317         estimate D2E/DX2                !
 ! A142  A(37,39,38)           122.9032         estimate D2E/DX2                !
 ! A143  A(37,39,57)           118.6694         estimate D2E/DX2                !
 ! A144  A(38,39,57)           111.0341         estimate D2E/DX2                !
 ! A145  A(23,40,41)           110.7925         estimate D2E/DX2                !
 ! A146  A(23,40,42)           122.6428         estimate D2E/DX2                !
 ! A147  A(41,40,42)           118.9032         estimate D2E/DX2                !
 ! A148  A(24,41,40)           107.5606         estimate D2E/DX2                !
 ! A149  A(24,41,43)           119.1848         estimate D2E/DX2                !
 ! A150  A(40,41,43)           122.1692         estimate D2E/DX2                !
 ! A151  A(38,42,40)           123.2507         estimate D2E/DX2                !
 ! A152  A(38,42,58)           110.3294         estimate D2E/DX2                !
 ! A153  A(40,42,58)           119.4314         estimate D2E/DX2                !
 ! A154  A(41,43,46)           121.4709         estimate D2E/DX2                !
 ! A155  A(41,43,59)           118.951          estimate D2E/DX2                !
 ! A156  A(46,43,59)           107.5827         estimate D2E/DX2                !
 ! A157  A(26,44,45)           107.0952         estimate D2E/DX2                !
 ! A158  A(26,44,46)           119.7116         estimate D2E/DX2                !
 ! A159  A(45,44,46)           119.4807         estimate D2E/DX2                !
 ! A160  A(28,45,44)           108.0362         estimate D2E/DX2                !
 ! A161  A(28,45,48)           118.5897         estimate D2E/DX2                !
 ! A162  A(44,45,48)           121.6309         estimate D2E/DX2                !
 ! A163  A(43,46,44)           118.7064         estimate D2E/DX2                !
 ! A164  A(43,46,61)           109.333          estimate D2E/DX2                !
 ! A165  A(44,46,61)           119.2633         estimate D2E/DX2                !
 ! A166  A(30,47,48)           122.4415         estimate D2E/DX2                !
 ! A167  A(30,47,50)           122.0582         estimate D2E/DX2                !
 ! A168  A(48,47,50)           106.2518         estimate D2E/DX2                !
 ! A169  A(45,48,47)           119.933          estimate D2E/DX2                !
 ! A170  A(45,48,62)           118.9152         estimate D2E/DX2                !
 ! A171  A(47,48,62)           109.398          estimate D2E/DX2                !
 ! A172  A(31,49,50)           119.9436         estimate D2E/DX2                !
 ! A173  A(31,49,54)           108.8032         estimate D2E/DX2                !
 ! A174  A(50,49,54)           119.7908         estimate D2E/DX2                !
 ! A175  A(47,50,49)           118.4048         estimate D2E/DX2                !
 ! A176  A(47,50,63)           109.0917         estimate D2E/DX2                !
 ! A177  A(49,50,63)           120.9959         estimate D2E/DX2                !
 ! A178  A(34,51,52)           118.857          estimate D2E/DX2                !
 ! A179  A(34,51,54)           107.2835         estimate D2E/DX2                !
 ! A180  A(52,51,54)           120.6152         estimate D2E/DX2                !
 ! A181  A(36,52,51)           121.5629         estimate D2E/DX2                !
 ! A182  A(36,52,53)           108.1371         estimate D2E/DX2                !
 ! A183  A(51,52,53)           119.0321         estimate D2E/DX2                !
 ! A184  A(37,53,52)           108.4635         estimate D2E/DX2                !
 ! A185  A(37,53,55)           121.2305         estimate D2E/DX2                !
 ! A186  A(52,53,55)           119.4267         estimate D2E/DX2                !
 ! A187  A(49,54,51)           107.6772         estimate D2E/DX2                !
 ! A188  A(49,54,56)           119.2045         estimate D2E/DX2                !
 ! A189  A(51,54,56)           120.4967         estimate D2E/DX2                !
 ! A190  A(53,55,56)           121.3984         estimate D2E/DX2                !
 ! A191  A(53,55,60)           118.7861         estimate D2E/DX2                !
 ! A192  A(56,55,60)           108.2574         estimate D2E/DX2                !
 ! A193  A(54,56,55)           118.8341         estimate D2E/DX2                !
 ! A194  A(54,56,64)           120.4668         estimate D2E/DX2                !
 ! A195  A(55,56,64)           108.5026         estimate D2E/DX2                !
 ! A196  A(39,57,58)           107.9733         estimate D2E/DX2                !
 ! A197  A(39,57,60)           121.5095         estimate D2E/DX2                !
 ! A198  A(58,57,60)           119.7076         estimate D2E/DX2                !
 ! A199  A(42,58,57)           108.7885         estimate D2E/DX2                !
 ! A200  A(42,58,59)           121.8463         estimate D2E/DX2                !
 ! A201  A(57,58,59)           119.1336         estimate D2E/DX2                !
 ! A202  A(43,59,58)           118.5708         estimate D2E/DX2                !
 ! A203  A(43,59,65)           107.9103         estimate D2E/DX2                !
 ! A204  A(58,59,65)           121.3283         estimate D2E/DX2                !
 ! A205  A(55,60,57)           119.2555         estimate D2E/DX2                !
 ! A206  A(55,60,66)           107.6453         estimate D2E/DX2                !
 ! A207  A(57,60,66)           121.2976         estimate D2E/DX2                !
 ! A208  A(46,61,62)           120.9084         estimate D2E/DX2                !
 ! A209  A(46,61,65)           106.1824         estimate D2E/DX2                !
 ! A210  A(62,61,65)           119.8826         estimate D2E/DX2                !
 ! A211  A(48,62,61)           119.5765         estimate D2E/DX2                !
 ! A212  A(48,62,63)           107.2346         estimate D2E/DX2                !
 ! A213  A(61,62,63)           120.3226         estimate D2E/DX2                !
 ! A214  A(50,63,62)           107.7659         estimate D2E/DX2                !
 ! A215  A(50,63,64)           118.9635         estimate D2E/DX2                !
 ! A216  A(62,63,64)           119.834          estimate D2E/DX2                !
 ! A217  A(56,64,63)           120.3132         estimate D2E/DX2                !
 ! A218  A(56,64,66)           106.8713         estimate D2E/DX2                !
 ! A219  A(63,64,66)           119.9472         estimate D2E/DX2                !
 ! A220  A(59,65,61)           108.9407         estimate D2E/DX2                !
 ! A221  A(59,65,66)           119.3053         estimate D2E/DX2                !
 ! A222  A(61,65,66)           119.7072         estimate D2E/DX2                !
 ! A223  A(60,66,64)           108.6764         estimate D2E/DX2                !
 ! A224  A(60,66,65)           119.1204         estimate D2E/DX2                !
 ! A225  A(64,66,65)           120.1741         estimate D2E/DX2                !
 ! D1    D(4,1,2,3)             19.8716         estimate D2E/DX2                !
 ! D2    D(4,1,2,10)           -91.1018         estimate D2E/DX2                !
 ! D3    D(4,1,2,68)           147.907          estimate D2E/DX2                !
 ! D4    D(7,1,2,3)            129.6132         estimate D2E/DX2                !
 ! D5    D(7,1,2,10)            18.6399         estimate D2E/DX2                !
 ! D6    D(7,1,2,68)          -102.3514         estimate D2E/DX2                !
 ! D7    D(67,1,2,3)           -95.6933         estimate D2E/DX2                !
 ! D8    D(67,1,2,10)          153.3334         estimate D2E/DX2                !
 ! D9    D(67,1,2,68)           32.3421         estimate D2E/DX2                !
 ! D10   D(2,1,4,5)            -16.2219         estimate D2E/DX2                !
 ! D11   D(2,1,4,6)            132.735          estimate D2E/DX2                !
 ! D12   D(7,1,4,5)           -139.6893         estimate D2E/DX2                !
 ! D13   D(7,1,4,6)              9.2676         estimate D2E/DX2                !
 ! D14   D(67,1,4,5)            98.8035         estimate D2E/DX2                !
 ! D15   D(67,1,4,6)          -112.2396         estimate D2E/DX2                !
 ! D16   D(2,1,7,8)           -114.8831         estimate D2E/DX2                !
 ! D17   D(2,1,7,9)             -2.6896         estimate D2E/DX2                !
 ! D18   D(2,1,7,71)           124.5409         estimate D2E/DX2                !
 ! D19   D(4,1,7,8)             -6.4776         estimate D2E/DX2                !
 ! D20   D(4,1,7,9)            105.7159         estimate D2E/DX2                !
 ! D21   D(4,1,7,71)          -127.0536         estimate D2E/DX2                !
 ! D22   D(67,1,7,8)           112.3293         estimate D2E/DX2                !
 ! D23   D(67,1,7,9)          -135.4772         estimate D2E/DX2                !
 ! D24   D(67,1,7,71)           -8.2467         estimate D2E/DX2                !
 ! D25   D(1,2,3,5)            -17.2714         estimate D2E/DX2                !
 ! D26   D(1,2,3,12)          -131.9793         estimate D2E/DX2                !
 ! D27   D(1,2,3,69)           101.0452         estimate D2E/DX2                !
 ! D28   D(10,2,3,5)            99.9236         estimate D2E/DX2                !
 ! D29   D(10,2,3,12)          -14.7843         estimate D2E/DX2                !
 ! D30   D(10,2,3,69)         -141.7598         estimate D2E/DX2                !
 ! D31   D(68,2,3,5)          -142.7775         estimate D2E/DX2                !
 ! D32   D(68,2,3,12)          102.5147         estimate D2E/DX2                !
 ! D33   D(68,2,3,69)          -24.4609         estimate D2E/DX2                !
 ! D34   D(1,2,10,11)          -34.7535         estimate D2E/DX2                !
 ! D35   D(1,2,10,13)          130.6749         estimate D2E/DX2                !
 ! D36   D(3,2,10,11)         -149.6083         estimate D2E/DX2                !
 ! D37   D(3,2,10,13)           15.82           estimate D2E/DX2                !
 ! D38   D(68,2,10,11)          87.9515         estimate D2E/DX2                !
 ! D39   D(68,2,10,13)        -106.6202         estimate D2E/DX2                !
 ! D40   D(2,3,5,4)              7.5063         estimate D2E/DX2                !
 ! D41   D(2,3,5,15)          -154.0748         estimate D2E/DX2                !
 ! D42   D(12,3,5,4)           120.3672         estimate D2E/DX2                !
 ! D43   D(12,3,5,15)          -41.214          estimate D2E/DX2                !
 ! D44   D(69,3,5,4)          -114.1578         estimate D2E/DX2                !
 ! D45   D(69,3,5,15)           84.261          estimate D2E/DX2                !
 ! D46   D(2,3,12,13)            9.3828         estimate D2E/DX2                !
 ! D47   D(2,3,12,14)          126.2771         estimate D2E/DX2                !
 ! D48   D(2,3,12,70)         -108.8922         estimate D2E/DX2                !
 ! D49   D(5,3,12,13)          -99.2754         estimate D2E/DX2                !
 ! D50   D(5,3,12,14)           17.6189         estimate D2E/DX2                !
 ! D51   D(5,3,12,70)          142.4496         estimate D2E/DX2                !
 ! D52   D(69,3,12,13)         137.1643         estimate D2E/DX2                !
 ! D53   D(69,3,12,14)        -105.9414         estimate D2E/DX2                !
 ! D54   D(69,3,12,70)          18.8892         estimate D2E/DX2                !
 ! D55   D(1,4,5,3)              5.8854         estimate D2E/DX2                !
 ! D56   D(1,4,5,15)           168.0994         estimate D2E/DX2                !
 ! D57   D(6,4,5,3)           -139.5685         estimate D2E/DX2                !
 ! D58   D(6,4,5,15)            22.6455         estimate D2E/DX2                !
 ! D59   D(1,4,6,8)             -8.5342         estimate D2E/DX2                !
 ! D60   D(1,4,6,17)          -160.824          estimate D2E/DX2                !
 ! D61   D(5,4,6,8)            137.4139         estimate D2E/DX2                !
 ! D62   D(5,4,6,17)           -14.8759         estimate D2E/DX2                !
 ! D63   D(3,5,15,16)           34.8358         estimate D2E/DX2                !
 ! D64   D(3,5,15,18)          147.4005         estimate D2E/DX2                !
 ! D65   D(3,5,15,75)          -85.2463         estimate D2E/DX2                !
 ! D66   D(4,5,15,16)         -125.3397         estimate D2E/DX2                !
 ! D67   D(4,5,15,18)          -12.775          estimate D2E/DX2                !
 ! D68   D(4,5,15,75)          114.5782         estimate D2E/DX2                !
 ! D69   D(4,6,8,7)              3.6366         estimate D2E/DX2                !
 ! D70   D(4,6,8,20)          -155.0584         estimate D2E/DX2                !
 ! D71   D(17,6,8,7)           154.4646         estimate D2E/DX2                !
 ! D72   D(17,6,8,20)           -4.2304         estimate D2E/DX2                !
 ! D73   D(4,6,17,18)           -1.8219         estimate D2E/DX2                !
 ! D74   D(4,6,17,19)          156.9807         estimate D2E/DX2                !
 ! D75   D(8,6,17,18)         -149.5924         estimate D2E/DX2                !
 ! D76   D(8,6,17,19)            9.2102         estimate D2E/DX2                !
 ! D77   D(1,7,8,6)              2.0557         estimate D2E/DX2                !
 ! D78   D(1,7,8,20)           158.5079         estimate D2E/DX2                !
 ! D79   D(9,7,8,6)           -120.2356         estimate D2E/DX2                !
 ! D80   D(9,7,8,20)            36.2166         estimate D2E/DX2                !
 ! D81   D(71,7,8,6)           123.9879         estimate D2E/DX2                !
 ! D82   D(71,7,8,20)          -79.5598         estimate D2E/DX2                !
 ! D83   D(1,7,9,11)            -1.3859         estimate D2E/DX2                !
 ! D84   D(1,7,9,22)          -159.6214         estimate D2E/DX2                !
 ! D85   D(8,7,9,11)           112.786          estimate D2E/DX2                !
 ! D86   D(8,7,9,22)           -45.4494         estimate D2E/DX2                !
 ! D87   D(71,7,9,11)         -130.3514         estimate D2E/DX2                !
 ! D88   D(71,7,9,22)           71.4131         estimate D2E/DX2                !
 ! D89   D(6,8,20,21)           -2.557          estimate D2E/DX2                !
 ! D90   D(6,8,20,23)          161.2353         estimate D2E/DX2                !
 ! D91   D(7,8,20,21)         -157.1779         estimate D2E/DX2                !
 ! D92   D(7,8,20,23)            6.6144         estimate D2E/DX2                !
 ! D93   D(7,9,11,10)          -12.2825         estimate D2E/DX2                !
 ! D94   D(7,9,11,25)         -161.8681         estimate D2E/DX2                !
 ! D95   D(22,9,11,10)         145.7668         estimate D2E/DX2                !
 ! D96   D(22,9,11,25)          -3.8188         estimate D2E/DX2                !
 ! D97   D(7,9,22,23)           16.633          estimate D2E/DX2                !
 ! D98   D(7,9,22,24)          168.5934         estimate D2E/DX2                !
 ! D99   D(11,9,22,23)        -142.2072         estimate D2E/DX2                !
 ! D100  D(11,9,22,24)           9.7532         estimate D2E/DX2                !
 ! D101  D(2,10,11,9)           32.9838         estimate D2E/DX2                !
 ! D102  D(2,10,11,25)        -175.7223         estimate D2E/DX2                !
 ! D103  D(13,10,11,9)        -131.4129         estimate D2E/DX2                !
 ! D104  D(13,10,11,25)         19.8811         estimate D2E/DX2                !
 ! D105  D(2,10,13,12)         -10.7281         estimate D2E/DX2                !
 ! D106  D(2,10,13,27)        -175.584          estimate D2E/DX2                !
 ! D107  D(11,10,13,12)        155.1602         estimate D2E/DX2                !
 ! D108  D(11,10,13,27)         -9.6957         estimate D2E/DX2                !
 ! D109  D(9,11,25,26)          -6.47           estimate D2E/DX2                !
 ! D110  D(9,11,25,28)         138.6057         estimate D2E/DX2                !
 ! D111  D(10,11,25,26)       -157.449          estimate D2E/DX2                !
 ! D112  D(10,11,25,28)        -12.3733         estimate D2E/DX2                !
 ! D113  D(3,12,13,10)           0.1515         estimate D2E/DX2                !
 ! D114  D(3,12,13,27)         165.1157         estimate D2E/DX2                !
 ! D115  D(14,12,13,10)       -123.8834         estimate D2E/DX2                !
 ! D116  D(14,12,13,27)         41.0808         estimate D2E/DX2                !
 ! D117  D(70,12,13,10)        119.1734         estimate D2E/DX2                !
 ! D118  D(70,12,13,27)        -75.8624         estimate D2E/DX2                !
 ! D119  D(3,12,14,16)           9.0591         estimate D2E/DX2                !
 ! D120  D(3,12,14,29)        -155.4363         estimate D2E/DX2                !
 ! D121  D(13,12,14,16)        123.1309         estimate D2E/DX2                !
 ! D122  D(13,12,14,29)        -41.3646         estimate D2E/DX2                !
 ! D123  D(70,12,14,16)       -117.8561         estimate D2E/DX2                !
 ! D124  D(70,12,14,29)         77.6485         estimate D2E/DX2                !
 ! D125  D(10,13,27,28)         -8.9903         estimate D2E/DX2                !
 ! D126  D(10,13,27,30)        145.3049         estimate D2E/DX2                !
 ! D127  D(12,13,27,28)       -172.4143         estimate D2E/DX2                !
 ! D128  D(12,13,27,30)        -18.1191         estimate D2E/DX2                !
 ! D129  D(12,14,16,15)        -17.5791         estimate D2E/DX2                !
 ! D130  D(12,14,16,32)       -160.659          estimate D2E/DX2                !
 ! D131  D(29,14,16,15)        146.7954         estimate D2E/DX2                !
 ! D132  D(29,14,16,32)          3.7155         estimate D2E/DX2                !
 ! D133  D(12,14,29,30)         21.084          estimate D2E/DX2                !
 ! D134  D(12,14,29,31)        172.8998         estimate D2E/DX2                !
 ! D135  D(16,14,29,30)       -143.7912         estimate D2E/DX2                !
 ! D136  D(16,14,29,31)          8.0246         estimate D2E/DX2                !
 ! D137  D(5,15,16,14)          -2.6836         estimate D2E/DX2                !
 ! D138  D(5,15,16,32)         145.1792         estimate D2E/DX2                !
 ! D139  D(18,15,16,14)       -122.2953         estimate D2E/DX2                !
 ! D140  D(18,15,16,32)         25.5675         estimate D2E/DX2                !
 ! D141  D(75,15,16,14)        117.9026         estimate D2E/DX2                !
 ! D142  D(75,15,16,32)        -94.2347         estimate D2E/DX2                !
 ! D143  D(5,15,18,17)          -3.5273         estimate D2E/DX2                !
 ! D144  D(5,15,18,33)        -146.2696         estimate D2E/DX2                !
 ! D145  D(16,15,18,17)        116.252          estimate D2E/DX2                !
 ! D146  D(16,15,18,33)        -26.4903         estimate D2E/DX2                !
 ! D147  D(75,15,18,17)       -128.2098         estimate D2E/DX2                !
 ! D148  D(75,15,18,33)         89.0478         estimate D2E/DX2                !
 ! D149  D(14,16,32,33)        131.2639         estimate D2E/DX2                !
 ! D150  D(14,16,32,34)        -12.1052         estimate D2E/DX2                !
 ! D151  D(15,16,32,33)        -16.8673         estimate D2E/DX2                !
 ! D152  D(15,16,32,34)       -160.2364         estimate D2E/DX2                !
 ! D153  D(6,17,18,15)          10.3855         estimate D2E/DX2                !
 ! D154  D(6,17,18,33)         150.7984         estimate D2E/DX2                !
 ! D155  D(19,17,18,15)       -146.4545         estimate D2E/DX2                !
 ! D156  D(19,17,18,33)         -6.0416         estimate D2E/DX2                !
 ! D157  D(6,17,19,21)          -7.5759         estimate D2E/DX2                !
 ! D158  D(6,17,19,35)        -176.0913         estimate D2E/DX2                !
 ! D159  D(18,17,19,21)        149.2728         estimate D2E/DX2                !
 ! D160  D(18,17,19,35)        -19.2426         estimate D2E/DX2                !
 ! D161  D(15,18,33,32)         17.4619         estimate D2E/DX2                !
 ! D162  D(15,18,33,36)        161.0318         estimate D2E/DX2                !
 ! D163  D(17,18,33,32)       -128.6412         estimate D2E/DX2                !
 ! D164  D(17,18,33,36)         14.9287         estimate D2E/DX2                !
 ! D165  D(17,19,21,20)          1.4643         estimate D2E/DX2                !
 ! D166  D(17,19,21,38)       -170.8356         estimate D2E/DX2                !
 ! D167  D(35,19,21,20)        169.3363         estimate D2E/DX2                !
 ! D168  D(35,19,21,38)         -2.9636         estimate D2E/DX2                !
 ! D169  D(17,19,35,36)         32.7647         estimate D2E/DX2                !
 ! D170  D(17,19,35,37)        144.3771         estimate D2E/DX2                !
 ! D171  D(17,19,35,74)        -92.2317         estimate D2E/DX2                !
 ! D172  D(21,19,35,36)       -135.5457         estimate D2E/DX2                !
 ! D173  D(21,19,35,37)        -23.9333         estimate D2E/DX2                !
 ! D174  D(21,19,35,74)         99.4579         estimate D2E/DX2                !
 ! D175  D(8,20,21,19)           3.824          estimate D2E/DX2                !
 ! D176  D(8,20,21,38)         176.1701         estimate D2E/DX2                !
 ! D177  D(23,20,21,19)       -158.798          estimate D2E/DX2                !
 ! D178  D(23,20,21,38)         13.5481         estimate D2E/DX2                !
 ! D179  D(8,20,23,22)         -37.9677         estimate D2E/DX2                !
 ! D180  D(8,20,23,40)        -147.3653         estimate D2E/DX2                !
 ! D181  D(8,20,23,72)          87.2321         estimate D2E/DX2                !
 ! D182  D(21,20,23,22)        125.256          estimate D2E/DX2                !
 ! D183  D(21,20,23,40)         15.8585         estimate D2E/DX2                !
 ! D184  D(21,20,23,72)       -109.5441         estimate D2E/DX2                !
 ! D185  D(19,21,38,39)         27.4727         estimate D2E/DX2                !
 ! D186  D(19,21,38,42)        138.767          estimate D2E/DX2                !
 ! D187  D(19,21,38,73)        -96.8775         estimate D2E/DX2                !
 ! D188  D(20,21,38,39)       -144.9193         estimate D2E/DX2                !
 ! D189  D(20,21,38,42)        -33.625          estimate D2E/DX2                !
 ! D190  D(20,21,38,73)         90.7305         estimate D2E/DX2                !
 ! D191  D(9,22,23,20)          28.5481         estimate D2E/DX2                !
 ! D192  D(9,22,23,40)         144.3223         estimate D2E/DX2                !
 ! D193  D(9,22,23,72)         -93.2807         estimate D2E/DX2                !
 ! D194  D(24,22,23,20)       -126.1849         estimate D2E/DX2                !
 ! D195  D(24,22,23,40)        -10.4107         estimate D2E/DX2                !
 ! D196  D(24,22,23,72)        111.9863         estimate D2E/DX2                !
 ! D197  D(9,22,24,26)          -5.6359         estimate D2E/DX2                !
 ! D198  D(9,22,24,41)        -151.0308         estimate D2E/DX2                !
 ! D199  D(23,22,24,26)        150.5611         estimate D2E/DX2                !
 ! D200  D(23,22,24,41)          5.1662         estimate D2E/DX2                !
 ! D201  D(20,23,40,41)        124.4333         estimate D2E/DX2                !
 ! D202  D(20,23,40,42)        -24.5725         estimate D2E/DX2                !
 ! D203  D(22,23,40,41)         12.4111         estimate D2E/DX2                !
 ! D204  D(22,23,40,42)       -136.5948         estimate D2E/DX2                !
 ! D205  D(72,23,40,41)       -111.7358         estimate D2E/DX2                !
 ! D206  D(72,23,40,42)         99.2584         estimate D2E/DX2                !
 ! D207  D(22,24,26,25)         -4.5299         estimate D2E/DX2                !
 ! D208  D(22,24,26,44)       -142.4517         estimate D2E/DX2                !
 ! D209  D(41,24,26,25)        137.6121         estimate D2E/DX2                !
 ! D210  D(41,24,26,44)         -0.3097         estimate D2E/DX2                !
 ! D211  D(22,24,41,40)          2.8263         estimate D2E/DX2                !
 ! D212  D(22,24,41,43)        147.5527         estimate D2E/DX2                !
 ! D213  D(26,24,41,40)       -143.1276         estimate D2E/DX2                !
 ! D214  D(26,24,41,43)          1.5988         estimate D2E/DX2                !
 ! D215  D(11,25,26,24)         10.5494         estimate D2E/DX2                !
 ! D216  D(11,25,26,44)        153.445          estimate D2E/DX2                !
 ! D217  D(28,25,26,24)       -139.1009         estimate D2E/DX2                !
 ! D218  D(28,25,26,44)          3.7947         estimate D2E/DX2                !
 ! D219  D(11,25,28,27)         -5.8293         estimate D2E/DX2                !
 ! D220  D(11,25,28,45)       -152.9038         estimate D2E/DX2                !
 ! D221  D(26,25,28,27)        143.3051         estimate D2E/DX2                !
 ! D222  D(26,25,28,45)         -3.7693         estimate D2E/DX2                !
 ! D223  D(24,26,44,45)        138.8361         estimate D2E/DX2                !
 ! D224  D(24,26,44,46)         -1.3673         estimate D2E/DX2                !
 ! D225  D(25,26,44,45)         -2.3631         estimate D2E/DX2                !
 ! D226  D(25,26,44,46)       -142.5664         estimate D2E/DX2                !
 ! D227  D(13,27,28,25)         16.3369         estimate D2E/DX2                !
 ! D228  D(13,27,28,45)        158.8164         estimate D2E/DX2                !
 ! D229  D(30,27,28,25)       -137.5921         estimate D2E/DX2                !
 ! D230  D(30,27,28,45)          4.8874         estimate D2E/DX2                !
 ! D231  D(13,27,30,29)         -7.6602         estimate D2E/DX2                !
 ! D232  D(13,27,30,47)       -159.6889         estimate D2E/DX2                !
 ! D233  D(28,27,30,29)        145.1443         estimate D2E/DX2                !
 ! D234  D(28,27,30,47)         -6.8844         estimate D2E/DX2                !
 ! D235  D(25,28,45,44)          2.3102         estimate D2E/DX2                !
 ! D236  D(25,28,45,48)        145.9779         estimate D2E/DX2                !
 ! D237  D(27,28,45,44)       -143.9918         estimate D2E/DX2                !
 ! D238  D(27,28,45,48)         -0.3241         estimate D2E/DX2                !
 ! D239  D(14,29,30,27)          5.5593         estimate D2E/DX2                !
 ! D240  D(14,29,30,47)        156.5404         estimate D2E/DX2                !
 ! D241  D(31,29,30,27)       -146.6128         estimate D2E/DX2                !
 ! D242  D(31,29,30,47)          4.3683         estimate D2E/DX2                !
 ! D243  D(14,29,31,34)        -11.8696         estimate D2E/DX2                !
 ! D244  D(14,29,31,49)       -154.1347         estimate D2E/DX2                !
 ! D245  D(30,29,31,34)        141.0715         estimate D2E/DX2                !
 ! D246  D(30,29,31,49)         -1.1936         estimate D2E/DX2                !
 ! D247  D(27,30,47,48)          4.769          estimate D2E/DX2                !
 ! D248  D(27,30,47,50)        146.8952         estimate D2E/DX2                !
 ! D249  D(29,30,47,48)       -146.7188         estimate D2E/DX2                !
 ! D250  D(29,30,47,50)         -4.5927         estimate D2E/DX2                !
 ! D251  D(29,31,34,32)          3.7967         estimate D2E/DX2                !
 ! D252  D(29,31,34,51)       -139.957          estimate D2E/DX2                !
 ! D253  D(49,31,34,32)        151.6954         estimate D2E/DX2                !
 ! D254  D(49,31,34,51)          7.9418         estimate D2E/DX2                !
 ! D255  D(29,31,49,50)         -2.009          estimate D2E/DX2                !
 ! D256  D(29,31,49,54)        141.2963         estimate D2E/DX2                !
 ! D257  D(34,31,49,50)       -149.0384         estimate D2E/DX2                !
 ! D258  D(34,31,49,54)         -5.7331         estimate D2E/DX2                !
 ! D259  D(16,32,33,18)         -0.2237         estimate D2E/DX2                !
 ! D260  D(16,32,33,36)       -144.377          estimate D2E/DX2                !
 ! D261  D(34,32,33,18)        142.9144         estimate D2E/DX2                !
 ! D262  D(34,32,33,36)         -1.239          estimate D2E/DX2                !
 ! D263  D(16,32,34,31)          8.1609         estimate D2E/DX2                !
 ! D264  D(16,32,34,51)        148.1132         estimate D2E/DX2                !
 ! D265  D(33,32,34,31)       -131.2483         estimate D2E/DX2                !
 ! D266  D(33,32,34,51)          8.7039         estimate D2E/DX2                !
 ! D267  D(18,33,36,35)          2.2067         estimate D2E/DX2                !
 ! D268  D(18,33,36,52)       -144.6387         estimate D2E/DX2                !
 ! D269  D(32,33,36,35)        141.2039         estimate D2E/DX2                !
 ! D270  D(32,33,36,52)         -5.6414         estimate D2E/DX2                !
 ! D271  D(31,34,51,52)        134.1855         estimate D2E/DX2                !
 ! D272  D(31,34,51,54)         -7.1143         estimate D2E/DX2                !
 ! D273  D(32,34,51,52)         -9.2324         estimate D2E/DX2                !
 ! D274  D(32,34,51,54)       -150.5323         estimate D2E/DX2                !
 ! D275  D(19,35,36,33)        -25.865          estimate D2E/DX2                !
 ! D276  D(19,35,36,52)        123.1699         estimate D2E/DX2                !
 ! D277  D(37,35,36,33)       -143.6767         estimate D2E/DX2                !
 ! D278  D(37,35,36,52)          5.3582         estimate D2E/DX2                !
 ! D279  D(74,35,36,33)         94.8776         estimate D2E/DX2                !
 ! D280  D(74,35,36,52)       -116.0875         estimate D2E/DX2                !
 ! D281  D(19,35,37,39)         26.2524         estimate D2E/DX2                !
 ! D282  D(19,35,37,53)       -123.6796         estimate D2E/DX2                !
 ! D283  D(36,35,37,39)        143.191          estimate D2E/DX2                !
 ! D284  D(36,35,37,53)         -6.741          estimate D2E/DX2                !
 ! D285  D(74,35,37,39)        -94.0441         estimate D2E/DX2                !
 ! D286  D(74,35,37,53)        116.0239         estimate D2E/DX2                !
 ! D287  D(33,36,52,51)          5.083          estimate D2E/DX2                !
 ! D288  D(33,36,52,53)        148.2669         estimate D2E/DX2                !
 ! D289  D(35,36,52,51)       -145.3231         estimate D2E/DX2                !
 ! D290  D(35,36,52,53)         -2.1392         estimate D2E/DX2                !
 ! D291  D(35,37,39,38)         -1.2462         estimate D2E/DX2                !
 ! D292  D(35,37,39,57)       -148.4932         estimate D2E/DX2                !
 ! D293  D(53,37,39,38)        145.7162         estimate D2E/DX2                !
 ! D294  D(53,37,39,57)         -1.5308         estimate D2E/DX2                !
 ! D295  D(35,37,53,52)          5.9178         estimate D2E/DX2                !
 ! D296  D(35,37,53,55)        149.8386         estimate D2E/DX2                !
 ! D297  D(39,37,53,52)       -144.4372         estimate D2E/DX2                !
 ! D298  D(39,37,53,55)         -0.5163         estimate D2E/DX2                !
 ! D299  D(21,38,39,37)        -26.0087         estimate D2E/DX2                !
 ! D300  D(21,38,39,57)        123.4221         estimate D2E/DX2                !
 ! D301  D(42,38,39,37)       -142.5435         estimate D2E/DX2                !
 ! D302  D(42,38,39,57)          6.8873         estimate D2E/DX2                !
 ! D303  D(73,38,39,37)         95.1852         estimate D2E/DX2                !
 ! D304  D(73,38,39,57)       -115.384          estimate D2E/DX2                !
 ! D305  D(21,38,42,40)         26.2237         estimate D2E/DX2                !
 ! D306  D(21,38,42,58)       -124.1798         estimate D2E/DX2                !
 ! D307  D(39,38,42,40)        143.785          estimate D2E/DX2                !
 ! D308  D(39,38,42,58)         -6.6184         estimate D2E/DX2                !
 ! D309  D(73,38,42,40)        -94.449          estimate D2E/DX2                !
 ! D310  D(73,38,42,58)        115.1476         estimate D2E/DX2                !
 ! D311  D(37,39,57,58)        146.0889         estimate D2E/DX2                !
 ! D312  D(37,39,57,60)          1.9956         estimate D2E/DX2                !
 ! D313  D(38,39,57,58)         -4.7897         estimate D2E/DX2                !
 ! D314  D(38,39,57,60)       -148.883          estimate D2E/DX2                !
 ! D315  D(23,40,41,24)         -9.9632         estimate D2E/DX2                !
 ! D316  D(23,40,41,43)       -153.407          estimate D2E/DX2                !
 ! D317  D(42,40,41,24)        140.3465         estimate D2E/DX2                !
 ! D318  D(42,40,41,43)         -3.0973         estimate D2E/DX2                !
 ! D319  D(23,40,42,38)          3.0301         estimate D2E/DX2                !
 ! D320  D(23,40,42,58)        150.9063         estimate D2E/DX2                !
 ! D321  D(41,40,42,38)       -143.6089         estimate D2E/DX2                !
 ! D322  D(41,40,42,58)          4.2672         estimate D2E/DX2                !
 ! D323  D(24,41,43,46)         -1.2648         estimate D2E/DX2                !
 ! D324  D(24,41,43,59)       -139.2842         estimate D2E/DX2                !
 ! D325  D(40,41,43,46)        138.1615         estimate D2E/DX2                !
 ! D326  D(40,41,43,59)          0.1422         estimate D2E/DX2                !
 ! D327  D(38,42,58,57)          4.2137         estimate D2E/DX2                !
 ! D328  D(38,42,58,59)        148.9691         estimate D2E/DX2                !
 ! D329  D(40,42,58,57)       -147.4769         estimate D2E/DX2                !
 ! D330  D(40,42,58,59)         -2.7216         estimate D2E/DX2                !
 ! D331  D(41,43,46,44)         -0.3922         estimate D2E/DX2                !
 ! D332  D(41,43,46,61)       -141.9062         estimate D2E/DX2                !
 ! D333  D(59,43,46,44)        141.7303         estimate D2E/DX2                !
 ! D334  D(59,43,46,61)          0.2163         estimate D2E/DX2                !
 ! D335  D(41,43,59,58)          1.4781         estimate D2E/DX2                !
 ! D336  D(41,43,59,65)        144.435          estimate D2E/DX2                !
 ! D337  D(46,43,59,58)       -141.7631         estimate D2E/DX2                !
 ! D338  D(46,43,59,65)          1.1938         estimate D2E/DX2                !
 ! D339  D(26,44,45,28)          0.0248         estimate D2E/DX2                !
 ! D340  D(26,44,45,48)       -142.3137         estimate D2E/DX2                !
 ! D341  D(46,44,45,28)        140.3372         estimate D2E/DX2                !
 ! D342  D(46,44,45,48)         -2.0013         estimate D2E/DX2                !
 ! D343  D(26,44,46,43)          1.6868         estimate D2E/DX2                !
 ! D344  D(26,44,46,61)        139.3773         estimate D2E/DX2                !
 ! D345  D(45,44,46,43)       -133.6627         estimate D2E/DX2                !
 ! D346  D(45,44,46,61)          4.0278         estimate D2E/DX2                !
 ! D347  D(28,45,48,47)         -1.8928         estimate D2E/DX2                !
 ! D348  D(28,45,48,62)       -140.9956         estimate D2E/DX2                !
 ! D349  D(44,45,48,47)        136.6817         estimate D2E/DX2                !
 ! D350  D(44,45,48,62)         -2.4212         estimate D2E/DX2                !
 ! D351  D(43,46,61,62)        139.5826         estimate D2E/DX2                !
 ! D352  D(43,46,61,65)         -1.53           estimate D2E/DX2                !
 ! D353  D(44,46,61,62)         -1.685          estimate D2E/DX2                !
 ! D354  D(44,46,61,65)       -142.7975         estimate D2E/DX2                !
 ! D355  D(30,47,48,45)         -0.4796         estimate D2E/DX2                !
 ! D356  D(30,47,48,62)        142.106          estimate D2E/DX2                !
 ! D357  D(50,47,48,45)       -147.6622         estimate D2E/DX2                !
 ! D358  D(50,47,48,62)         -5.0766         estimate D2E/DX2                !
 ! D359  D(30,47,50,49)          1.3279         estimate D2E/DX2                !
 ! D360  D(30,47,50,63)       -142.449          estimate D2E/DX2                !
 ! D361  D(48,47,50,49)        148.666          estimate D2E/DX2                !
 ! D362  D(48,47,50,63)          4.8891         estimate D2E/DX2                !
 ! D363  D(45,48,62,61)          4.7465         estimate D2E/DX2                !
 ! D364  D(45,48,62,63)        146.3617         estimate D2E/DX2                !
 ! D365  D(47,48,62,61)       -138.2749         estimate D2E/DX2                !
 ! D366  D(47,48,62,63)          3.3404         estimate D2E/DX2                !
 ! D367  D(31,49,50,47)          1.9455         estimate D2E/DX2                !
 ! D368  D(31,49,50,63)        141.2944         estimate D2E/DX2                !
 ! D369  D(54,49,50,47)       -137.3771         estimate D2E/DX2                !
 ! D370  D(54,49,50,63)          1.9717         estimate D2E/DX2                !
 ! D371  D(31,49,54,51)          1.4956         estimate D2E/DX2                !
 ! D372  D(31,49,54,56)       -140.5365         estimate D2E/DX2                !
 ! D373  D(50,49,54,51)        144.8662         estimate D2E/DX2                !
 ! D374  D(50,49,54,56)          2.8341         estimate D2E/DX2                !
 ! D375  D(47,50,63,62)         -2.9242         estimate D2E/DX2                !
 ! D376  D(47,50,63,64)        137.8279         estimate D2E/DX2                !
 ! D377  D(49,50,63,62)       -145.5963         estimate D2E/DX2                !
 ! D378  D(49,50,63,64)         -4.8442         estimate D2E/DX2                !
 ! D379  D(34,51,52,36)          2.2371         estimate D2E/DX2                !
 ! D380  D(34,51,52,53)       -137.1222         estimate D2E/DX2                !
 ! D381  D(54,51,52,36)        138.3125         estimate D2E/DX2                !
 ! D382  D(54,51,52,53)         -1.0468         estimate D2E/DX2                !
 ! D383  D(34,51,54,49)          3.4025         estimate D2E/DX2                !
 ! D384  D(34,51,54,56)        144.8498         estimate D2E/DX2                !
 ! D385  D(52,51,54,49)       -137.0808         estimate D2E/DX2                !
 ! D386  D(52,51,54,56)          4.3664         estimate D2E/DX2                !
 ! D387  D(36,52,53,37)         -2.3101         estimate D2E/DX2                !
 ! D388  D(36,52,53,55)       -146.9893         estimate D2E/DX2                !
 ! D389  D(51,52,53,37)        141.9591         estimate D2E/DX2                !
 ! D390  D(51,52,53,55)         -2.7201         estimate D2E/DX2                !
 ! D391  D(37,53,55,56)       -136.8272         estimate D2E/DX2                !
 ! D392  D(37,53,55,60)          2.1233         estimate D2E/DX2                !
 ! D393  D(52,53,55,56)          3.2818         estimate D2E/DX2                !
 ! D394  D(52,53,55,60)        142.2323         estimate D2E/DX2                !
 ! D395  D(49,54,56,55)        133.3279         estimate D2E/DX2                !
 ! D396  D(49,54,56,64)         -4.7582         estimate D2E/DX2                !
 ! D397  D(51,54,56,55)         -3.8064         estimate D2E/DX2                !
 ! D398  D(51,54,56,64)       -141.8925         estimate D2E/DX2                !
 ! D399  D(53,55,56,54)         -0.0218         estimate D2E/DX2                !
 ! D400  D(53,55,56,64)        142.5937         estimate D2E/DX2                !
 ! D401  D(60,55,56,54)       -142.7162         estimate D2E/DX2                !
 ! D402  D(60,55,56,64)         -0.1006         estimate D2E/DX2                !
 ! D403  D(53,55,60,57)         -1.6452         estimate D2E/DX2                !
 ! D404  D(53,55,60,66)       -145.0636         estimate D2E/DX2                !
 ! D405  D(56,55,60,57)        142.1793         estimate D2E/DX2                !
 ! D406  D(56,55,60,66)         -1.239          estimate D2E/DX2                !
 ! D407  D(54,56,64,63)          1.8803         estimate D2E/DX2                !
 ! D408  D(54,56,64,66)        143.2861         estimate D2E/DX2                !
 ! D409  D(55,56,64,63)       -140.0157         estimate D2E/DX2                !
 ! D410  D(55,56,64,66)          1.3901         estimate D2E/DX2                !
 ! D411  D(39,57,58,42)          0.3371         estimate D2E/DX2                !
 ! D412  D(39,57,58,59)       -145.524          estimate D2E/DX2                !
 ! D413  D(60,57,58,42)        145.1915         estimate D2E/DX2                !
 ! D414  D(60,57,58,59)         -0.6696         estimate D2E/DX2                !
 ! D415  D(39,57,60,55)         -0.3928         estimate D2E/DX2                !
 ! D416  D(39,57,60,66)        137.9519         estimate D2E/DX2                !
 ! D417  D(58,57,60,55)       -140.432          estimate D2E/DX2                !
 ! D418  D(58,57,60,66)         -2.0873         estimate D2E/DX2                !
 ! D419  D(42,58,59,43)         -0.2441         estimate D2E/DX2                !
 ! D420  D(42,58,59,65)       -138.0951         estimate D2E/DX2                !
 ! D421  D(57,58,59,43)        141.0409         estimate D2E/DX2                !
 ! D422  D(57,58,59,65)          3.1899         estimate D2E/DX2                !
 ! D423  D(43,59,65,61)         -2.1781         estimate D2E/DX2                !
 ! D424  D(43,59,65,66)       -144.6869         estimate D2E/DX2                !
 ! D425  D(58,59,65,61)        139.5526         estimate D2E/DX2                !
[...]
    14 C(13)  Bbb    -0.0023    -0.313    -0.112    -0.104  0.0537  0.0589  0.9968
              Bcc     0.0098     1.309     0.467     0.437  0.5237  0.8483 -0.0783
 
              Baa    -0.0156    -2.096    -0.748    -0.699 -0.3818  0.1696  0.9085
    15 C(13)  Bbb    -0.0005    -0.072    -0.026    -0.024 -0.5896  0.7123 -0.3808
              Bcc     0.0162     2.168     0.774     0.723  0.7117  0.6811  0.1719
 
              Baa    -0.0199    -2.676    -0.955    -0.893 -0.5736 -0.4120  0.7079
    16 C(13)  Bbb    -0.0049    -0.655    -0.234    -0.218  0.8182 -0.2480  0.5187
              Bcc     0.0248     3.331     1.189     1.111 -0.0381  0.8768  0.4794
 
              Baa    -0.1225   -16.432    -5.863    -5.481 -0.1973  0.4120  0.8896
    17 C(13)  Bbb     0.0490     6.571     2.345     2.192  0.9208 -0.2335  0.3123
              Bcc     0.0735     9.861     3.519     3.289  0.3364  0.8807 -0.3333
 
              Baa    -0.3128   -41.979   -14.979   -14.003  0.0292  0.9851 -0.1696
    18 C(13)  Bbb    -0.3026   -40.605   -14.489   -13.544  0.9307  0.0351  0.3641
              Bcc     0.6154    82.584    29.468    27.547 -0.3646  0.1685  0.9158
 
              Baa    -0.0993   -13.321    -4.753    -4.443  0.8513  0.3875 -0.3538
    19 C(13)  Bbb    -0.0947   -12.705    -4.533    -4.238 -0.5218  0.6958 -0.4936
              Bcc     0.1939    26.026     9.287     8.681  0.0549  0.6048  0.7945
 
              Baa    -0.1156   -15.507    -5.533    -5.173  0.9469 -0.1464  0.2862
    20 C(13)  Bbb    -0.1075   -14.426    -5.148    -4.812 -0.3214 -0.4285  0.8444
              Bcc     0.2231    29.933    10.681     9.985  0.0010  0.8916  0.4528
 
              Baa    -0.0928   -12.457    -4.445    -4.155 -0.0295  0.7714  0.6356
    21 C(13)  Bbb     0.0413     5.540     1.977     1.848  0.9966  0.0720 -0.0411
              Bcc     0.0515     6.917     2.468     2.307  0.0775 -0.6322  0.7709
 
              Baa    -0.0067    -0.904    -0.323    -0.302 -0.2751  0.9409 -0.1974
    22 C(13)  Bbb     0.0003     0.036     0.013     0.012  0.9351  0.2142 -0.2822
              Bcc     0.0065     0.868     0.310     0.290  0.2233  0.2623  0.9388
 
              Baa    -0.0030    -0.409    -0.146    -0.136 -0.1392  0.9205  0.3650
    23 C(13)  Bbb    -0.0007    -0.093    -0.033    -0.031  0.9610  0.0366  0.2742
              Bcc     0.0037     0.501     0.179     0.167 -0.2391 -0.3889  0.8897
 
              Baa    -0.0044    -0.590    -0.211    -0.197  0.9372  0.2728  0.2174
    24 C(13)  Bbb    -0.0033    -0.443    -0.158    -0.148 -0.3393  0.5678  0.7500
              Bcc     0.0077     1.033     0.369     0.345 -0.0811  0.7767 -0.6246
 
              Baa    -0.0018    -0.235    -0.084    -0.078  0.8366 -0.3512 -0.4204
    25 C(13)  Bbb    -0.0016    -0.220    -0.079    -0.073  0.3751  0.9266 -0.0277
              Bcc     0.0034     0.455     0.162     0.152  0.3993 -0.1345  0.9069
 
              Baa    -0.0034    -0.459    -0.164    -0.153  0.2915 -0.4398  0.8495
    26 C(13)  Bbb     0.0013     0.180     0.064     0.060  0.9536  0.2036 -0.2218
              Bcc     0.0021     0.279     0.099     0.093 -0.0754  0.8747  0.4787
 
              Baa    -0.0011    -0.145    -0.052    -0.049  0.7416 -0.6495  0.1677
    27 C(13)  Bbb    -0.0009    -0.119    -0.042    -0.040  0.6475  0.6278 -0.4320
              Bcc     0.0020     0.264     0.094     0.088  0.1753  0.4290  0.8861
 
              Baa    -0.0009    -0.115    -0.041    -0.038  0.9035  0.0992  0.4169
    28 C(13)  Bbb     0.0001     0.009     0.003     0.003 -0.0867  0.9950 -0.0489
              Bcc     0.0008     0.105     0.038     0.035 -0.4197  0.0081  0.9076
 
              Baa    -0.0078    -1.049    -0.374    -0.350  0.2983  0.9497  0.0953
    29 C(13)  Bbb     0.0030     0.400     0.143     0.134  0.3864 -0.2114  0.8978
              Bcc     0.0048     0.649     0.231     0.216  0.8728 -0.2310 -0.4300
 
              Baa    -0.0014    -0.190    -0.068    -0.063  0.6479  0.6516 -0.3946
    30 C(13)  Bbb    -0.0007    -0.098    -0.035    -0.033  0.7566 -0.6106  0.2340
              Bcc     0.0021     0.287     0.102     0.096  0.0885  0.4501  0.8886
 
              Baa    -0.0049    -0.663    -0.236    -0.221  0.5503 -0.1858  0.8141
    31 C(13)  Bbb    -0.0032    -0.429    -0.153    -0.143  0.7855 -0.2154 -0.5801
              Bcc     0.0081     1.092     0.390     0.364  0.2832  0.9587  0.0275
 
              Baa    -0.0430    -5.766    -2.057    -1.923  0.6845  0.2650  0.6791
    32 C(13)  Bbb    -0.0380    -5.100    -1.820    -1.701 -0.6360  0.6724  0.3787
              Bcc     0.0810    10.866     3.877     3.625  0.3563  0.6911 -0.6288
 
              Baa    -0.1036   -13.899    -4.960    -4.636 -0.2435 -0.2259  0.9432
    33 C(13)  Bbb     0.0377     5.059     1.805     1.687  0.5028  0.8022  0.3219
              Bcc     0.0659     8.840     3.155     2.949  0.8294 -0.5526  0.0818
 
              Baa    -0.0433    -5.815    -2.075    -1.940  0.1529  0.8531 -0.4988
    34 C(13)  Bbb     0.0195     2.622     0.935     0.875  0.3536  0.4241  0.8337
              Bcc     0.0238     3.193     1.139     1.065  0.9228 -0.3039 -0.2368
 
              Baa    -0.0087    -1.173    -0.418    -0.391 -0.2650  0.0940  0.9597
    35 C(13)  Bbb     0.0022     0.300     0.107     0.100 -0.4848  0.8473 -0.2168
              Bcc     0.0065     0.873     0.312     0.291  0.8335  0.5227  0.1789
 
              Baa    -0.1050   -14.089    -5.027    -4.700  0.8402  0.5404 -0.0458
    36 C(13)  Bbb    -0.0991   -13.301    -4.746    -4.437 -0.5302  0.8363  0.1396
              Bcc     0.2041    27.390     9.774     9.136  0.1137 -0.0930  0.9892
 
              Baa    -0.0103    -1.385    -0.494    -0.462  0.4041  0.1305  0.9054
    37 C(13)  Bbb     0.0017     0.224     0.080     0.075 -0.1677  0.9836 -0.0669
              Bcc     0.0087     1.161     0.414     0.387  0.8992  0.1248 -0.4193
 
              Baa    -0.0011    -0.152    -0.054    -0.051 -0.1314  0.4207  0.8976
    38 C(13)  Bbb    -0.0006    -0.082    -0.029    -0.027 -0.5494  0.7228 -0.4192
              Bcc     0.0017     0.234     0.084     0.078  0.8251  0.5483 -0.1362
 
              Baa    -0.0046    -0.618    -0.221    -0.206 -0.4545  0.8664 -0.2067
    39 C(13)  Bbb    -0.0021    -0.280    -0.100    -0.093 -0.4531 -0.0251  0.8911
              Bcc     0.0067     0.898     0.320     0.300  0.7669  0.4987  0.4040
 
              Baa    -0.0024    -0.323    -0.115    -0.108  0.1497  0.9563  0.2512
    40 C(13)  Bbb    -0.0013    -0.173    -0.062    -0.058  0.6429 -0.2872  0.7100
              Bcc     0.0037     0.496     0.177     0.165  0.7512  0.0552 -0.6578
 
              Baa    -0.0045    -0.599    -0.214    -0.200  0.2614  0.8406 -0.4744
    41 C(13)  Bbb     0.0017     0.229     0.082     0.076  0.7543  0.1289  0.6438
              Bcc     0.0028     0.369     0.132     0.123  0.6023 -0.5261 -0.6003
 
              Baa    -0.0013    -0.178    -0.064    -0.059  0.0912 -0.0593  0.9941
    42 C(13)  Bbb     0.0003     0.039     0.014     0.013 -0.2764  0.9575  0.0825
              Bcc     0.0010     0.139     0.050     0.046  0.9567  0.2823 -0.0709
 
              Baa    -0.0035    -0.471    -0.168    -0.157  0.7859  0.1222  0.6061
    43 C(13)  Bbb    -0.0031    -0.413    -0.147    -0.138 -0.4164  0.8293  0.3727
              Bcc     0.0066     0.885     0.316     0.295 -0.4571 -0.5453  0.7026
 
              Baa    -0.0038    -0.509    -0.182    -0.170  0.8022  0.5874  0.1071
    44 C(13)  Bbb    -0.0033    -0.449    -0.160    -0.150 -0.5915  0.8063  0.0077
              Bcc     0.0071     0.958     0.342     0.319 -0.0818 -0.0695  0.9942
 
              Baa    -0.0039    -0.524    -0.187    -0.175  0.1803  0.2714  0.9454
    45 C(13)  Bbb     0.0019     0.257     0.092     0.086  0.9265 -0.3695 -0.0706
              Bcc     0.0020     0.267     0.095     0.089  0.3301  0.8887 -0.3181
 
              Baa    -0.0047    -0.631    -0.225    -0.211 -0.4557 -0.1376  0.8794
    46 C(13)  Bbb     0.0020     0.264     0.094     0.088  0.6631  0.6067  0.4385
              Bcc     0.0027     0.368     0.131     0.123 -0.5938  0.7830 -0.1853
 
              Baa    -0.0043    -0.582    -0.208    -0.194  0.2506  0.8332  0.4929
    47 C(13)  Bbb     0.0019     0.252     0.090     0.084  0.7050 -0.5060  0.4969
              Bcc     0.0025     0.330     0.118     0.110 -0.6634 -0.2230  0.7142
 
              Baa    -0.0020    -0.273    -0.097    -0.091  0.4887  0.7807 -0.3895
    48 C(13)  Bbb    -0.0018    -0.245    -0.087    -0.082  0.8690 -0.3958  0.2968
              Bcc     0.0039     0.518     0.185     0.173 -0.0776  0.4835  0.8719
 
              Baa    -0.0068    -0.907    -0.324    -0.303  0.8197  0.1094  0.5622
    49 C(13)  Bbb    -0.0053    -0.714    -0.255    -0.238 -0.5492 -0.1284  0.8258
              Bcc     0.0121     1.622     0.579     0.541 -0.1625  0.9857  0.0452
 
              Baa    -0.0064    -0.866    -0.309    -0.289 -0.1340  0.9529  0.2721
    50 C(13)  Bbb     0.0025     0.341     0.122     0.114  0.6990 -0.1037  0.7076
              Bcc     0.0039     0.524     0.187     0.175  0.7025  0.2850 -0.6521
 
              Baa    -0.0566    -7.593    -2.709    -2.533  0.7417  0.5295  0.4117
    51 C(13)  Bbb    -0.0530    -7.114    -2.538    -2.373 -0.6310  0.3427  0.6960
              Bcc     0.1096    14.706     5.247     4.905 -0.2275  0.7760 -0.5883
 
              Baa    -0.0454    -6.096    -2.175    -2.034  0.3122 -0.4723  0.8243
    52 C(13)  Bbb     0.0171     2.291     0.818     0.764  0.8729  0.4850 -0.0527
              Bcc     0.0284     3.805     1.358     1.269 -0.3749  0.7360  0.5637
 
              Baa    -0.0180    -2.414    -0.861    -0.805  0.3239  0.9452 -0.0408
    53 C(13)  Bbb    -0.0155    -2.083    -0.743    -0.695  0.6998 -0.2684 -0.6620
              Bcc     0.0335     4.497     1.605     1.500  0.6367 -0.1859  0.7484
 
              Baa    -0.0270    -3.618    -1.291    -1.207 -0.4076  0.8547 -0.3215
    54 C(13)  Bbb     0.0113     1.519     0.542     0.507  0.6376  0.5184  0.5698
              Bcc     0.0156     2.099     0.749     0.700 -0.6537 -0.0272  0.7563
 
              Baa    -0.0186    -2.491    -0.889    -0.831  0.7910 -0.3973  0.4652
    55 C(13)  Bbb     0.0082     1.098     0.392     0.366  0.5754  0.7414 -0.3452
              Bcc     0.0104     1.392     0.497     0.464 -0.2078  0.5408  0.8151
 
              Baa    -0.0285    -3.831    -1.367    -1.278  0.6715  0.7306  0.1235
    56 C(13)  Bbb    -0.0264    -3.540    -1.263    -1.181 -0.2186  0.0361  0.9751
              Bcc     0.0549     7.370     2.630     2.458  0.7080 -0.6818  0.1840
 
              Baa    -0.0075    -1.008    -0.360    -0.336  0.8402  0.3891  0.3777
    57 C(13)  Bbb     0.0032     0.425     0.152     0.142 -0.1995  0.8694 -0.4520
              Bcc     0.0043     0.583     0.208     0.195 -0.5042  0.3044  0.8081
 
              Baa    -0.0011    -0.152    -0.054    -0.051  0.2904  0.2688  0.9184
    58 C(13)  Bbb    -0.0009    -0.114    -0.041    -0.038 -0.3598  0.9200 -0.1555
              Bcc     0.0020     0.267     0.095     0.089  0.8867  0.2853 -0.3639
 
              Baa    -0.0017    -0.230    -0.082    -0.077  0.7565  0.5683 -0.3235
    59 C(13)  Bbb     0.0008     0.106     0.038     0.035  0.5550 -0.2964  0.7773
              Bcc     0.0009     0.125     0.044     0.042 -0.3459  0.7676  0.5396
 
              Baa    -0.0029    -0.389    -0.139    -0.130 -0.0185  0.9304 -0.3661
    60 C(13)  Bbb    -0.0019    -0.254    -0.090    -0.085 -0.1313  0.3608  0.9234
              Bcc     0.0048     0.643     0.229     0.214  0.9912  0.0651  0.1155
 
              Baa    -0.0097    -1.305    -0.466    -0.435  0.6486  0.6602  0.3788
    61 C(13)  Bbb    -0.0092    -1.229    -0.439    -0.410 -0.4390  0.7310 -0.5224
              Bcc     0.0189     2.534     0.904     0.845 -0.6218  0.1725  0.7640
 
              Baa    -0.0071    -0.956    -0.341    -0.319 -0.4818  0.5217  0.7040
    62 C(13)  Bbb     0.0029     0.392     0.140     0.131  0.8762  0.2966  0.3799
              Bcc     0.0042     0.564     0.201     0.188 -0.0107  0.7999 -0.6001
 
              Baa    -0.0160    -2.151    -0.767    -0.717  0.8713  0.3575  0.3361
    63 C(13)  Bbb    -0.0151    -2.023    -0.722    -0.675 -0.0892 -0.5581  0.8250
              Bcc     0.0311     4.174     1.489     1.392 -0.4825  0.7488  0.4544
 
              Baa    -0.0106    -1.418    -0.506    -0.473  0.7233 -0.6638 -0.1900
    64 C(13)  Bbb     0.0041     0.552     0.197     0.184  0.6636  0.7444 -0.0743
              Bcc     0.0064     0.865     0.309     0.289  0.1908 -0.0724  0.9790
 
              Baa    -0.0032    -0.433    -0.155    -0.145  0.8255 -0.1610 -0.5410
    65 C(13)  Bbb     0.0014     0.183     0.065     0.061 -0.0140  0.9523 -0.3048
              Bcc     0.0019     0.250     0.089     0.083  0.5642  0.2592  0.7839
 
              Baa    -0.0030    -0.408    -0.145    -0.136  0.3176  0.9303  0.1836
    66 C(13)  Bbb    -0.0026    -0.347    -0.124    -0.116  0.2750 -0.2756  0.9211
              Bcc     0.0056     0.755     0.269     0.252  0.9075 -0.2420 -0.3433
 
              Baa    -0.0255    -1.335    -0.476    -0.445 -0.6246  0.7713 -0.1225
    67 Cl(35) Bbb     0.0093     0.486     0.174     0.162 -0.3814 -0.1643  0.9097
              Bcc     0.0162     0.849     0.303     0.283  0.6815  0.6149  0.3967
 
              Baa    -0.0052    -0.270    -0.096    -0.090  0.5650  0.6457  0.5137
    68 Cl(35) Bbb    -0.0019    -0.102    -0.036    -0.034 -0.6415 -0.0477  0.7656
              Bcc     0.0071     0.372     0.133     0.124 -0.5189  0.7621 -0.3873
 
              Baa    -0.0300    -1.569    -0.560    -0.523 -0.3170  0.2016  0.9268
    69 Cl(35) Bbb    -0.0272    -1.424    -0.508    -0.475 -0.2566  0.9225 -0.2884
              Bcc     0.0572     2.993     1.068     0.998  0.9131  0.3292  0.2407
 
              Baa    -0.0054    -0.285    -0.102    -0.095 -0.4240 -0.5824  0.6936
    70 Cl(35) Bbb    -0.0006    -0.031    -0.011    -0.010  0.7432 -0.6614 -0.1010
              Bcc     0.0060     0.316     0.113     0.105  0.5175  0.4726  0.7133
 
              Baa    -0.0310    -1.620    -0.578    -0.541 -0.5273  0.6775 -0.5129
    71 Cl(35) Bbb     0.0124     0.652     0.233     0.217  0.8055  0.2065 -0.5554
              Bcc     0.0185     0.969     0.346     0.323  0.2704  0.7060  0.6546
 
              Baa    -0.0795    -4.160    -1.484    -1.388 -0.2738  0.4858  0.8301
    72 Cl(35) Bbb    -0.0669    -3.500    -1.249    -1.167  0.9481 -0.0084  0.3177
              Bcc     0.1464     7.660     2.733     2.555  0.1613  0.8741 -0.4583
 
              Baa    -0.0536    -2.804    -1.001    -0.935  0.7455  0.6025  0.2851
    73 Cl(35) Bbb     0.0230     1.204     0.430     0.402 -0.1295 -0.2886  0.9486
              Bcc     0.0306     1.600     0.571     0.534 -0.6538  0.7441  0.1371
 
              Baa    -0.1558    -8.152    -2.909    -2.719  0.9505 -0.0021 -0.3107
    74 Cl(35) Bbb    -0.1369    -7.163    -2.556    -2.389 -0.0970  0.9480 -0.3033
              Bcc     0.2926    15.315     5.465     5.108  0.2952  0.3184  0.9008
 
              Baa    -0.2560   -13.399    -4.781    -4.469 -0.0895  0.7258  0.6821
    75 Cl(35) Bbb    -0.2331   -12.201    -4.354    -4.070  0.7020 -0.4399  0.5602
              Bcc     0.4891    25.600     9.135     8.539  0.7066  0.5289 -0.4701
 

 ---------------------------------------------------------------------------------

 No NMR shielding tensors so no spin-rotation constants.
 Leave Link  601 at Sat Jul 16 09:05:59 2022, MaxMem=  1342177280 cpu:             108.1 elap:               2.5
 (Enter /home/mkliu/g16/l9999.exe)
 1\1\GINC-NODE03\FOpt\UB3LYP\6-311G(d,p)\C66Cl9(2)\MKLIU\16-Jul-2022\0\
 \#P opt b3lyp/6-311G(d, p) empiricaldispersion=GD3\\force\\0,2\C,-1.30
 61186024,1.8925066073,-3.9826662171\C,0.2214856913,2.2652340919,-3.994
 5919347\C,1.0123304069,0.920840596,-4.4141425207\C,-1.2152690916,0.418
 1046492,-3.8508001969\C,-0.0311951051,-0.1139288048,-4.1505180653\C,-2
 .1322617372,-0.1238195515,-2.8977427752\C,-2.2041400666,2.2894484458,-
 2.7000516031\C,-2.6692627488,0.9182680102,-2.153890409\C,-1.4652004849
 ,2.9473952924,-1.5443195508\C,0.7144198792,2.5021684995,-2.6121495309\
 C,-0.0452601194,3.1503585178,-1.5900042338\C,2.1986400037,0.7714091471
 ,-3.3334056456\C,1.858757012,1.8141793141,-2.3159218437\C,2.2723433795
 ,-0.5667115083,-2.587501061\C,0.244326163,-1.5138883152,-3.8137705872\
 C,1.4801802918,-1.6323677739,-2.9463379504\C,-1.9138475712,-1.41174443
 25,-2.361795105\C,-0.8085291866,-2.1411339859,-2.8923504869\C,-2.42968
 57877,-1.6808973321,-1.0539948337\C,-3.0735958199,0.6912451306,-0.8354
 792499\C,-3.0053469003,-0.6325923283,-0.3048091983\C,-2.0881339864,2.9
 112161964,-0.3097179161\C,-3.2152675384,1.9208309534,0.0494780269\C,-1
 .3839831312,3.2488446459,0.8817618341\C,0.653853524,3.410980895,-0.402
 5562362\C,-0.0270709927,3.560697648,0.8446449999\C,2.4442356386,1.8322
 106737,-1.0175030499\C,1.9324218098,2.7946628828,-0.1361907832\C,2.937
 1314008,-0.600092072,-1.2780185263\C,3.0945333399,0.6367975554,-0.5022
 73254\C,2.9286469252,-1.8151244825,-0.5588492666\C,1.2783309786,-2.748
 4598128,-2.0739311762\C,-0.1347634889,-3.0616027799,-2.0326848172\C,2.
 0522734493,-2.8942416751,-0.9450911409\C,-2.0881186833,-3.0305170247,-
 0.4258751163\C,-0.7054918693,-3.499127152,-0.8594818502\C,-1.923450301
 1,-2.9328755651,1.0751210353\C,-3.3726776217,-0.8609266408,1.166571974
 8\C,-2.5175998195,-1.9460119999,1.8027356277\C,-2.9001367265,1.6043761
 603,1.4940903669\C,-1.9117540688,2.5026888343,2.0019173262\C,-3.011804
 4621,0.3490624574,2.0145123396\C,-1.081685944,2.1349780474,3.061042556
 4\C,0.8489671255,3.12121909,1.9105146271\C,2.0689761163,2.6566965318,1
 .2880252868\C,0.3371497456,2.4468854564,3.0114568951\C,3.2843204981,0.
 5597471377,0.8937585048\C,2.74941196,1.5648077724,1.7949276374\C,3.034
 8808486,-1.8638851043,0.8813582186\C,3.2301067083,-0.7002163464,1.5976
 022943\C,1.49262038,-3.4890298072,0.24434509\C,0.114051978,-3.74568370
 9,0.2799658034\C,-0.6440076961,-3.4463942307,1.4734148277\C,2.13311112
 66,-2.8848658728,1.3846367626\C,0.0019185439,-2.9580765575,2.6101158\C
 ,1.4232586834,-2.6616094604,2.5622099077\C,-1.8785609481,-1.4486261605
 ,2.9849799567\C,-2.1782415407,-0.0426251622,3.111520313\C,-1.229965720
 1,0.8324440338,3.6462736029\C,-0.6397784028,-1.9433387072,3.3980331708
 \C,1.0611547579,1.3244333691,3.5721775281\C,2.2637736518,0.9067351881,
 2.9904103142\C,2.5615280085,-0.4997140883,2.8685180445\C,1.6490904227,
 -1.4533024899,3.3275192672\C,0.0908696053,0.3336152974,3.994249858\C,0
 .3781359273,-1.021788542,3.8746619358\Cl,-2.0993219955,2.2434292948,-5
 .5675141847\Cl,0.6311106087,3.7341195508,-4.9589118517\Cl,1.5431714902
 ,0.8604532647,-6.1302576589\Cl,3.8655693032,1.1063335485,-4.0295369363
 \Cl,-3.6008104171,3.3730915331,-3.1363624024\Cl,-4.9211325999,2.621005
 5073,-0.0442082786\Cl,-5.1730017374,-1.2621964155,1.2669919503\Cl,-3.4
 086733103,-4.2532007303,-0.8920121145\Cl,0.405040267,-2.5534585901,-5.
 3629240845\\Version=ES64L-G16RevA.03\State=2-A\HF=-6657.4572748\S2=0.7
 86897\S2-1=0.\S2A=0.751219\RMSD=7.569e-09\RMSF=1.710e-05\Dipole=1.0706
 916,-0.1216974,2.0657759\Quadrupole=-3.899818,3.9182011,-0.0183831,-2.
 4714762,7.0904835,1.7121754\PG=C01 [X(C66Cl9)]\\@


 Where a calculator on the ENIAC is equipped with 18,000
 vacuum tubes and weighs 30 tons, computers inthe future
 may  have only 1,000 vacuum tubes and weigh only 1 1/2 tons.
              ---Popular Mechanics, March 1949
 Job cpu time:       5 days  9 hours 39 minutes 13.3 seconds.
 Elapsed time:       0 days  2 hours 42 minutes 19.2 seconds.
 File lengths (MBytes):  RWF=   2194 Int=      0 D2E=      0 Chk=    198 Scr=      1
 Normal termination of Gaussian 16 at Sat Jul 16 09:06:01 2022.
