 Entering Gaussian System, Link 0=g16
 Input=euvkbx1korsao_addon_9.gjf
 Output=euvkbx1korsao_addon_9.log
 Initial command:
 /home/mkliu/g16/l1.exe "/data/scratch/Gau-61390.inp" -scrdir="/data/scratch/"
 Entering Link 1 = /home/mkliu/g16/l1.exe PID=     61391.
  
 Copyright (c) 1988,1990,1992,1993,1995,1998,2003,2009,2016,
            Gaussian, Inc.  All Rights Reserved.
  
 This is part of the Gaussian(R) 16 program.  It is based on
 the Gaussian(R) 09 system (copyright 2009, Gaussian, Inc.),
 the Gaussian(R) 03 system (copyright 2003, Gaussian, Inc.),
 the Gaussian(R) 98 system (copyright 1998, Gaussian, Inc.),
 the Gaussian(R) 94 system (copyright 1995, Gaussian, Inc.),
 the Gaussian 92(TM) system (copyright 1992, Gaussian, Inc.),
 the Gaussian 90(TM) system (copyright 1990, Gaussian, Inc.),
 the Gaussian 88(TM) system (copyright 1988, Gaussian, Inc.),
 the Gaussian 86(TM) system (copyright 1986, Carnegie Mellon
 University), and the Gaussian 82(TM) system (copyright 1983,
 Carnegie Mellon University). Gaussian is a federally registered
 trademark of Gaussian, Inc.
  
 This software contains proprietary and confidential information,
 including trade secrets, belonging to Gaussian, Inc.
  
 This software is provided under written license and may be
 used, copied, transmitted, or stored only in accord with that
 written license.
  
 The following legend is applicable only to US Government
 contracts under FAR:
  
                    RESTRICTED RIGHTS LEGEND
  
 Use, reproduction and disclosure by the US Government is
 subject to restrictions as set forth in subparagraphs (a)
 and (c) of the Commercial Computer Software - Restricted
 Rights clause in FAR 52.227-19.
  
 Gaussian, Inc.
 340 Quinnipiac St., Bldg. 40, Wallingford CT 06492
  
  
 ---------------------------------------------------------------
 Warning -- This program may not be used in any manner that
 competes with the business of Gaussian, Inc. or will provide
 assistance to any competitor of Gaussian, Inc.  The licensee
 of this program is prohibited from giving any competitor of
 Gaussian, Inc. access to this program.  By using this program,
 the user acknowledges that Gaussian, Inc. is engaged in the
 business of creating and licensing software in the field of
 computational chemistry and represents and warrants to the
 licensee that it is not a competitor of Gaussian, Inc. and that
 it will not use this program in any manner prohibited above.
 ---------------------------------------------------------------
  

 Cite this work as:
 Gaussian 16, Revision A.03,
 M. J. Frisch, G. W. Trucks, H. B. Schlegel, G. E. Scuseria, 
 M. A. Robb, J. R. Cheeseman, G. Scalmani, V. Barone, 
 G. A. Petersson, H. Nakatsuji, X. Li, M. Caricato, A. V. Marenich, 
 J. Bloino, B. G. Janesko, R. Gomperts, B. Mennucci, H. P. Hratchian, 
 J. V. Ortiz, A. F. Izmaylov, J. L. Sonnenberg, D. Williams-Young, 
 F. Ding, F. Lipparini, F. Egidi, J. Goings, B. Peng, A. Petrone, 
 T. Henderson, D. Ranasinghe, V. G. Zakrzewski, J. Gao, N. Rega, 
 G. Zheng, W. Liang, M. Hada, M. Ehara, K. Toyota, R. Fukuda, 
 J. Hasegawa, M. Ishida, T. Nakajima, Y. Honda, O. Kitao, H. Nakai, 
 T. Vreven, K. Throssell, J. A. Montgomery, Jr., J. E. Peralta, 
 F. Ogliaro, M. J. Bearpark, J. J. Heyd, E. N. Brothers, K. N. Kudin, 
 V. N. Staroverov, T. A. Keith, R. Kobayashi, J. Normand, 
 K. Raghavachari, A. P. Rendell, J. C. Burant, S. S. Iyengar, 
 J. Tomasi, M. Cossi, J. M. Millam, M. Klene, C. Adamo, R. Cammi, 
 J. W. Ochterski, R. L. Martin, K. Morokuma, O. Farkas, 
 J. B. Foresman, and D. J. Fox, Gaussian, Inc., Wallingford CT, 2016.
 
 ******************************************
 Gaussian 16:  ES64L-G16RevA.03 25-Dec-2016
                15-Jul-2022 
 ******************************************
 %mem=10GB
 %chk=euvkbx1korsao_addon_9.chk
 %nprocshared=48
 Will use up to   48 processors via shared memory.
 -------------------------------------------------
 #P opt b3lyp/6-311G(d, p) empiricaldispersion=GD3
 -------------------------------------------------
 1/18=20,19=15,26=3,38=1/1,3;
 2/9=110,12=2,17=6,18=5,40=1/2;
 3/5=4,6=6,7=101,11=2,25=1,30=1,71=1,74=-5,124=31/1,2,3;
 4//1;
 5/5=2,38=5/2;
 6/7=2,8=2,9=2,10=2,28=1/1;
 7//1,2,3,16;
 1/18=20,19=15,26=3/3(2);
 2/9=110/2;
 99//99;
 2/9=110/2;
 3/5=4,6=6,7=101,11=2,25=1,30=1,71=1,74=-5,124=31/1,2,3;
 4/5=5,16=3,69=1/1;
 5/5=2,38=5/2;
 7//1,2,3,16;
 1/18=20,19=15,26=3/3(-5);
 2/9=110/2;
 6/7=2,8=2,9=2,10=2,19=2,28=1/1;
 99/9=1/99;
 Leave Link    1 at Fri Jul 15 16:07:47 2022, MaxMem=  1342177280 cpu:               2.1 elap:               0.1
 (Enter /home/mkliu/g16/l101.exe)
 -----
 force
 -----
 Symbolic Z-matrix:
 Charge =  0 Multiplicity = 2
 C                    -1.31415   1.86721  -3.89183 
 C                     0.19264   2.24118  -4.07967 
 C                     0.91874   0.87831  -4.22626 
 C                    -1.49569   0.35327  -4.23272 
 C                    -0.12288  -0.1703   -4.08672 
 C                    -2.46033  -0.24443  -3.14479 
 C                    -1.79329   1.94233  -2.4997 
 C                    -2.52601   0.85081  -2.13528 
 C                    -1.32656   2.84904  -1.52458 
 C                     0.86004   2.90805  -2.81718 
 C                     0.03829   3.24339  -1.59838 
 C                     1.77747   0.71865  -3.01561 
 C                     1.81352   1.86585  -2.26075 
 C                     2.14727  -0.50952  -2.47261 
 C                     0.17969  -1.35339  -3.56495 
 C                     1.56539  -1.75451  -3.11379 
 C                    -2.00119  -1.48858  -2.42243 
 C                    -0.8319   -2.09832  -2.81047 
 C                    -2.52669  -1.78158  -1.09526 
 C                    -3.0167    0.63888  -0.82378 
 C                    -3.10174  -0.70891  -0.30543 
 C                    -1.97804   2.78213  -0.30882 
 C                    -2.86204   1.71776   0.0336 
 C                    -1.35167   3.21932   0.89112 
 C                     0.69805   3.46371  -0.41118 
 C                    -0.01301   3.5174    0.83116 
 C                     2.3946    1.85248  -1.00238 
 C                     2.12839   3.05242  -0.12582 
 C                     2.78783  -0.53564  -1.234 
 C                     2.92037   0.66241  -0.47811 
 C                     3.09763  -1.8892   -0.60904 
 C                     1.27093  -2.78756  -2.07516 
 C                    -0.14074  -3.04171  -2.00799 
 C                     2.01523  -2.88519  -0.95067 
 C                    -1.94144  -2.84565  -0.39979 
 C                    -0.72927  -3.46652  -0.84097 
 C                    -1.93531  -2.91976   1.03409 
 C                    -3.13679  -0.83043   1.093 
 C                    -2.5413   -1.93803   1.77353 
 C                    -2.85911   1.56298   1.44786 
 C                    -1.91322   2.49634   1.99514 
 C                    -3.01141   0.30142   1.96977 
 C                    -1.10365   2.10693   3.04109 
 C                     0.83782   3.09062   1.90745 
 C                     2.06053   2.69907   1.32827 
 C                     0.29352   2.41239   3.00168 
 C                     3.23711   0.57771   0.9422 
 C                     2.70608   1.57931   1.81561 
 C                     2.99625  -1.8667    0.88337 
 C                     3.16589  -0.69544   1.58851 
 C                     1.43941  -3.44562   0.2339 
 C                     0.09385  -3.75801   0.29299 
 C                    -0.67279  -3.46759   1.46586 
 C                     2.07944  -2.83546   1.36185 
 C                    -0.04421  -2.94753   2.58317 
 C                     1.35098  -2.63399   2.53395 
 C                    -1.94526  -1.46809   3.00115 
 C                    -2.23757  -0.07416   3.1227 
 C                    -1.28516   0.79886   3.62535 
 C                    -0.70413  -1.94175   3.37828 
 C                     0.99501   1.29442   3.55342 
 C                     2.19033   0.89661   2.9831 
 C                     2.47758  -0.50231   2.84709 
 C                     1.56659  -1.44011   3.29085 
 C                     0.01834   0.31635   3.97366 
 C                     0.30186  -1.03328   3.8474 
 Cl                   -2.42295   2.91075  -4.83011 
 Cl                    0.37093   3.20865  -5.55606 
 Cl                    1.85858   0.65541  -5.72521 
 Cl                    2.67004  -2.368    -4.38587 
 Cl                   -2.04133   0.10726  -5.91025 
 Cl                   -4.10989  -0.5531   -3.82295 
 Cl                    1.80025   4.37482  -3.28089 
 Cl                    3.37151   4.33472  -0.43313 
 Cl                    4.73248  -2.39633  -1.2288 
 
 ITRead=  0  0  0  0  0  0  0  0  0  0  0  0  0  0  0  0  0  0  0  0
 ITRead=  0  0  0  0  0  0  0  0  0  0  0  0  0  0  0  0  0  0  0  0
 ITRead=  0  0  0  0  0  0  0  0  0  0  0  0  0  0  0  0  0  0  0  0
 ITRead=  0  0  0  0  0  0  0  0  0  0  0  0  0  0  0
 MicOpt= -1 -1 -1 -1 -1 -1 -1 -1 -1 -1 -1 -1 -1 -1 -1 -1 -1 -1 -1 -1
 MicOpt= -1 -1 -1 -1 -1 -1 -1 -1 -1 -1 -1 -1 -1 -1 -1 -1 -1 -1 -1 -1
 MicOpt= -1 -1 -1 -1 -1 -1 -1 -1 -1 -1 -1 -1 -1 -1 -1 -1 -1 -1 -1 -1
 MicOpt= -1 -1 -1 -1 -1 -1 -1 -1 -1 -1 -1 -1 -1 -1 -1
 NAtoms=     75 NQM=       75 NQMF=       0 NMMI=      0 NMMIF=      0
                NMic=       0 NMicF=      0.
                    Isotopes and Nuclear Properties:
 (Nuclear quadrupole moments (NQMom) in fm**2, nuclear magnetic moments (NMagM)
  in nuclear magnetons)

  Atom         1           2           3           4           5           6           7           8           9          10
 IAtWgt=          12          12          12          12          12          12          12          12          12          12
 AtmWgt=  12.0000000  12.0000000  12.0000000  12.0000000  12.0000000  12.0000000  12.0000000  12.0000000  12.0000000  12.0000000
 NucSpn=           0           0           0           0           0           0           0           0           0           0
 AtZEff=  -0.0000000  -0.0000000  -0.0000000  -0.0000000  -0.0000000  -0.0000000  -0.0000000  -0.0000000  -0.0000000  -0.0000000
 NQMom=    0.0000000   0.0000000   0.0000000   0.0000000   0.0000000   0.0000000   0.0000000   0.0000000   0.0000000   0.0000000
 NMagM=    0.0000000   0.0000000   0.0000000   0.0000000   0.0000000   0.0000000   0.0000000   0.0000000   0.0000000   0.0000000
 AtZNuc=   6.0000000   6.0000000   6.0000000   6.0000000   6.0000000   6.0000000   6.0000000   6.0000000   6.0000000   6.0000000

  Atom        11          12          13          14          15          16          17          18          19          20
 IAtWgt=          12          12          12          12          12          12          12          12          12          12
 AtmWgt=  12.0000000  12.0000000  12.0000000  12.0000000  12.0000000  12.0000000  12.0000000  12.0000000  12.0000000  12.0000000
 NucSpn=           0           0           0           0           0           0           0           0           0           0
 AtZEff=  -0.0000000  -0.0000000  -0.0000000  -0.0000000  -0.0000000  -0.0000000  -0.0000000  -0.0000000  -0.0000000  -0.0000000
 NQMom=    0.0000000   0.0000000   0.0000000   0.0000000   0.0000000   0.0000000   0.0000000   0.0000000   0.0000000   0.0000000
 NMagM=    0.0000000   0.0000000   0.0000000   0.0000000   0.0000000   0.0000000   0.0000000   0.0000000   0.0000000   0.0000000
 AtZNuc=   6.0000000   6.0000000   6.0000000   6.0000000   6.0000000   6.0000000   6.0000000   6.0000000   6.0000000   6.0000000

  Atom        21          22          23          24          25          26          27          28          29          30
 IAtWgt=          12          12          12          12          12          12          12          12          12          12
 AtmWgt=  12.0000000  12.0000000  12.0000000  12.0000000  12.0000000  12.0000000  12.0000000  12.0000000  12.0000000  12.0000000
 NucSpn=           0           0           0           0           0           0           0           0           0           0
 AtZEff=  -0.0000000  -0.0000000  -0.0000000  -0.0000000  -0.0000000  -0.0000000  -0.0000000  -0.0000000  -0.0000000  -0.0000000
 NQMom=    0.0000000   0.0000000   0.0000000   0.0000000   0.0000000   0.0000000   0.0000000   0.0000000   0.0000000   0.0000000
 NMagM=    0.0000000   0.0000000   0.0000000   0.0000000   0.0000000   0.0000000   0.0000000   0.0000000   0.0000000   0.0000000
 AtZNuc=   6.0000000   6.0000000   6.0000000   6.0000000   6.0000000   6.0000000   6.0000000   6.0000000   6.0000000   6.0000000

  Atom        31          32          33          34          35          36          37          38          39          40
 IAtWgt=          12          12          12          12          12          12          12          12          12          12
 AtmWgt=  12.0000000  12.0000000  12.0000000  12.0000000  12.0000000  12.0000000  12.0000000  12.0000000  12.0000000  12.0000000
 NucSpn=           0           0           0           0           0           0           0           0           0           0
 AtZEff=  -0.0000000  -0.0000000  -0.0000000  -0.0000000  -0.0000000  -0.0000000  -0.0000000  -0.0000000  -0.0000000  -0.0000000
 NQMom=    0.0000000   0.0000000   0.0000000   0.0000000   0.0000000   0.0000000   0.0000000   0.0000000   0.0000000   0.0000000
 NMagM=    0.0000000   0.0000000   0.0000000   0.0000000   0.0000000   0.0000000   0.0000000   0.0000000   0.0000000   0.0000000
 AtZNuc=   6.0000000   6.0000000   6.0000000   6.0000000   6.0000000   6.0000000   6.0000000   6.0000000   6.0000000   6.0000000

  Atom        41          42          43          44          45          46          47          48          49          50
 IAtWgt=          12          12          12          12          12          12          12          12          12          12
 AtmWgt=  12.0000000  12.0000000  12.0000000  12.0000000  12.0000000  12.0000000  12.0000000  12.0000000  12.0000000  12.0000000
 NucSpn=           0           0           0           0           0           0           0           0           0           0
 AtZEff=  -0.0000000  -0.0000000  -0.0000000  -0.0000000  -0.0000000  -0.0000000  -0.0000000  -0.0000000  -0.0000000  -0.0000000
 NQMom=    0.0000000   0.0000000   0.0000000   0.0000000   0.0000000   0.0000000   0.0000000   0.0000000   0.0000000   0.0000000
 NMagM=    0.0000000   0.0000000   0.0000000   0.0000000   0.0000000   0.0000000   0.0000000   0.0000000   0.0000000   0.0000000
 AtZNuc=   6.0000000   6.0000000   6.0000000   6.0000000   6.0000000   6.0000000   6.0000000   6.0000000   6.0000000   6.0000000

  Atom        51          52          53          54          55          56          57          58          59          60
 IAtWgt=          12          12          12          12          12          12          12          12          12          12
 AtmWgt=  12.0000000  12.0000000  12.0000000  12.0000000  12.0000000  12.0000000  12.0000000  12.0000000  12.0000000  12.0000000
 NucSpn=           0           0           0           0           0           0           0           0           0           0
 AtZEff=  -0.0000000  -0.0000000  -0.0000000  -0.0000000  -0.0000000  -0.0000000  -0.0000000  -0.0000000  -0.0000000  -0.0000000
 NQMom=    0.0000000   0.0000000   0.0000000   0.0000000   0.0000000   0.0000000   0.0000000   0.0000000   0.0000000   0.0000000
 NMagM=    0.0000000   0.0000000   0.0000000   0.0000000   0.0000000   0.0000000   0.0000000   0.0000000   0.0000000   0.0000000
 AtZNuc=   6.0000000   6.0000000   6.0000000   6.0000000   6.0000000   6.0000000   6.0000000   6.0000000   6.0000000   6.0000000

  Atom        61          62          63          64          65          66          67          68          69          70
 IAtWgt=          12          12          12          12          12          12          35          35          35          35
 AtmWgt=  12.0000000  12.0000000  12.0000000  12.0000000  12.0000000  12.0000000  34.9688527  34.9688527  34.9688527  34.9688527
 NucSpn=           0           0           0           0           0           0           3           3           3           3
 AtZEff=  -0.0000000  -0.0000000  -0.0000000  -0.0000000  -0.0000000  -0.0000000  -0.0000000  -0.0000000  -0.0000000  -0.0000000
 NQMom=    0.0000000   0.0000000   0.0000000   0.0000000   0.0000000   0.0000000  -8.1650000  -8.1650000  -8.1650000  -8.1650000
 NMagM=    0.0000000   0.0000000   0.0000000   0.0000000   0.0000000   0.0000000   0.8218740   0.8218740   0.8218740   0.8218740
 AtZNuc=   6.0000000   6.0000000   6.0000000   6.0000000   6.0000000   6.0000000  17.0000000  17.0000000  17.0000000  17.0000000

  Atom        71          72          73          74          75
 IAtWgt=          35          35          35          35          35
 AtmWgt=  34.9688527  34.9688527  34.9688527  34.9688527  34.9688527
 NucSpn=           3           3           3           3           3
 AtZEff=  -0.0000000  -0.0000000  -0.0000000  -0.0000000  -0.0000000
 NQMom=   -8.1650000  -8.1650000  -8.1650000  -8.1650000  -8.1650000
 NMagM=    0.8218740   0.8218740   0.8218740   0.8218740   0.8218740
 AtZNuc=  17.0000000  17.0000000  17.0000000  17.0000000  17.0000000
 Leave Link  101 at Fri Jul 15 16:07:48 2022, MaxMem=  1342177280 cpu:              13.6 elap:               0.3
 (Enter /home/mkliu/g16/l103.exe)

 GradGradGradGradGradGradGradGradGradGradGradGradGradGradGradGradGradGrad
 Berny optimization.
 Initialization pass.
                           ----------------------------
                           !    Initial Parameters    !
                           ! (Angstroms and Degrees)  !
 --------------------------                            --------------------------
 ! Name  Definition              Value          Derivative Info.                !
 --------------------------------------------------------------------------------
 ! R1    R(1,2)                  1.5638         estimate D2E/DX2                !
 ! R2    R(1,4)                  1.5624         estimate D2E/DX2                !
 ! R3    R(1,7)                  1.4742         estimate D2E/DX2                !
 ! R4    R(1,67)                 1.7885         estimate D2E/DX2                !
 ! R5    R(2,3)                  1.5512         estimate D2E/DX2                !
 ! R6    R(2,10)                 1.5761         estimate D2E/DX2                !
 ! R7    R(2,68)                 1.7741         estimate D2E/DX2                !
 ! R8    R(3,5)                  1.4846         estimate D2E/DX2                !
 ! R9    R(3,12)                 1.4928         estimate D2E/DX2                !
 ! R10   R(3,69)                 1.7832         estimate D2E/DX2                !
 ! R11   R(4,5)                  1.4765         estimate D2E/DX2                !
 ! R12   R(4,6)                  1.5721         estimate D2E/DX2                !
 ! R13   R(4,71)                 1.7811         estimate D2E/DX2                !
 ! R14   R(5,15)                 1.328          estimate D2E/DX2                !
 ! R15   R(6,8)                  1.491          estimate D2E/DX2                !
 ! R16   R(6,17)                 1.5101         estimate D2E/DX2                !
 ! R17   R(6,72)                 1.81           estimate D2E/DX2                !
 ! R18   R(7,8)                  1.3642         estimate D2E/DX2                !
 ! R19   R(7,9)                  1.411          estimate D2E/DX2                !
 ! R20   R(8,20)                 1.4162         estimate D2E/DX2                !
 ! R21   R(9,11)                 1.4226         estimate D2E/DX2                !
 ! R22   R(9,22)                 1.3809         estimate D2E/DX2                !
 ! R23   R(10,11)                1.5077         estimate D2E/DX2                !
 ! R24   R(10,13)                1.5182         estimate D2E/DX2                !
 ! R25   R(10,73)                1.8029         estimate D2E/DX2                !
 ! R26   R(11,25)                1.376          estimate D2E/DX2                !
 ! R27   R(12,13)                1.3737         estimate D2E/DX2                !
 ! R28   R(12,14)                1.3928         estimate D2E/DX2                !
 ! R29   R(13,27)                1.3861         estimate D2E/DX2                !
 ! R30   R(14,16)                1.5165         estimate D2E/DX2                !
 ! R31   R(14,29)                1.3947         estimate D2E/DX2                !
 ! R32   R(15,16)                1.5115         estimate D2E/DX2                !
 ! R33   R(15,18)                1.4654         estimate D2E/DX2                !
 ! R34   R(16,32)                1.4942         estimate D2E/DX2                !
 ! R35   R(16,70)                1.793          estimate D2E/DX2                !
 ! R36   R(17,18)                1.3746         estimate D2E/DX2                !
 ! R37   R(17,19)                1.4572         estimate D2E/DX2                !
 ! R38   R(18,33)                1.4183         estimate D2E/DX2                !
 ! R39   R(19,21)                1.4509         estimate D2E/DX2                !
 ! R40   R(19,35)                1.3994         estimate D2E/DX2                !
 ! R41   R(20,21)                1.4465         estimate D2E/DX2                !
 ! R42   R(20,23)                1.3867         estimate D2E/DX2                !
 ! R43   R(21,38)                1.4041         estimate D2E/DX2                !
 ! R44   R(22,23)                1.4253         estimate D2E/DX2                !
 ! R45   R(22,24)                1.4224         estimate D2E/DX2                !
 ! R46   R(23,40)                1.4227         estimate D2E/DX2                !
 ! R47   R(24,26)                1.3728         estimate D2E/DX2                !
 ! R48   R(24,41)                1.4342         estimate D2E/DX2                !
 ! R49   R(25,26)                1.4324         estimate D2E/DX2                !
 ! R50   R(25,28)                1.5154         estimate D2E/DX2                !
 ! R51   R(26,44)                1.4368         estimate D2E/DX2                !
 ! R52   R(27,28)                1.5097         estimate D2E/DX2                !
 ! R53   R(27,30)                1.4027         estimate D2E/DX2                !
 ! R54   R(28,45)                1.4979         estimate D2E/DX2                !
 ! R55   R(28,74)                1.8122         estimate D2E/DX2                !
 ! R56   R(29,30)                1.4228         estimate D2E/DX2                !
 ! R57   R(29,31)                1.5227         estimate D2E/DX2                !
 ! R58   R(30,47)                1.4577         estimate D2E/DX2                !
 ! R59   R(31,34)                1.5101         estimate D2E/DX2                !
 ! R60   R(31,49)                1.496          estimate D2E/DX2                !
 ! R61   R(31,75)                1.8204         estimate D2E/DX2                !
 ! R62   R(32,33)                1.4359         estimate D2E/DX2                !
 ! R63   R(32,34)                1.352          estimate D2E/DX2                !
 ! R64   R(33,36)                1.3743         estimate D2E/DX2                !
 ! R65   R(34,51)                1.4314         estimate D2E/DX2                !
 ! R66   R(35,36)                1.4316         estimate D2E/DX2                !
 ! R67   R(35,37)                1.4358         estimate D2E/DX2                !
 ! R68   R(36,52)                1.4312         estimate D2E/DX2                !
 ! R69   R(37,39)                1.3703         estimate D2E/DX2                !
 ! R70   R(37,53)                1.4424         estimate D2E/DX2                !
 ! R71   R(38,39)                1.4299         estimate D2E/DX2                !
 ! R72   R(38,42)                1.4372         estimate D2E/DX2                !
 ! R73   R(39,57)                1.4433         estimate D2E/DX2                !
 ! R74   R(40,41)                1.4371         estimate D2E/DX2                !
 ! R75   R(40,42)                1.3737         estimate D2E/DX2                !
 ! R76   R(41,43)                1.3788         estimate D2E/DX2                !
 ! R77   R(42,58)                1.4385         estimate D2E/DX2                !
 ! R78   R(43,46)                1.4307         estimate D2E/DX2                !
 ! R79   R(43,59)                1.4441         estimate D2E/DX2                !
 ! R80   R(44,45)                1.4085         estimate D2E/DX2                !
 ! R81   R(44,46)                1.3977         estimate D2E/DX2                !
 ! R82   R(45,48)                1.3813         estimate D2E/DX2                !
 ! R83   R(46,61)                1.4305         estimate D2E/DX2                !
 ! R84   R(47,48)                1.4311         estimate D2E/DX2                !
 ! R85   R(47,50)                1.4296         estimate D2E/DX2                !
 ! R86   R(48,62)                1.4475         estimate D2E/DX2                !
 ! R87   R(49,50)                1.3776         estimate D2E/DX2                !
 ! R88   R(49,54)                1.417          estimate D2E/DX2                !
 ! R89   R(50,63)                1.4474         estimate D2E/DX2                !
 ! R90   R(51,52)                1.3826         estimate D2E/DX2                !
 ! R91   R(51,54)                1.4332         estimate D2E/DX2                !
 ! R92   R(52,53)                1.431          estimate D2E/DX2                !
 ! R93   R(53,55)                1.3835         estimate D2E/DX2                !
 ! R94   R(54,56)                1.3947         estimate D2E/DX2                !
 ! R95   R(55,56)                1.4308         estimate D2E/DX2                !
 ! R96   R(55,60)                1.442          estimate D2E/DX2                !
 ! R97   R(56,64)                1.4299         estimate D2E/DX2                !
 ! R98   R(57,58)                1.4294         estimate D2E/DX2                !
 ! R99   R(57,60)                1.3809         estimate D2E/DX2                !
 ! R100  R(58,59)                1.3863         estimate D2E/DX2                !
 ! R101  R(59,65)                1.4329         estimate D2E/DX2                !
 ! R102  R(60,66)                1.4344         estimate D2E/DX2                !
 ! R103  R(61,62)                1.3829         estimate D2E/DX2                !
 ! R104  R(61,65)                1.4447         estimate D2E/DX2                !
 ! R105  R(62,63)                1.4346         estimate D2E/DX2                !
 ! R106  R(63,64)                1.3807         estimate D2E/DX2                !
 ! R107  R(64,66)                1.4404         estimate D2E/DX2                !
 ! R108  R(65,66)                1.3849         estimate D2E/DX2                !
 ! A1    A(2,1,4)              108.5096         estimate D2E/DX2                !
 ! A2    A(2,1,7)              114.4818         estimate D2E/DX2                !
 ! A3    A(2,1,67)             113.2536         estimate D2E/DX2                !
 ! A4    A(4,1,7)              102.5709         estimate D2E/DX2                !
 ! A5    A(4,1,67)             112.2636         estimate D2E/DX2                !
 ! A6    A(7,1,67)             105.3183         estimate D2E/DX2                !
 ! A7    A(1,2,3)              104.6117         estimate D2E/DX2                !
 ! A8    A(1,2,10)             114.3921         estimate D2E/DX2                !
 ! A9    A(1,2,68)             109.0984         estimate D2E/DX2                !
 ! A10   A(3,2,10)             104.4327         estimate D2E/DX2                !
 ! A11   A(3,2,68)             110.6975         estimate D2E/DX2                !
 ! A12   A(10,2,68)            113.1611         estimate D2E/DX2                !
 ! A13   A(2,3,5)              106.4557         estimate D2E/DX2                !
 ! A14   A(2,3,12)             106.6539         estimate D2E/DX2                !
 ! A15   A(2,3,69)             115.8478         estimate D2E/DX2                !
 ! A16   A(5,3,12)             104.5851         estimate D2E/DX2                !
 ! A17   A(5,3,69)             111.1313         estimate D2E/DX2                !
 ! A18   A(12,3,69)            111.417          estimate D2E/DX2                !
 ! A19   A(1,4,5)              102.3564         estimate D2E/DX2                !
 ! A20   A(1,4,6)              106.7807         estimate D2E/DX2                !
 ! A21   A(1,4,71)             112.0195         estimate D2E/DX2                !
 ! A22   A(5,4,6)              111.5471         estimate D2E/DX2                !
 ! A23   A(5,4,71)             109.2078         estimate D2E/DX2                !
 ! A24   A(6,4,71)             114.2867         estimate D2E/DX2                !
 ! A25   A(3,5,4)              113.1156         estimate D2E/DX2                !
 ! A26   A(3,5,15)             120.4205         estimate D2E/DX2                !
 ! A27   A(4,5,15)             124.5143         estimate D2E/DX2                !
 ! A28   A(4,6,8)              102.4924         estimate D2E/DX2                !
 ! A29   A(4,6,17)             117.2393         estimate D2E/DX2                !
 ! A30   A(4,6,72)             111.3929         estimate D2E/DX2                !
 ! A31   A(8,6,17)             107.1405         estimate D2E/DX2                !
 ! A32   A(8,6,72)             109.804          estimate D2E/DX2                !
 ! A33   A(17,6,72)            108.4095         estimate D2E/DX2                !
 ! A34   A(1,7,8)              112.7088         estimate D2E/DX2                !
 ! A35   A(1,7,9)              125.3003         estimate D2E/DX2                !
 ! A36   A(8,7,9)              120.4789         estimate D2E/DX2                !
 ! A37   A(6,8,7)              112.5335         estimate D2E/DX2                !
 ! A38   A(6,8,20)             122.1639         estimate D2E/DX2                !
 ! A39   A(7,8,20)             123.5865         estimate D2E/DX2                !
 ! A40   A(7,9,11)             117.3643         estimate D2E/DX2                !
 ! A41   A(7,9,22)             114.9129         estimate D2E/DX2                !
 ! A42   A(11,9,22)            120.779          estimate D2E/DX2                !
 ! A43   A(2,10,11)            120.7207         estimate D2E/DX2                !
 ! A44   A(2,10,13)            105.6088         estimate D2E/DX2                !
 ! A45   A(2,10,73)            111.0412         estimate D2E/DX2                !
 ! A46   A(11,10,13)           101.4615         estimate D2E/DX2                !
 ! A47   A(11,10,73)           108.1314         estimate D2E/DX2                !
 ! A48   A(13,10,73)           108.9796         estimate D2E/DX2                !
 ! A49   A(9,11,10)            120.2111         estimate D2E/DX2                !
 ! A50   A(9,11,25)            117.3645         estimate D2E/DX2                !
 ! A51   A(10,11,25)           118.1485         estimate D2E/DX2                !
 ! A52   A(3,12,13)            111.8019         estimate D2E/DX2                !
 ! A53   A(3,12,14)            124.2769         estimate D2E/DX2                !
 ! A54   A(13,12,14)           121.0091         estimate D2E/DX2                !
 ! A55   A(10,13,12)           110.8177         estimate D2E/DX2                !
 ! A56   A(10,13,27)           127.0586         estimate D2E/DX2                !
 ! A57   A(12,13,27)           120.1183         estimate D2E/DX2                !
 ! A58   A(12,14,16)           117.207          estimate D2E/DX2                !
 ! A59   A(12,14,29)           118.9915         estimate D2E/DX2                !
 ! A60   A(16,14,29)           122.4354         estimate D2E/DX2                !
 ! A61   A(5,15,16)            124.235          estimate D2E/DX2                !
 ! A62   A(5,15,18)            119.8605         estimate D2E/DX2                !
 ! A63   A(16,15,18)           110.1374         estimate D2E/DX2                !
 ! A64   A(14,16,15)           105.0762         estimate D2E/DX2                !
 ! A65   A(14,16,32)           110.4458         estimate D2E/DX2                !
 ! A66   A(14,16,70)           110.1498         estimate D2E/DX2                !
 ! A67   A(15,16,32)           102.1392         estimate D2E/DX2                !
 ! A68   A(15,16,70)           116.35           estimate D2E/DX2                !
 ! A69   A(32,16,70)           112.2108         estimate D2E/DX2                !
 ! A70   A(6,17,18)            119.2772         estimate D2E/DX2                !
 ! A71   A(6,17,19)            119.451          estimate D2E/DX2                !
 ! A72   A(18,17,19)           118.3376         estimate D2E/DX2                !
 ! A73   A(15,18,17)           120.4667         estimate D2E/DX2                !
 ! A74   A(15,18,33)           107.039          estimate D2E/DX2                !
 ! A75   A(17,18,33)           123.3561         estimate D2E/DX2                !
 ! A76   A(17,19,21)           119.3451         estimate D2E/DX2                !
 ! A77   A(17,19,35)           117.0453         estimate D2E/DX2                !
 ! A78   A(21,19,35)           117.2166         estimate D2E/DX2                !
 ! A79   A(8,20,21)            119.4486         estimate D2E/DX2                !
 ! A80   A(8,20,23)            114.6757         estimate D2E/DX2                !
 ! A81   A(21,20,23)           120.6571         estimate D2E/DX2                !
 ! A82   A(19,21,20)           118.0651         estimate D2E/DX2                !
 ! A83   A(19,21,38)           119.2133         estimate D2E/DX2                !
 ! A84   A(20,21,38)           116.0397         estimate D2E/DX2                !
 ! A85   A(9,22,23)            122.7027         estimate D2E/DX2                !
 ! A86   A(9,22,24)            121.3351         estimate D2E/DX2                !
 ! A87   A(23,22,24)           107.4552         estimate D2E/DX2                !
 ! A88   A(20,23,22)           120.1068         estimate D2E/DX2                !
 ! A89   A(20,23,40)           122.0189         estimate D2E/DX2                !
 ! A90   A(22,23,40)           108.5887         estimate D2E/DX2                !
 ! A91   A(22,24,26)           117.342          estimate D2E/DX2                !
 ! A92   A(22,24,41)           108.7852         estimate D2E/DX2                !
 ! A93   A(26,24,41)           121.6616         estimate D2E/DX2                !
 ! A94   A(11,25,26)           121.0841         estimate D2E/DX2                !
 ! A95   A(11,25,28)           124.8609         estimate D2E/DX2                !
 ! A96   A(26,25,28)           108.3844         estimate D2E/DX2                !
 ! A97   A(24,26,25)           120.9179         estimate D2E/DX2                !
 ! A98   A(24,26,44)           118.7014         estimate D2E/DX2                !
 ! A99   A(25,26,44)           110.1566         estimate D2E/DX2                !
 ! A100  A(13,27,28)           116.4569         estimate D2E/DX2                !
 ! A101  A(13,27,30)           120.3069         estimate D2E/DX2                !
 ! A102  A(28,27,30)           121.5629         estimate D2E/DX2                !
 ! A103  A(25,28,27)           105.8326         estimate D2E/DX2                !
 ! A104  A(25,28,45)           101.774          estimate D2E/DX2                !
 ! A105  A(25,28,74)           115.0553         estimate D2E/DX2                !
 ! A106  A(27,28,45)           112.5894         estimate D2E/DX2                !
 ! A107  A(27,28,74)           110.0597         estimate D2E/DX2                !
 ! A108  A(45,28,74)           111.2599         estimate D2E/DX2                !
 ! A109  A(14,29,30)           119.9232         estimate D2E/DX2                !
 ! A110  A(14,29,31)           118.3321         estimate D2E/DX2                !
 ! A111  A(30,29,31)           120.7648         estimate D2E/DX2                !
 ! A112  A(27,30,29)           118.7462         estimate D2E/DX2                !
 ! A113  A(27,30,47)           119.6649         estimate D2E/DX2                !
 ! A114  A(29,30,47)           119.2735         estimate D2E/DX2                !
 ! A115  A(29,31,34)           110.3411         estimate D2E/DX2                !
 ! A116  A(29,31,49)           112.4745         estimate D2E/DX2                !
 ! A117  A(29,31,75)           106.8944         estimate D2E/DX2                !
 ! A118  A(34,31,49)           100.7797         estimate D2E/DX2                !
 ! A119  A(34,31,75)           112.5174         estimate D2E/DX2                !
 ! A120  A(49,31,75)           113.8706         estimate D2E/DX2                !
 ! A121  A(16,32,33)           110.4031         estimate D2E/DX2                !
 ! A122  A(16,32,34)           121.3028         estimate D2E/DX2                !
 ! A123  A(33,32,34)           119.3084         estimate D2E/DX2                !
 ! A124  A(18,33,32)           109.5655         estimate D2E/DX2                !
 ! A125  A(18,33,36)           118.5133         estimate D2E/DX2                !
 ! A126  A(32,33,36)           121.0259         estimate D2E/DX2                !
 ! A127  A(31,34,32)           122.3526         estimate D2E/DX2                !
 ! A128  A(31,34,51)           111.0616         estimate D2E/DX2                !
 ! A129  A(32,34,51)           119.6771         estimate D2E/DX2                !
 ! A130  A(19,35,36)           122.0535         estimate D2E/DX2                !
 ! A131  A(19,35,37)           122.5016         estimate D2E/DX2                !
 ! A132  A(36,35,37)           106.3655         estimate D2E/DX2                !
 ! A133  A(33,36,35)           119.3553         estimate D2E/DX2                !
 ! A134  A(33,36,52)           119.3057         estimate D2E/DX2                !
 ! A135  A(35,36,52)           109.3372         estimate D2E/DX2                !
 ! A136  A(35,37,39)           120.0018         estimate D2E/DX2                !
 ! A137  A(35,37,53)           108.8008         estimate D2E/DX2                !
 ! A138  A(39,37,53)           119.8444         estimate D2E/DX2                !
 ! A139  A(21,38,39)           122.0496         estimate D2E/DX2                !
 ! A140  A(21,38,42)           122.4957         estimate D2E/DX2                !
 ! A141  A(39,38,42)           106.461          estimate D2E/DX2                !
 ! A142  A(37,39,38)           118.8355         estimate D2E/DX2                !
 ! A143  A(37,39,57)           120.638          estimate D2E/DX2                !
 ! A144  A(38,39,57)           108.9405         estimate D2E/DX2                !
 ! A145  A(23,40,41)           108.0139         estimate D2E/DX2                !
 ! A146  A(23,40,42)           118.5119         estimate D2E/DX2                !
 ! A147  A(41,40,42)           121.6496         estimate D2E/DX2                !
 ! A148  A(24,41,40)           106.9754         estimate D2E/DX2                !
 ! A149  A(24,41,43)           119.7644         estimate D2E/DX2                !
 ! A150  A(40,41,43)           119.4661         estimate D2E/DX2                !
 ! A151  A(38,42,40)           120.0756         estimate D2E/DX2                !
 ! A152  A(38,42,58)           109.285          estimate D2E/DX2                !
 ! A153  A(40,42,58)           118.9893         estimate D2E/DX2                !
 ! A154  A(41,43,46)           119.4853         estimate D2E/DX2                !
 ! A155  A(41,43,59)           119.2717         estimate D2E/DX2                !
 ! A156  A(46,43,59)           109.1042         estimate D2E/DX2                !
 ! A157  A(26,44,45)           106.7743         estimate D2E/DX2                !
 ! A158  A(26,44,46)           119.9971         estimate D2E/DX2                !
 ! A159  A(45,44,46)           121.6748         estimate D2E/DX2                !
 ! A160  A(28,45,44)           111.8963         estimate D2E/DX2                !
 ! A161  A(28,45,48)           120.8321         estimate D2E/DX2                !
 ! A162  A(44,45,48)           119.0763         estimate D2E/DX2                !
 ! A163  A(43,46,44)           120.3619         estimate D2E/DX2                !
 ! A164  A(43,46,61)           107.5419         estimate D2E/DX2                !
 ! A165  A(44,46,61)           119.3543         estimate D2E/DX2                !
 ! A166  A(30,47,48)           118.2537         estimate D2E/DX2                !
 ! A167  A(30,47,50)           118.779          estimate D2E/DX2                !
 ! A168  A(48,47,50)           109.2019         estimate D2E/DX2                !
 ! A169  A(45,48,47)           121.6978         estimate D2E/DX2                !
 ! A170  A(45,48,62)           120.0257         estimate D2E/DX2                !
 ! A171  A(47,48,62)           107.1202         estimate D2E/DX2                !
 ! A172  A(31,49,50)           121.0013         estimate D2E/DX2                !
 ! A173  A(31,49,54)           111.7407         estimate D2E/DX2                !
 ! A174  A(50,49,54)           119.215          estimate D2E/DX2                !
 ! A175  A(47,50,49)           122.1342         estimate D2E/DX2                !
 ! A176  A(47,50,63)           107.3355         estimate D2E/DX2                !
 ! A177  A(49,50,63)           119.9962         estimate D2E/DX2                !
 ! A178  A(34,51,52)           121.0197         estimate D2E/DX2                !
 ! A179  A(34,51,54)           107.7554         estimate D2E/DX2                !
 ! A180  A(52,51,54)           119.8116         estimate D2E/DX2                !
 ! A181  A(36,52,51)           118.6744         estimate D2E/DX2                !
 ! A182  A(36,52,53)           107.4545         estimate D2E/DX2                !
 ! A183  A(51,52,53)           120.7015         estimate D2E/DX2                !
 ! A184  A(37,53,52)           107.4975         estimate D2E/DX2                !
 ! A185  A(37,53,55)           119.7803         estimate D2E/DX2                !
 ! A186  A(52,53,55)           119.6578         estimate D2E/DX2                !
 ! A187  A(49,54,51)           108.3147         estimate D2E/DX2                !
 ! A188  A(49,54,56)           121.5311         estimate D2E/DX2                !
 ! A189  A(51,54,56)           119.3172         estimate D2E/DX2                !
 ! A190  A(53,55,56)           119.8434         estimate D2E/DX2                !
 ! A191  A(53,55,60)           119.9731         estimate D2E/DX2                !
 ! A192  A(56,55,60)           108.202          estimate D2E/DX2                !
 ! A193  A(54,56,55)           120.4355         estimate D2E/DX2                !
 ! A194  A(54,56,64)           119.1241         estimate D2E/DX2                !
 ! A195  A(55,56,64)           108.1664         estimate D2E/DX2                !
 ! A196  A(39,57,58)           107.7815         estimate D2E/DX2                !
 ! A197  A(39,57,60)           119.4564         estimate D2E/DX2                !
 ! A198  A(58,57,60)           119.6733         estimate D2E/DX2                !
 ! A199  A(42,58,57)           107.2461         estimate D2E/DX2                !
 ! A200  A(42,58,59)           119.7204         estimate D2E/DX2                !
 ! A201  A(57,58,59)           120.2941         estimate D2E/DX2                !
 ! A202  A(43,59,58)           120.6695         estimate D2E/DX2                !
 ! A203  A(43,59,65)           106.7996         estimate D2E/DX2                !
 ! A204  A(58,59,65)           120.0682         estimate D2E/DX2                !
 ! A205  A(55,60,57)           119.9982         estimate D2E/DX2                !
 ! A206  A(55,60,66)           107.5262         estimate D2E/DX2                !
 ! A207  A(57,60,66)           120.1604         estimate D2E/DX2                !
 ! A208  A(46,61,62)           119.3163         estimate D2E/DX2                !
 ! A209  A(46,61,65)           108.0453         estimate D2E/DX2                !
 ! A210  A(62,61,65)           120.6354         estimate D2E/DX2                !
 ! A211  A(48,62,61)           120.3286         estimate D2E/DX2                !
 ! A212  A(48,62,63)           108.187          estimate D2E/DX2                !
 ! A213  A(61,62,63)           119.5182         estimate D2E/DX2                !
 ! A214  A(50,63,62)           107.9247         estimate D2E/DX2                !
 ! A215  A(50,63,64)           120.1725         estimate D2E/DX2                !
 ! A216  A(62,63,64)           119.9848         estimate D2E/DX2                !
 ! A217  A(56,64,63)           119.7661         estimate D2E/DX2                !
 ! A218  A(56,64,66)           107.9348         estimate D2E/DX2                !
 ! A219  A(63,64,66)           120.7752         estimate D2E/DX2                !
 ! A220  A(59,65,61)           108.4397         estimate D2E/DX2                !
 ! A221  A(59,65,66)           119.4886         estimate D2E/DX2                !
 ! A222  A(61,65,66)           119.6605         estimate D2E/DX2                !
 ! A223  A(60,66,64)           108.0926         estimate D2E/DX2                !
 ! A224  A(60,66,65)           120.2303         estimate D2E/DX2                !
 ! A225  A(64,66,65)           119.3566         estimate D2E/DX2                !
 ! D1    D(4,1,2,3)            -11.9668         estimate D2E/DX2                !
 ! D2    D(4,1,2,10)          -125.6095         estimate D2E/DX2                !
 ! D3    D(4,1,2,68)           106.509          estimate D2E/DX2                !
 ! D4    D(7,1,2,3)            101.9015         estimate D2E/DX2                !
 ! D5    D(7,1,2,10)           -11.7413         estimate D2E/DX2                !
 ! D6    D(7,1,2,68)          -139.6227         estimate D2E/DX2                !
 ! D7    D(67,1,2,3)          -137.3274         estimate D2E/DX2                !
 ! D8    D(67,1,2,10)          109.0299         estimate D2E/DX2                !
 ! D9    D(67,1,2,68)          -18.8516         estimate D2E/DX2                !
 ! D10   D(2,1,4,5)             20.5921         estimate D2E/DX2                !
 ! D11   D(2,1,4,6)            137.899          estimate D2E/DX2                !
 ! D12   D(2,1,4,71)           -96.2731         estimate D2E/DX2                !
 ! D13   D(7,1,4,5)           -100.9012         estimate D2E/DX2                !
 ! D14   D(7,1,4,6)             16.4058         estimate D2E/DX2                !
 ! D15   D(7,1,4,71)           142.2337         estimate D2E/DX2                !
 ! D16   D(67,1,4,5)           146.5318         estimate D2E/DX2                !
 ! D17   D(67,1,4,6)           -96.1613         estimate D2E/DX2                !
 ! D18   D(67,1,4,71)           29.6666         estimate D2E/DX2                !
 ! D19   D(2,1,7,8)           -133.7873         estimate D2E/DX2                !
 ! D20   D(2,1,7,9)             32.1502         estimate D2E/DX2                !
 ! D21   D(4,1,7,8)            -16.4691         estimate D2E/DX2                !
 ! D22   D(4,1,7,9)            149.4684         estimate D2E/DX2                !
 ! D23   D(67,1,7,8)           101.1475         estimate D2E/DX2                !
 ! D24   D(67,1,7,9)           -92.9149         estimate D2E/DX2                !
 ! D25   D(1,2,3,5)             -1.5314         estimate D2E/DX2                !
 ! D26   D(1,2,3,12)          -112.7807         estimate D2E/DX2                !
 ! D27   D(1,2,3,69)           122.5787         estimate D2E/DX2                !
 ! D28   D(10,2,3,5)           118.985          estimate D2E/DX2                !
 ! D29   D(10,2,3,12)            7.7357         estimate D2E/DX2                !
 ! D30   D(10,2,3,69)         -116.9049         estimate D2E/DX2                !
 ! D31   D(68,2,3,5)          -118.9154         estimate D2E/DX2                !
 ! D32   D(68,2,3,12)          129.8353         estimate D2E/DX2                !
 ! D33   D(68,2,3,69)            5.1947         estimate D2E/DX2                !
 ! D34   D(1,2,10,11)           -4.9369         estimate D2E/DX2                !
 ! D35   D(1,2,10,13)          109.0177         estimate D2E/DX2                !
 ! D36   D(1,2,10,73)         -132.9948         estimate D2E/DX2                !
 ! D37   D(3,2,10,11)         -118.6853         estimate D2E/DX2                !
 ! D38   D(3,2,10,13)           -4.7308         estimate D2E/DX2                !
 ! D39   D(3,2,10,73)          113.2568         estimate D2E/DX2                !
 ! D40   D(68,2,10,11)         120.8476         estimate D2E/DX2                !
 ! D41   D(68,2,10,13)        -125.1979         estimate D2E/DX2                !
 ! D42   D(68,2,10,73)          -7.2103         estimate D2E/DX2                !
 ! D43   D(2,3,5,4)             15.8171         estimate D2E/DX2                !
 ! D44   D(2,3,5,15)          -148.9941         estimate D2E/DX2                !
 ! D45   D(12,3,5,4)           128.5004         estimate D2E/DX2                !
 ! D46   D(12,3,5,15)          -36.3108         estimate D2E/DX2                !
 ! D47   D(69,3,5,4)          -111.163          estimate D2E/DX2                !
 ! D48   D(69,3,5,15)           84.0259         estimate D2E/DX2                !
 ! D49   D(2,3,12,13)           -8.4802         estimate D2E/DX2                !
 ! D50   D(2,3,12,14)          152.274          estimate D2E/DX2                !
 ! D51   D(5,3,12,13)         -121.022          estimate D2E/DX2                !
 ! D52   D(5,3,12,14)           39.7321         estimate D2E/DX2                !
 ! D53   D(69,3,12,13)         118.8321         estimate D2E/DX2                !
 ! D54   D(69,3,12,14)         -80.4138         estimate D2E/DX2                !
 ! D55   D(1,4,5,3)            -22.5986         estimate D2E/DX2                !
 ! D56   D(1,4,5,15)           141.4874         estimate D2E/DX2                !
 ! D57   D(6,4,5,3)           -136.4436         estimate D2E/DX2                !
 ! D58   D(6,4,5,15)            27.6424         estimate D2E/DX2                !
 ! D59   D(71,4,5,3)            96.2671         estimate D2E/DX2                !
 ! D60   D(71,4,5,15)          -99.6469         estimate D2E/DX2                !
 ! D61   D(1,4,6,8)            -11.2309         estimate D2E/DX2                !
 ! D62   D(1,4,6,17)          -128.2038         estimate D2E/DX2                !
 ! D63   D(1,4,6,72)           106.1236         estimate D2E/DX2                !
 ! D64   D(5,4,6,8)             99.8308         estimate D2E/DX2                !
 ! D65   D(5,4,6,17)           -17.1421         estimate D2E/DX2                !
 ! D66   D(5,4,6,72)          -142.8147         estimate D2E/DX2                !
 ! D67   D(71,4,6,8)          -135.6812         estimate D2E/DX2                !
 ! D68   D(71,4,6,17)          107.3459         estimate D2E/DX2                !
 ! D69   D(71,4,6,72)          -18.3267         estimate D2E/DX2                !
 ! D70   D(3,5,15,16)           -1.7588         estimate D2E/DX2                !
 ! D71   D(3,5,15,18)          148.7985         estimate D2E/DX2                !
 ! D72   D(4,5,15,16)         -164.7547         estimate D2E/DX2                !
 ! D73   D(4,5,15,18)          -14.1975         estimate D2E/DX2                !
 ! D74   D(4,6,8,7)              1.3725         estimate D2E/DX2                !
 ! D75   D(4,6,8,20)          -164.1876         estimate D2E/DX2                !
 ! D76   D(17,6,8,7)           125.3542         estimate D2E/DX2                !
 ! D77   D(17,6,8,20)          -40.2059         estimate D2E/DX2                !
 ! D78   D(72,6,8,7)          -117.109          estimate D2E/DX2                !
 ! D79   D(72,6,8,20)           77.3309         estimate D2E/DX2                !
 ! D80   D(4,6,17,18)           -5.0736         estimate D2E/DX2                !
 ! D81   D(4,6,17,19)          155.2316         estimate D2E/DX2                !
 ! D82   D(8,6,17,18)         -119.4902         estimate D2E/DX2                !
 ! D83   D(8,6,17,19)           40.815          estimate D2E/DX2                !
 ! D84   D(72,6,17,18)         122.064          estimate D2E/DX2                !
 ! D85   D(72,6,17,19)         -77.6308         estimate D2E/DX2                !
 ! D86   D(1,7,8,6)             10.0086         estimate D2E/DX2                !
 ! D87   D(1,7,8,20)           175.3299         estimate D2E/DX2                !
 ! D88   D(9,7,8,6)           -156.6885         estimate D2E/DX2                !
 ! D89   D(9,7,8,20)             8.6328         estimate D2E/DX2                !
 ! D90   D(1,7,9,11)           -32.3519         estimate D2E/DX2                !
 ! D91   D(1,7,9,22)           176.5194         estimate D2E/DX2                !
 ! D92   D(8,7,9,11)           132.5732         estimate D2E/DX2                !
 ! D93   D(8,7,9,22)           -18.5556         estimate D2E/DX2                !
 ! D94   D(6,8,20,21)           18.0323         estimate D2E/DX2                !
 ! D95   D(6,8,20,23)          172.6932         estimate D2E/DX2                !
 ! D96   D(7,8,20,21)         -145.9171         estimate D2E/DX2                !
 ! D97   D(7,8,20,23)            8.7438         estimate D2E/DX2                !
 ! D98   D(7,9,11,10)           11.3005         estimate D2E/DX2                !
 ! D99   D(7,9,11,25)         -145.0554         estimate D2E/DX2                !
 ! D100  D(22,9,11,10)         160.6561         estimate D2E/DX2                !
 ! D101  D(22,9,11,25)           4.3003         estimate D2E/DX2                !
 ! D102  D(7,9,22,23)           11.9694         estimate D2E/DX2                !
 ! D103  D(7,9,22,24)          155.8949         estimate D2E/DX2                !
 ! D104  D(11,9,22,23)        -138.0892         estimate D2E/DX2                !
 ! D105  D(11,9,22,24)           5.8364         estimate D2E/DX2                !
 ! D106  D(2,10,11,9)            5.836          estimate D2E/DX2                !
 ! D107  D(2,10,11,25)         162.0105         estimate D2E/DX2                !
 ! D108  D(13,10,11,9)        -110.2578         estimate D2E/DX2                !
 ! D109  D(13,10,11,25)         45.9166         estimate D2E/DX2                !
 ! D110  D(73,10,11,9)         135.1863         estimate D2E/DX2                !
 ! D111  D(73,10,11,25)        -68.6392         estimate D2E/DX2                !
 ! D112  D(2,10,13,12)          -0.208          estimate D2E/DX2                !
 ! D113  D(2,10,13,27)        -163.9135         estimate D2E/DX2                !
 ! D114  D(11,10,13,12)        126.5081         estimate D2E/DX2                !
 ! D115  D(11,10,13,27)        -37.1975         estimate D2E/DX2                !
 ! D116  D(73,10,13,12)       -119.5684         estimate D2E/DX2                !
 ! D117  D(73,10,13,27)         76.726          estimate D2E/DX2                !
 ! D118  D(9,11,25,26)         -10.3658         estimate D2E/DX2                !
 ! D119  D(9,11,25,28)         139.9496         estimate D2E/DX2                !
 ! D120  D(10,11,25,26)       -167.22           estimate D2E/DX2                !
 ! D121  D(10,11,25,28)        -16.9047         estimate D2E/DX2                !
 ! D122  D(3,12,13,10)           5.4737         estimate D2E/DX2                !
 ! D123  D(3,12,13,27)         170.4719         estimate D2E/DX2                !
 ! D124  D(14,12,13,10)       -155.9968         estimate D2E/DX2                !
 ! D125  D(14,12,13,27)          9.0014         estimate D2E/DX2                !
 ! D126  D(3,12,14,16)          -3.7921         estimate D2E/DX2                !
 ! D127  D(3,12,14,29)        -170.7815         estimate D2E/DX2                !
 ! D128  D(13,12,14,16)        155.2871         estimate D2E/DX2                !
 ! D129  D(13,12,14,29)        -11.7023         estimate D2E/DX2                !
 ! D130  D(10,13,27,28)         -4.6738         estimate D2E/DX2                !
 ! D131  D(10,13,27,30)        160.8152         estimate D2E/DX2                !
 ! D132  D(12,13,27,28)       -167.0245         estimate D2E/DX2                !
 ! D133  D(12,13,27,30)         -1.5355         estimate D2E/DX2                !
 ! D134  D(12,14,16,15)        -33.9083         estimate D2E/DX2                !
 ! D135  D(12,14,16,32)       -143.3503         estimate D2E/DX2                !
 ! D136  D(12,14,16,70)         92.1414         estimate D2E/DX2                !
 ! D137  D(29,14,16,15)        132.5991         estimate D2E/DX2                !
 ! D138  D(29,14,16,32)         23.1571         estimate D2E/DX2                !
 ! D139  D(29,14,16,70)       -101.3513         estimate D2E/DX2                !
 ! D140  D(12,14,29,30)          7.0063         estimate D2E/DX2                !
 ! D141  D(12,14,29,31)        175.771          estimate D2E/DX2                !
 ! D142  D(16,14,29,30)       -159.2704         estimate D2E/DX2                !
 ! D143  D(16,14,29,31)          9.4943         estimate D2E/DX2                !
 ! D144  D(5,15,16,14)          38.563          estimate D2E/DX2                !
 ! D145  D(5,15,16,32)         153.9031         estimate D2E/DX2                !
 ! D146  D(5,15,16,70)         -83.5469         estimate D2E/DX2                !
 ! D147  D(18,15,16,14)       -114.4331         estimate D2E/DX2                !
 ! D148  D(18,15,16,32)          0.907          estimate D2E/DX2                !
 ! D149  D(18,15,16,70)        123.457          estimate D2E/DX2                !
 ! D150  D(5,15,18,17)         -12.2318         estimate D2E/DX2                !
 ! D151  D(5,15,18,33)        -160.1721         estimate D2E/DX2                !
 ! D152  D(16,15,18,17)        142.1199         estimate D2E/DX2                !
 ! D153  D(16,15,18,33)         -5.8204         estimate D2E/DX2                !
 ! D154  D(14,16,32,33)        115.7089         estimate D2E/DX2                !
 ! D155  D(14,16,32,34)        -31.161          estimate D2E/DX2                !
 ! D156  D(15,16,32,33)          4.3549         estimate D2E/DX2                !
 ! D157  D(15,16,32,34)       -142.5151         estimate D2E/DX2                !
 ! D158  D(70,16,32,33)       -120.9706         estimate D2E/DX2                !
 ! D159  D(70,16,32,34)         92.1595         estimate D2E/DX2                !
 ! D160  D(6,17,18,15)          20.7287         estimate D2E/DX2                !
 ! D161  D(6,17,18,33)         163.3131         estimate D2E/DX2                !
 ! D162  D(19,17,18,15)       -139.7952         estimate D2E/DX2                !
 ! D163  D(19,17,18,33)          2.7892         estimate D2E/DX2                !
 ! D164  D(6,17,19,21)         -20.6757         estimate D2E/DX2                !
 ! D165  D(6,17,19,35)        -171.8536         estimate D2E/DX2                !
 ! D166  D(18,17,19,21)        139.8135         estimate D2E/DX2                !
 ! D167  D(18,17,19,35)        -11.3644         estimate D2E/DX2                !
 ! D168  D(15,18,33,32)          8.5782         estimate D2E/DX2                !
 ! D169  D(15,18,33,36)        153.2244         estimate D2E/DX2                !
 ! D170  D(17,18,33,32)       -138.2096         estimate D2E/DX2                !
 ! D171  D(17,18,33,36)          6.4365         estimate D2E/DX2                !
 ! D172  D(17,19,21,20)         -5.6211         estimate D2E/DX2                !
 ! D173  D(17,19,21,38)       -155.863          estimate D2E/DX2                !
 ! D174  D(35,19,21,20)        145.5085         estimate D2E/DX2                !
 ! D175  D(35,19,21,38)         -4.7335         estimate D2E/DX2                !
 ! D176  D(17,19,35,36)         11.3393         estimate D2E/DX2                !
 ! D177  D(17,19,35,37)        153.8173         estimate D2E/DX2                !
 ! D178  D(21,19,35,36)       -140.4607         estimate D2E/DX2                !
 ! D179  D(21,19,35,37)          2.0173         estimate D2E/DX2                !
 ! D180  D(8,20,21,19)           7.3445         estimate D2E/DX2                !
 ! D181  D(8,20,21,38)         158.5185         estimate D2E/DX2                !
 ! D182  D(23,20,21,19)       -145.7783         estimate D2E/DX2                !
 ! D183  D(23,20,21,38)          5.3957         estimate D2E/DX2                !
 ! D184  D(8,20,23,22)         -15.2205         estimate D2E/DX2                !
 ! D185  D(8,20,23,40)        -158.0827         estimate D2E/DX2                !
 ! D186  D(21,20,23,22)        139.1068         estimate D2E/DX2                !
 ! D187  D(21,20,23,40)         -3.7554         estimate D2E/DX2                !
 ! D188  D(19,21,38,39)          4.3524         estimate D2E/DX2                !
 ! D189  D(19,21,38,42)        147.023          estimate D2E/DX2                !
 ! D190  D(20,21,38,39)       -146.474          estimate D2E/DX2                !
 ! D191  D(20,21,38,42)         -3.8034         estimate D2E/DX2                !
 ! D192  D(9,22,23,20)           5.1518         estimate D2E/DX2                !
 ! D193  D(9,22,23,40)         152.4638         estimate D2E/DX2                !
 ! D194  D(24,22,23,20)       -143.0299         estimate D2E/DX2                !
 ! D195  D(24,22,23,40)          4.2821         estimate D2E/DX2                !
 ! D196  D(9,22,24,26)          -9.6926         estimate D2E/DX2                !
 ! D197  D(9,22,24,41)        -152.8266         estimate D2E/DX2                !
 ! D198  D(23,22,24,26)        139.0144         estimate D2E/DX2                !
 ! D199  D(23,22,24,41)         -4.1196         estimate D2E/DX2                !
 ! D200  D(20,23,40,41)        143.7406         estimate D2E/DX2                !
 ! D201  D(20,23,40,42)          0.1712         estimate D2E/DX2                !
 ! D202  D(22,23,40,41)         -2.8216         estimate D2E/DX2                !
 ! D203  D(22,23,40,42)       -146.391          estimate D2E/DX2                !
 ! D204  D(22,24,26,25)          3.6022         estimate D2E/DX2                !
 ! D205  D(22,24,26,44)       -138.1961         estimate D2E/DX2                !
 ! D206  D(41,24,26,25)        141.7426         estimate D2E/DX2                !
 ! D207  D(41,24,26,44)         -0.0557         estimate D2E/DX2                !
 ! D208  D(22,24,41,40)          2.3896         estimate D2E/DX2                !
 ! D209  D(22,24,41,43)        142.4795         estimate D2E/DX2                !
 ! D210  D(26,24,41,40)       -138.8469         estimate D2E/DX2                !
 ! D211  D(26,24,41,43)          1.243          estimate D2E/DX2                !
 ! D212  D(11,25,26,24)          6.5387         estimate D2E/DX2                !
 ! D213  D(11,25,26,44)        151.24           estimate D2E/DX2                !
 ! D214  D(28,25,26,24)       -148.1074         estimate D2E/DX2                !
 ! D215  D(28,25,26,44)         -3.406          estimate D2E/DX2                !
 ! D216  D(11,25,28,27)        -27.5909         estimate D2E/DX2                !
 ! D217  D(11,25,28,45)       -145.4283         estimate D2E/DX2                !
 ! D218  D(11,25,28,74)         94.1535         estimate D2E/DX2                !
 ! D219  D(26,25,28,27)        125.8624         estimate D2E/DX2                !
 ! D220  D(26,25,28,45)          8.025          estimate D2E/DX2                !
 ! D221  D(26,25,28,74)       -112.3932         estimate D2E/DX2                !
 ! D222  D(24,26,44,45)        142.4198         estimate D2E/DX2                !
 ! D223  D(24,26,44,46)         -1.4101         estimate D2E/DX2                !
 ! D224  D(25,26,44,45)         -3.1661         estimate D2E/DX2                !
 ! D225  D(25,26,44,46)       -146.996          estimate D2E/DX2                !
 ! D226  D(13,27,28,25)         36.6749         estimate D2E/DX2                !
 ! D227  D(13,27,28,45)        147.022          estimate D2E/DX2                !
 ! D228  D(13,27,28,74)        -88.227          estimate D2E/DX2                !
 ! D229  D(30,27,28,25)       -128.6178         estimate D2E/DX2                !
 ! D230  D(30,27,28,45)        -18.2708         estimate D2E/DX2                !
 ! D231  D(30,27,28,74)        106.4803         estimate D2E/DX2                !
 ! D232  D(13,27,30,29)         -2.9512         estimate D2E/DX2                !
 ! D233  D(13,27,30,47)       -165.5561         estimate D2E/DX2                !
 ! D234  D(28,27,30,29)        161.7846         estimate D2E/DX2                !
 ! D235  D(28,27,30,47)         -0.8204         estimate D2E/DX2                !
 ! D236  D(25,28,45,44)        -10.3725         estimate D2E/DX2                !
 ! D237  D(25,28,45,48)        137.824          estimate D2E/DX2                !
 ! D238  D(27,28,45,44)       -123.2379         estimate D2E/DX2                !
 ! D239  D(27,28,45,48)         24.9586         estimate D2E/DX2                !
 ! D240  D(74,28,45,44)        112.6715         estimate D2E/DX2                !
 ! D241  D(74,28,45,48)        -99.132          estimate D2E/DX2                !
 ! D242  D(14,29,30,27)          0.1507         estimate D2E/DX2                !
 ! D243  D(14,29,30,47)        162.8248         estimate D2E/DX2                !
 ! D244  D(31,29,30,27)       -168.3365         estimate D2E/DX2                !
 ! D245  D(31,29,30,47)         -5.6624         estimate D2E/DX2                !
 ! D246  D(14,29,31,34)        -34.183          estimate D2E/DX2                !
 ! D247  D(14,29,31,49)       -145.8514         estimate D2E/DX2                !
 ! D248  D(14,29,31,75)         88.4634         estimate D2E/DX2                !
 ! D249  D(30,29,31,34)        134.4834         estimate D2E/DX2                !
 ! D250  D(30,29,31,49)         22.8149         estimate D2E/DX2                !
 ! D251  D(30,29,31,75)       -102.8703         estimate D2E/DX2                !
 ! D252  D(27,30,47,48)         15.0803         estimate D2E/DX2                !
 ! D253  D(27,30,47,50)        151.2326         estimate D2E/DX2                !
 ! D254  D(29,30,47,48)       -147.4328         estimate D2E/DX2                !
 ! D255  D(29,30,47,50)        -11.2805         estimate D2E/DX2                !
 ! D256  D(29,31,34,32)         27.3492         estimate D2E/DX2                !
 ! D257  D(29,31,34,51)       -123.3416         estimate D2E/DX2                !
 ! D258  D(49,31,34,32)        146.4012         estimate D2E/DX2                !
 ! D259  D(49,31,34,51)         -4.2896         estimate D2E/DX2                !
 ! D260  D(75,31,34,32)        -91.9393         estimate D2E/DX2                !
 ! D261  D(75,31,34,51)        117.3699         estimate D2E/DX2                !
 ! D262  D(29,31,49,50)        -25.0553         estimate D2E/DX2                !
 ! D263  D(29,31,49,54)        123.4459         estimate D2E/DX2                !
 ! D264  D(34,31,49,50)       -142.5522         estimate D2E/DX2                !
 ! D265  D(34,31,49,54)          5.949          estimate D2E/DX2                !
 ! D266  D(75,31,49,50)         96.7465         estimate D2E/DX2                !
 ! D267  D(75,31,49,54)       -114.7523         estimate D2E/DX2                !
 ! D268  D(16,32,33,18)         -8.3182         estimate D2E/DX2                !
 ! D269  D(16,32,33,36)       -151.9248         estimate D2E/DX2                !
 ! D270  D(34,32,33,18)        139.3018         estimate D2E/DX2                !
 ! D271  D(34,32,33,36)         -4.3048         estimate D2E/DX2                !
 ! D272  D(16,32,34,31)          5.8543         estimate D2E/DX2                !
 ! D273  D(16,32,34,51)        154.133          estimate D2E/DX2                !
 ! D274  D(33,32,34,31)       -138.1696         estimate D2E/DX2                !
 ! D275  D(33,32,34,51)         10.1091         estimate D2E/DX2                !
 ! D276  D(18,33,36,35)         -6.642          estimate D2E/DX2                !
 ! D277  D(18,33,36,52)       -145.3509         estimate D2E/DX2                !
 ! D278  D(32,33,36,35)        133.8461         estimate D2E/DX2                !
 ! D279  D(32,33,36,52)         -4.8628         estimate D2E/DX2                !
 ! D280  D(31,34,51,52)        144.582          estimate D2E/DX2                !
 ! D281  D(31,34,51,54)          1.2916         estimate D2E/DX2                !
 ! D282  D(32,34,51,52)         -6.9957         estimate D2E/DX2                !
 ! D283  D(32,34,51,54)       -150.286          estimate D2E/DX2                !
 ! D284  D(19,35,36,33)         -2.3382         estimate D2E/DX2                !
 ! D285  D(19,35,36,52)        140.0842         estimate D2E/DX2                !
 ! D286  D(37,35,36,33)       -149.9696         estimate D2E/DX2                !
 ! D287  D(37,35,36,52)         -7.5473         estimate D2E/DX2                !
 ! D288  D(19,35,37,39)          1.3232         estimate D2E/DX2                !
 ! D289  D(19,35,37,53)       -142.1523         estimate D2E/DX2                !
 ! D290  D(36,35,37,39)        148.7746         estimate D2E/DX2                !
 ! D291  D(36,35,37,53)          5.2991         estimate D2E/DX2                !
 ! D292  D(33,36,52,51)          7.9365         estimate D2E/DX2                !
 ! D293  D(33,36,52,53)        149.3789         estimate D2E/DX2                !
 ! D294  D(35,36,52,51)       -134.5073         estimate D2E/DX2                !
 ! D295  D(35,36,52,53)          6.9352         estimate D2E/DX2                !
 ! D296  D(35,37,39,38)         -1.8814         estimate D2E/DX2                !
 ! D297  D(35,37,39,57)       -141.0589         estimate D2E/DX2                !
 ! D298  D(53,37,39,38)        137.6105         estimate D2E/DX2                !
 ! D299  D(53,37,39,57)         -1.567          estimate D2E/DX2                !
 ! D300  D(35,37,53,52)         -1.1367         estimate D2E/DX2                !
 ! D301  D(35,37,53,55)        139.9566         estimate D2E/DX2                !
 ! D302  D(39,37,53,52)       -144.6792         estimate D2E/DX2                !
 ! D303  D(39,37,53,55)         -3.5859         estimate D2E/DX2                !
 ! D304  D(21,38,39,37)         -0.9724         estimate D2E/DX2                !
 ! D305  D(21,38,39,57)        142.5392         estimate D2E/DX2                !
 ! D306  D(42,38,39,37)       -148.7428         estimate D2E/DX2                !
 ! D307  D(42,38,39,57)         -5.2312         estimate D2E/DX2                !
 ! D308  D(21,38,42,40)          0.4368         estimate D2E/DX2                !
 ! D309  D(21,38,42,58)       -142.3105         estimate D2E/DX2                !
 ! D310  D(39,38,42,40)        148.029          estimate D2E/DX2                !
 ! D311  D(39,38,42,58)          5.2817         estimate D2E/DX2                !
 ! D312  D(37,39,57,58)        146.0105         estimate D2E/DX2                !
 ! D313  D(37,39,57,60)          4.9145         estimate D2E/DX2                !
 ! D314  D(38,39,57,58)          3.2712         estimate D2E/DX2                !
 ! D315  D(38,39,57,60)       -137.8248         estimate D2E/DX2                !
 ! D316  D(23,40,41,24)          0.2694         estimate D2E/DX2                !
 ! D317  D(23,40,41,43)       -139.962          estimate D2E/DX2                !
 ! D318  D(42,40,41,24)        142.4631         estimate D2E/DX2                !
 ! D319  D(42,40,41,43)          2.2316         estimate D2E/DX2                !
 ! D320  D(23,40,42,38)          1.4988         estimate D2E/DX2                !
 ! D321  D(23,40,42,58)        140.7151         estimate D2E/DX2                !
 ! D322  D(41,40,42,38)       -136.9411         estimate D2E/DX2                !
 ! D323  D(41,40,42,58)          2.2752         estimate D2E/DX2                !
 ! D324  D(24,41,43,46)         -0.9416         estimate D2E/DX2                !
 ! D325  D(24,41,43,59)       -139.3556         estimate D2E/DX2                !
 ! D326  D(40,41,43,46)        134.2451         estimate D2E/DX2                !
 ! D327  D(40,41,43,59)         -4.1689         estimate D2E/DX2                !
 ! D328  D(38,42,58,57)         -3.3219         estimate D2E/DX2                !
 ! D329  D(38,42,58,59)        138.4363         estimate D2E/DX2                !
 ! D330  D(40,42,58,57)       -146.5333         estimate D2E/DX2                !
 ! D331  D(40,42,58,59)         -4.7751         estimate D2E/DX2                !
 ! D332  D(41,43,46,44)         -0.5173         estimate D2E/DX2                !
 ! D333  D(41,43,46,61)       -141.8704         estimate D2E/DX2                !
 ! D334  D(59,43,46,44)        141.695          estimate D2E/DX2                !
 ! D335  D(59,43,46,61)          0.3419         estimate D2E/DX2                !
 ! D336  D(41,43,59,58)          1.6641         estimate D2E/DX2                !
 ! D337  D(41,43,59,65)        143.6188         estimate D2E/DX2                !
 ! D338  D(46,43,59,58)       -140.6412         estimate D2E/DX2                !
 ! D339  D(46,43,59,65)          1.3134         estimate D2E/DX2                !
 ! D340  D(26,44,45,28)          8.7602         estimate D2E/DX2                !
 ! D341  D(26,44,45,48)       -140.0562         estimate D2E/DX2                !
 ! D342  D(46,44,45,28)        151.8479         estimate D2E/DX2                !
 ! D343  D(46,44,45,48)          3.0315         estimate D2E/DX2                !
 ! D344  D(26,44,46,43)          1.7079         estimate D2E/DX2                !
 ! D345  D(26,44,46,61)        138.614          estimate D2E/DX2                !
 ! D346  D(45,44,46,43)       -136.6883         estimate D2E/DX2                !
 ! D347  D(45,44,46,61)          0.2178         estimate D2E/DX2                !
 ! D348  D(28,45,48,47)        -12.4314         estimate D2E/DX2                !
 ! D349  D(28,45,48,62)       -151.5909         estimate D2E/DX2                !
 ! D350  D(44,45,48,47)        133.5472         estimate D2E/DX2                !
 ! D351  D(44,45,48,62)         -5.6122         estimate D2E/DX2                !
 ! D352  D(43,46,61,62)        141.0411         estimate D2E/DX2                !
 ! D353  D(43,46,61,65)         -1.8605         estimate D2E/DX2                !
 ! D354  D(44,46,61,62)         -0.7708         estimate D2E/DX2                !
 ! D355  D(44,46,61,65)       -143.6724         estimate D2E/DX2                !
 ! D356  D(30,47,48,45)         -8.5455         estimate D2E/DX2                !
 ! D357  D(30,47,48,62)        135.1236         estimate D2E/DX2                !
 ! D358  D(50,47,48,45)       -148.5335         estimate D2E/DX2                !
 ! D359  D(50,47,48,62)         -4.8644         estimate D2E/DX2                !
 ! D360  D(30,47,50,49)          9.4374         estimate D2E/DX2                !
 ! D361  D(30,47,50,63)       -135.1054         estimate D2E/DX2                !
 ! D362  D(48,47,50,49)        149.1847         estimate D2E/DX2                !
 ! D363  D(48,47,50,63)          4.6419         estimate D2E/DX2                !
 ! D364  D(45,48,62,61)          5.1212         estimate D2E/DX2                !
 ! D365  D(45,48,62,63)        147.5914         estimate D2E/DX2                !
 ! D366  D(47,48,62,61)       -139.2731         estimate D2E/DX2                !
 ! D367  D(47,48,62,63)          3.1971         estimate D2E/DX2                !
 ! D368  D(31,49,50,47)          9.9415         estimate D2E/DX2                !
 ! D369  D(31,49,50,63)        150.1956         estimate D2E/DX2                !
 ! D370  D(54,49,50,47)       -136.2755         estimate D2E/DX2                !
 ! D371  D(54,49,50,63)          3.9785         estimate D2E/DX2                !
 ! D372  D(31,49,54,51)         -5.5912         estimate D2E/DX2                !
 ! D373  D(31,49,54,56)       -149.5114         estimate D2E/DX2                !
 ! D374  D(50,49,54,51)        143.537          estimate D2E/DX2                !
 ! D375  D(50,49,54,56)         -0.3832         estimate D2E/DX2                !
 ! D376  D(47,50,63,62)         -2.5912         estimate D2E/DX2                !
 ! D377  D(47,50,63,64)        140.1243         estimate D2E/DX2                !
 ! D378  D(49,50,63,62)       -148.0361         estimate D2E/DX2                !
 ! D379  D(49,50,63,64)         -5.3206         estimate D2E/DX2                !
 ! D380  D(34,51,52,36)         -2.176          estimate D2E/DX2                !
 ! D381  D(34,51,52,53)       -138.4251         estimate D2E/DX2                !
 ! D382  D(54,51,52,36)        136.8198         estimate D2E/DX2                !
 ! D383  D(54,51,52,53)          0.5708         estimate D2E/DX2                !
 ! D384  D(34,51,54,49)          2.5723         estimate D2E/DX2                !
 ! D385  D(34,51,54,56)        147.4239         estimate D2E/DX2                !
 ! D386  D(52,51,54,49)       -141.2419         estimate D2E/DX2                !
 ! D387  D(52,51,54,56)          3.6097         estimate D2E/DX2                !
 ! D388  D(36,52,53,37)         -3.5085         estimate D2E/DX2                !
 ! D389  D(36,52,53,55)       -144.6582         estimate D2E/DX2                !
 ! D390  D(51,52,53,37)        136.9972         estimate D2E/DX2                !
 ! D391  D(51,52,53,55)         -4.1525         estimate D2E/DX2                !
 ! D392  D(37,53,55,56)       -132.9343         estimate D2E/DX2                !
 ! D393  D(37,53,55,60)          5.3622         estimate D2E/DX2                !
 ! D394  D(52,53,55,56)          3.4915         estimate D2E/DX2                !
 ! D395  D(52,53,55,60)        141.7879         estimate D2E/DX2                !
 ! D396  D(49,54,56,55)        135.8588         estimate D2E/DX2                !
 ! D397  D(49,54,56,64)         -1.9819         estimate D2E/DX2                !
 ! D398  D(51,54,56,55)         -4.2596         estimate D2E/DX2                !
 ! D399  D(51,54,56,64)       -142.1002         estimate D2E/DX2                !
 ! D400  D(53,55,56,54)          0.7029         estimate D2E/DX2                !
 ! D401  D(53,55,56,64)        142.5987         estimate D2E/DX2                !
 ! D402  D(60,55,56,54)       -141.9488         estimate D2E/DX2                !
 ! D403  D(60,55,56,64)         -0.0529         estimate D2E/DX2                !
 ! D404  D(53,55,60,57)         -2.0046         estimate D2E/DX2                !
 ! D405  D(53,55,60,66)       -144.2549         estimate D2E/DX2                !
 ! D406  D(56,55,60,57)        140.5901         estimate D2E/DX2                !
 ! D407  D(56,55,60,66)         -1.6602         estimate D2E/DX2                !
 ! D408  D(54,56,64,63)          0.6435         estimate D2E/DX2                !
 ! D409  D(54,56,64,66)        144.2206         estimate D2E/DX2                !
 ! D410  D(55,56,64,63)       -141.8347         estimate D2E/DX2                !
 ! D411  D(55,56,64,66)          1.7423         estimate D2E/DX2                !
 ! D412  D(39,57,58,42)          0.0368         estimate D2E/DX2                !
 ! D413  D(39,57,58,59)       -141.459          estimate D2E/DX2                !
 ! D414  D(60,57,58,42)        141.0334         estimate D2E/DX2                !
 ! D415  D(60,57,58,59)         -0.4624         estimate D2E/DX2                !
 ! D416  D(39,57,60,55)         -3.1066         estimate D2E/DX2                !
 ! D417  D(39,57,60,66)        134.4237         estimate D2E/DX2                !
 ! D418  D(58,57,60,55)       -139.6129         estimate D2E/DX2                !
 ! D419  D(58,57,60,66)         -2.0826         estimate D2E/DX2                !
 ! D420  D(42,58,59,43)          2.8474         estimate D2E/DX2                !
 ! D421  D(42,58,59,65)       -134.1742         estimate D2E/DX2                !
 ! D422  D(57,58,59,43)        139.6399         estimate D2E/DX2                !
 ! D423  D(57,58,59,65)          2.6183         estimate D2E/DX2                !
 ! D424  D(43,59,65,61)         -2.4546         estimate D2E/DX2                !
 ! D425  D(43,59,65,66)       -144.438          estimate D2E/DX2                !
[...]
              Bcc     0.0348     4.670     1.666     1.558  0.7780 -0.6263 -0.0492
 
              Baa    -0.0638    -8.558    -3.054    -2.855  0.3836  0.0863  0.9194
    14 C(13)  Bbb     0.0287     3.857     1.376     1.286 -0.0008  0.9957 -0.0932
              Bcc     0.0350     4.702     1.678     1.568  0.9235 -0.0350 -0.3820
 
              Baa    -0.0083    -1.116    -0.398    -0.372 -0.5555 -0.1555  0.8168
    15 C(13)  Bbb    -0.0071    -0.955    -0.341    -0.318  0.5136  0.7085  0.4841
              Bcc     0.0154     2.071     0.739     0.691 -0.6540  0.6884 -0.3137
 
              Baa    -0.0010    -0.139    -0.050    -0.046  0.1783  0.3389  0.9238
    16 C(13)  Bbb    -0.0005    -0.073    -0.026    -0.024  0.8277  0.4560 -0.3270
              Bcc     0.0016     0.212     0.076     0.071 -0.5321  0.8229 -0.1992
 
              Baa    -0.0088    -1.187    -0.423    -0.396 -0.0983 -0.4752  0.8744
    17 C(13)  Bbb    -0.0088    -1.175    -0.419    -0.392  0.9194  0.2929  0.2625
              Bcc     0.0176     2.362     0.843     0.788 -0.3808  0.8297  0.4081
 
              Baa    -0.0080    -1.072    -0.382    -0.357 -0.5118  0.8585 -0.0329
    18 C(13)  Bbb     0.0033     0.442     0.158     0.147  0.8438  0.4951 -0.2069
              Bcc     0.0047     0.630     0.225     0.210  0.1614  0.1336  0.9778
 
              Baa    -0.0088    -1.176    -0.420    -0.392 -0.1996  0.7196  0.6650
    19 C(13)  Bbb     0.0037     0.498     0.178     0.166  0.9240  0.3642 -0.1168
              Bcc     0.0050     0.677     0.242     0.226  0.3263 -0.5912  0.7376
 
              Baa    -0.0088    -1.184    -0.423    -0.395 -0.3210  0.2746  0.9064
    20 C(13)  Bbb     0.0035     0.476     0.170     0.159  0.8869 -0.2486  0.3894
              Bcc     0.0053     0.709     0.253     0.236  0.3323  0.9289 -0.1638
 
              Baa    -0.0269    -3.614    -1.290    -1.206  0.9428 -0.0573  0.3285
    21 C(13)  Bbb    -0.0264    -3.544    -1.264    -1.182  0.2179  0.8515 -0.4769
              Bcc     0.0533     7.158     2.554     2.388 -0.2524  0.5212  0.8153
 
              Baa    -0.0007    -0.092    -0.033    -0.031 -0.6595  0.7138 -0.2356
    22 C(13)  Bbb    -0.0003    -0.035    -0.012    -0.012  0.6934  0.4567 -0.5573
              Bcc     0.0009     0.127     0.045     0.042  0.2902  0.5310  0.7962
 
              Baa    -0.0115    -1.547    -0.552    -0.516  0.9376 -0.1366  0.3198
    23 C(13)  Bbb    -0.0108    -1.451    -0.518    -0.484  0.1198  0.9902  0.0718
              Bcc     0.0223     2.998     1.070     1.000 -0.3265 -0.0290  0.9448
 
              Baa    -0.0152    -2.036    -0.726    -0.679  0.1286  0.7314 -0.6698
    24 C(13)  Bbb     0.0061     0.818     0.292     0.273  0.8845 -0.3900 -0.2561
              Bcc     0.0091     1.218     0.434     0.406  0.4485  0.5595  0.6970
 
              Baa    -0.0071    -0.950    -0.339    -0.317 -0.2393  0.8393  0.4881
    25 C(13)  Bbb    -0.0055    -0.742    -0.265    -0.248  0.8001 -0.1143  0.5889
              Bcc     0.0126     1.692     0.604     0.564 -0.5500 -0.5315  0.6442
 
              Baa    -0.0175    -2.346    -0.837    -0.782  0.9849 -0.1732  0.0007
    26 C(13)  Bbb    -0.0152    -2.038    -0.727    -0.680  0.0606  0.3485  0.9354
              Bcc     0.0327     4.384     1.564     1.462  0.1623  0.9212 -0.3537
 
              Baa    -0.0837   -11.234    -4.008    -3.747 -0.3993 -0.6438  0.6527
    27 C(13)  Bbb    -0.0800   -10.738    -3.831    -3.582  0.8775 -0.4747  0.0686
              Bcc     0.1637    21.971     7.840     7.329  0.2657  0.6001  0.7545
 
              Baa    -0.0074    -0.999    -0.356    -0.333 -0.1001  0.6756  0.7304
    28 C(13)  Bbb     0.0009     0.126     0.045     0.042  0.6355 -0.5215  0.5694
              Bcc     0.0065     0.873     0.311     0.291  0.7656  0.5212 -0.3772
 
              Baa    -0.0554    -7.441    -2.655    -2.482 -0.2665  0.9581 -0.1050
    29 C(13)  Bbb    -0.0526    -7.054    -2.517    -2.353  0.9395  0.2339 -0.2503
              Bcc     0.1080    14.495     5.172     4.835  0.2153  0.1654  0.9625
 
              Baa    -0.0820   -11.001    -3.926    -3.670  0.1500  0.4330  0.8888
    30 C(13)  Bbb     0.0339     4.552     1.624     1.519  0.1502  0.8786 -0.4533
              Bcc     0.0481     6.449     2.301     2.151  0.9772 -0.2015 -0.0667
 
              Baa    -0.0073    -0.979    -0.349    -0.326 -0.3165  0.3311  0.8889
    31 C(13)  Bbb     0.0005     0.066     0.024     0.022  0.7458  0.6659  0.0175
              Bcc     0.0068     0.913     0.326     0.304 -0.5861  0.6685 -0.4577
 
              Baa    -0.0026    -0.356    -0.127    -0.119  0.6666  0.5926  0.4522
    32 C(13)  Bbb    -0.0011    -0.149    -0.053    -0.050 -0.5799  0.0312  0.8141
              Bcc     0.0038     0.505     0.180     0.168 -0.4683  0.8049 -0.3644
 
              Baa    -0.0014    -0.185    -0.066    -0.062  0.9054  0.4151 -0.0892
    33 C(13)  Bbb    -0.0005    -0.070    -0.025    -0.023  0.0045  0.2006  0.9797
              Bcc     0.0019     0.256     0.091     0.085 -0.4246  0.8874 -0.1797
 
              Baa    -0.0059    -0.798    -0.285    -0.266 -0.4595 -0.0257  0.8878
    34 C(13)  Bbb    -0.0031    -0.414    -0.148    -0.138  0.8351  0.3278  0.4417
              Bcc     0.0090     1.212     0.433     0.404 -0.3024  0.9444 -0.1292
 
              Baa    -0.0059    -0.797    -0.285    -0.266  0.9456 -0.1213  0.3018
    35 C(13)  Bbb    -0.0053    -0.711    -0.254    -0.237 -0.3247 -0.4052  0.8546
              Bcc     0.0112     1.509     0.538     0.503 -0.0187  0.9061  0.4226
 
              Baa    -0.0008    -0.110    -0.039    -0.037  0.0733  0.9847 -0.1581
    36 C(13)  Bbb    -0.0000    -0.001    -0.000    -0.000  0.9819 -0.0990 -0.1614
              Bcc     0.0008     0.111     0.040     0.037  0.1746  0.1434  0.9742
 
              Baa    -0.0157    -2.101    -0.750    -0.701  0.3366  0.8434  0.4188
    37 C(13)  Bbb     0.0069     0.926     0.330     0.309  0.8874 -0.4329  0.1586
              Bcc     0.0088     1.176     0.420     0.392 -0.3151 -0.3182  0.8941
 
              Baa    -0.0177    -2.373    -0.847    -0.791 -0.0025  0.4999  0.8661
    38 C(13)  Bbb     0.0077     1.036     0.370     0.346  0.1087  0.8611 -0.4967
              Bcc     0.0100     1.336     0.477     0.446  0.9941 -0.0929  0.0564
 
              Baa    -0.0153    -2.053    -0.733    -0.685 -0.4449  0.7814 -0.4375
    39 C(13)  Bbb    -0.0144    -1.939    -0.692    -0.647  0.8120  0.1459 -0.5651
              Bcc     0.0298     3.992     1.425     1.332  0.3778  0.6067  0.6994
 
              Baa    -0.0134    -1.799    -0.642    -0.600  0.0133 -0.1600  0.9870
    40 C(13)  Bbb     0.0058     0.784     0.280     0.261  0.9910  0.1338  0.0083
              Bcc     0.0076     1.015     0.362     0.339 -0.1334  0.9780  0.1603
 
              Baa    -0.0274    -3.672    -1.310    -1.225  0.9839  0.1527 -0.0931
    41 C(13)  Bbb    -0.0258    -3.463    -1.236    -1.155 -0.0830  0.8509  0.5187
              Bcc     0.0532     7.135     2.546     2.380  0.1584 -0.5026  0.8499
 
              Baa    -0.0097    -1.300    -0.464    -0.434  0.8713  0.3811 -0.3093
    42 C(13)  Bbb    -0.0092    -1.235    -0.441    -0.412 -0.4202  0.9048 -0.0688
              Bcc     0.0189     2.535     0.905     0.846  0.2536  0.1899  0.9485
 
              Baa    -0.0237    -3.180    -1.135    -1.061 -0.4341  0.6565 -0.6170
    43 C(13)  Bbb     0.0098     1.311     0.468     0.437  0.8130  0.5805  0.0457
              Bcc     0.0139     1.868     0.667     0.623 -0.3881  0.4818  0.7857
 
              Baa    -0.0464    -6.229    -2.223    -2.078 -0.1805  0.9836 -0.0046
    44 C(13)  Bbb     0.0181     2.430     0.867     0.811  0.8837  0.1601 -0.4399
              Bcc     0.0283     3.799     1.356     1.267  0.4319  0.0834  0.8981
 
              Baa    -0.1058   -14.197    -5.066    -4.736  0.8312  0.2772 -0.4820
    45 C(13)  Bbb    -0.1004   -13.467    -4.806    -4.492  0.5444 -0.2294  0.8068
              Bcc     0.2062    27.665     9.871     9.228 -0.1131  0.9330  0.3416
 
              Baa    -0.0514    -6.894    -2.460    -2.299  0.8776  0.4644 -0.1190
    46 C(13)  Bbb    -0.0483    -6.475    -2.310    -2.160 -0.0286  0.2986  0.9540
              Bcc     0.0996    13.369     4.770     4.459 -0.4786  0.8337 -0.2753
 
              Baa    -0.2744   -36.817   -13.137   -12.281  0.9662 -0.2182  0.1374
    47 C(13)  Bbb    -0.2674   -35.882   -12.803   -11.969  0.2576  0.8404 -0.4769
              Bcc     0.5418    72.698    25.941    24.249 -0.0114  0.4962  0.8682
 
              Baa    -0.0924   -12.403    -4.426    -4.137 -0.2469  0.7193  0.6493
    48 C(13)  Bbb     0.0347     4.658     1.662     1.554  0.9514  0.3072  0.0215
              Bcc     0.0577     7.745     2.764     2.584  0.1840 -0.6230  0.7602
 
              Baa    -0.1116   -14.980    -5.345    -4.997 -0.5969  0.7816 -0.1814
    49 C(13)  Bbb    -0.1065   -14.297    -5.102    -4.769  0.7142  0.6206  0.3237
              Bcc     0.2182    29.278    10.447     9.766 -0.3656 -0.0636  0.9286
 
              Baa    -0.0948   -12.723    -4.540    -4.244 -0.3498  0.3183  0.8811
    50 C(13)  Bbb     0.0350     4.695     1.675     1.566  0.7589 -0.4551  0.4657
              Bcc     0.0598     8.028     2.864     2.678  0.5493  0.8316 -0.0824
 
              Baa    -0.0181    -2.426    -0.866    -0.809  0.9432 -0.2963  0.1500
    51 C(13)  Bbb    -0.0161    -2.158    -0.770    -0.720  0.0741  0.6280  0.7747
              Bcc     0.0342     4.584     1.636     1.529  0.3238  0.7196 -0.6143
 
              Baa    -0.0181    -2.427    -0.866    -0.809  0.3559  0.8757 -0.3265
    52 C(13)  Bbb     0.0078     1.052     0.375     0.351  0.8705 -0.4377 -0.2249
              Bcc     0.0102     1.374     0.490     0.458  0.3398  0.2041  0.9181
 
              Baa    -0.0265    -3.559    -1.270    -1.187  0.8027 -0.5357  0.2622
    53 C(13)  Bbb    -0.0249    -3.343    -1.193    -1.115 -0.2632  0.0764  0.9617
              Bcc     0.0514     6.902     2.463     2.302  0.5352  0.8410  0.0797
 
              Baa    -0.0475    -6.377    -2.275    -2.127 -0.5498 -0.3265  0.7689
    54 C(13)  Bbb     0.0186     2.500     0.892     0.834 -0.6143  0.7817 -0.1074
              Bcc     0.0289     3.877     1.384     1.293  0.5660  0.5314  0.6303
 
              Baa    -0.0249    -3.342    -1.192    -1.115  0.7942  0.5984 -0.1057
    55 C(13)  Bbb     0.0103     1.377     0.491     0.459  0.5068 -0.5563  0.6586
              Bcc     0.0146     1.965     0.701     0.655 -0.3354  0.5766  0.7450
 
              Baa    -0.0537    -7.200    -2.569    -2.402 -0.5722  0.6398 -0.5130
    56 C(13)  Bbb    -0.0507    -6.797    -2.425    -2.267  0.0857  0.6688  0.7385
              Bcc     0.1043    13.998     4.995     4.669  0.8156  0.3786 -0.4376
 
              Baa    -0.0128    -1.719    -0.613    -0.573  0.7124  0.4373  0.5489
    57 C(13)  Bbb     0.0060     0.800     0.286     0.267  0.0559  0.7443 -0.6655
              Bcc     0.0068     0.919     0.328     0.306  0.6995 -0.5048 -0.5058
 
              Baa    -0.0108    -1.453    -0.519    -0.485  0.5945 -0.0086  0.8040
    58 C(13)  Bbb     0.0052     0.692     0.247     0.231  0.5079  0.7792 -0.3672
              Bcc     0.0057     0.761     0.272     0.254 -0.6233  0.6267  0.4676
 
              Baa    -0.0048    -0.638    -0.228    -0.213  0.6895  0.4729 -0.5485
    59 C(13)  Bbb    -0.0044    -0.597    -0.213    -0.199 -0.2208  0.8586  0.4627
              Bcc     0.0092     1.235     0.441     0.412  0.6898 -0.1980  0.6964
 
              Baa    -0.0073    -0.983    -0.351    -0.328 -0.1702  0.8571 -0.4862
    60 C(13)  Bbb    -0.0069    -0.930    -0.332    -0.310 -0.4646  0.3654  0.8066
              Bcc     0.0143     1.913     0.683     0.638  0.8690  0.3632  0.3360
 
              Baa    -0.0270    -3.624    -1.293    -1.209 -0.6427  0.7648  0.0443
    61 C(13)  Bbb     0.0123     1.657     0.591     0.553  0.6462  0.5101  0.5677
              Bcc     0.0147     1.967     0.702     0.656 -0.4116 -0.3935  0.8220
 
              Baa    -0.0299    -4.018    -1.434    -1.340  0.7010  0.6455  0.3032
    62 C(13)  Bbb    -0.0281    -3.768    -1.345    -1.257 -0.0285 -0.3995  0.9163
              Bcc     0.0580     7.786     2.778     2.597  0.7126 -0.6509 -0.2616
 
              Baa    -0.0280    -3.758    -1.341    -1.253  0.4591 -0.2933  0.8386
    63 C(13)  Bbb    -0.0259    -3.480    -1.242    -1.161  0.3262  0.9336  0.1480
              Bcc     0.0539     7.238     2.583     2.414  0.8263 -0.2056 -0.5243
 
              Baa    -0.0265    -3.553    -1.268    -1.185  0.8583  0.0403 -0.5115
    64 C(13)  Bbb     0.0120     1.605     0.573     0.536  0.5084  0.0675  0.8584
              Bcc     0.0145     1.947     0.695     0.650 -0.0692  0.9969 -0.0375
 
              Baa    -0.0053    -0.706    -0.252    -0.235  0.8470 -0.5198  0.1113
    65 C(13)  Bbb     0.0025     0.342     0.122     0.114  0.5147  0.8543  0.0732
              Bcc     0.0027     0.364     0.130     0.122 -0.1331 -0.0048  0.9911
 
              Baa    -0.0059    -0.789    -0.281    -0.263  0.9859  0.0263 -0.1654
    66 C(13)  Bbb     0.0027     0.366     0.131     0.122  0.1675 -0.1394  0.9760
              Bcc     0.0031     0.422     0.151     0.141 -0.0026  0.9899  0.1419
 
              Baa    -0.0040    -0.208    -0.074    -0.069  0.9544  0.1645 -0.2490
    67 Cl(35) Bbb     0.0016     0.083     0.030     0.028 -0.2869  0.7355 -0.6138
              Bcc     0.0024     0.125     0.044     0.042  0.0821  0.6572  0.7492
 
              Baa    -0.0022    -0.114    -0.041    -0.038  0.7128 -0.3057  0.6312
    68 Cl(35) Bbb    -0.0010    -0.051    -0.018    -0.017 -0.2055  0.7695  0.6047
              Bcc     0.0031     0.165     0.059     0.055  0.6706  0.5607 -0.4857
 
              Baa    -0.0558    -2.919    -1.042    -0.974 -0.0992  0.3426  0.9342
    69 Cl(35) Bbb    -0.0433    -2.267    -0.809    -0.756  0.3705  0.8841 -0.2849
              Bcc     0.0991     5.186     1.850     1.730  0.9235 -0.3179  0.2146
 
              Baa    -0.0314    -1.641    -0.586    -0.547 -0.4262  0.7980 -0.4260
    70 Cl(35) Bbb     0.0109     0.570     0.203     0.190  0.8759  0.2463 -0.4148
              Bcc     0.0205     1.071     0.382     0.357  0.2261  0.5499  0.8040
 
              Baa    -0.0084    -0.438    -0.156    -0.146  0.7193 -0.3690 -0.5886
    71 Cl(35) Bbb     0.0038     0.200     0.071     0.067  0.4036  0.9116 -0.0781
              Bcc     0.0045     0.238     0.085     0.079  0.5654 -0.1814  0.8046
 
              Baa    -0.0073    -0.383    -0.137    -0.128  0.6637 -0.5073  0.5496
    72 Cl(35) Bbb    -0.0071    -0.371    -0.132    -0.124  0.6132  0.7898 -0.0115
              Bcc     0.0144     0.754     0.269     0.252 -0.4283  0.3447  0.8353
 
              Baa    -0.0277    -1.449    -0.517    -0.483  0.5954  0.7662 -0.2418
    73 Cl(35) Bbb     0.0098     0.512     0.183     0.171  0.7241 -0.3813  0.5747
              Bcc     0.0179     0.937     0.334     0.313 -0.3482  0.5172  0.7818
 
              Baa    -0.1303    -6.820    -2.433    -2.275 -0.5649  0.0105  0.8251
    74 Cl(35) Bbb    -0.1107    -5.793    -2.067    -1.932  0.7019 -0.5196  0.4871
              Bcc     0.2410    12.613     4.500     4.207  0.4338  0.8543  0.2861
 
              Baa    -0.1078    -5.642    -2.013    -1.882 -0.2822  0.9122  0.2972
    75 Cl(35) Bbb    -0.0930    -4.867    -1.737    -1.623  0.9391  0.3260 -0.1088
              Bcc     0.2008    10.509     3.750     3.505  0.1961 -0.2484  0.9486
 

 ---------------------------------------------------------------------------------

 No NMR shielding tensors so no spin-rotation constants.
 Leave Link  601 at Fri Jul 15 18:50:24 2022, MaxMem=  1342177280 cpu:             128.9 elap:               3.0
 (Enter /home/mkliu/g16/l9999.exe)
 1\1\GINC-NODE05\FOpt\UB3LYP\6-311G(d,p)\C66Cl9(2)\MKLIU\15-Jul-2022\0\
 \#P opt b3lyp/6-311G(d, p) empiricaldispersion=GD3\\force\\0,2\C,-1.33
 52478061,1.8718397536,-3.9201053492\C,0.2010305278,2.2681259347,-4.117
 9512026\C,0.9395782777,0.8642901288,-4.2589352403\C,-1.5115081153,0.34
 32601012,-4.286489614\C,-0.1237275537,-0.1751692579,-4.1465861795\C,-2
 .502703698,-0.2601602779,-3.1684209352\C,-1.7801099707,1.9092309719,-2
 .5056184462\C,-2.5438326256,0.8306059692,-2.1543924588\C,-1.3325423613
 ,2.8557677485,-1.5422057347\C,0.9101308455,2.9501207633,-2.8096575458\
 C,0.0318687622,3.2861455478,-1.6019825391\C,1.8174830566,0.7299549099,
 -3.0481050823\C,1.8721165431,1.8848316418,-2.2992548419\C,2.1948996641
 ,-0.5097781748,-2.5068711373\C,0.1478309727,-1.3594570059,-3.606291654
 2\C,1.5497460887,-1.7486698131,-3.1317672512\C,-2.0269131684,-1.513894
 7274,-2.4371461771\C,-0.8460881736,-2.1106604484,-2.8457673262\C,-2.52
 49014054,-1.7941839862,-1.0989840941\C,-3.0299916071,0.6339840967,-0.8
 323904569\C,-3.1202095957,-0.7136226271,-0.2945632668\C,-2.0136213667,
 2.8241069514,-0.3161862288\C,-2.9038891096,1.7383702799,0.0220875378\C
 ,-1.3891517769,3.2691017587,0.8885919001\C,0.6813019637,3.5333518151,-
 0.4033007038\C,-0.0279370474,3.5570487148,0.8358692538\C,2.4270625975,
 1.8798238043,-1.0159172779\C,2.1226751289,3.0737791611,-0.1238996469\C
 ,2.8146225713,-0.5480245866,-1.2572277229\C,2.9645143597,0.6665665497,
 -0.496343529\C,3.1053098084,-1.9097276718,-0.6118373451\C,1.2562227189
 ,-2.7792715556,-2.0786566967\C,-0.1499901042,-3.0408771318,-2.01891777
 66\C,2.0199759767,-2.9163435933,-0.9628857383\C,-1.9529450389,-2.88079
 32091,-0.3923648664\C,-0.7344347616,-3.4953766448,-0.8473980888\C,-1.9
 3717781,-2.9449962891,1.0520624394\C,-3.1622440076,-0.8372290333,1.110
 7278081\C,-2.5489629962,-1.9537439125,1.7937825284\C,-2.8894112379,1.5
 813087882,1.44984936\C,-1.9371020142,2.5200141466,2.0014923826\C,-3.02
 8473291,0.3132833381,1.9848528729\C,-1.1231613879,2.1298673592,3.05817
 69154\C,0.8287296106,3.1060490979,1.914889603\C,2.055874442,2.68878569
 77,1.3346603062\C,0.2933669215,2.4360154074,3.0213023194\C,3.248797600
 9,0.5775406302,0.9212765945\C,2.7048016402,1.5734547893,1.8183273717\C
 ,3.0067355935,-1.8709665939,0.8985638393\C,3.1737032794,-0.6957972359,
 1.5980987498\C,1.4488449222,-3.4632550062,0.2317313619\C,0.0922382786,
 -3.795619352,0.2908166438\C,-0.6660250449,-3.495313922,1.4826450332\C,
 2.0917949468,-2.8571599651,1.3756755499\C,-0.0342565302,-2.9766865,2.6
 106237445\C,1.3797420844,-2.6633130983,2.5656576547\C,-1.9400398508,-1
 .4746697113,3.0201204791\C,-2.23983894,-0.0680666987,3.1396472643\C,-1
 .2844585424,0.8153195486,3.6501741926\C,-0.6897415725,-1.9590026168,3.
 4080803292\C,1.0057404416,1.3164991495,3.5858241967\C,2.1989935766,0.9
 015101482,2.9978613966\C,2.495747066,-0.505423019,2.866068694\C,1.5980
 028787,-1.4616170304,3.3333581567\C,0.0312235576,0.3202698449,4.005396
 5795\C,0.3216805666,-1.0354587065,3.8848821998\Cl,-2.518352501,2.96098
 49217,-4.7746531354\Cl,0.3770151053,3.259135219,-5.5879915724\Cl,1.949
 1120135,0.6572457583,-5.7674240568\Cl,2.5808774679,-2.4919311156,-4.45
 75368897\Cl,-2.0111823798,0.0442535615,-5.9976238322\Cl,-4.1942148134,
 -0.5841113761,-3.8088891021\Cl,1.8171401726,4.472712964,-3.254437016\C
 l,3.4277316128,4.3854555568,-0.2861622495\Cl,4.79316722,-2.4671000414,
 -1.1472803957\\Version=ES64L-G16RevA.03\State=2-A\HF=-6657.4511403\S2=
 0.782259\S2-1=0.\S2A=0.751\RMSD=5.140e-09\RMSF=2.643e-05\Dipole=-0.738
 2621,-0.5886739,2.2464776\Quadrupole=-3.6685109,2.6823177,0.9861932,-0
 .2890215,-2.2025277,0.2160692\PG=C01 [X(C66Cl9)]\\@


 A HARD FALL SHOULD MEAN A HIGH BOUNCE 
 IF ONE IS MADE OF THE RIGHT MATERIAL.

                -- THE CHEMIST ANALYST, MARCH 1950
 Job cpu time:       5 days  9 hours 26 minutes 45.5 seconds.
 Elapsed time:       0 days  2 hours 42 minutes  4.5 seconds.
 File lengths (MBytes):  RWF=   2194 Int=      0 D2E=      0 Chk=    198 Scr=      1
 Normal termination of Gaussian 16 at Fri Jul 15 18:50:26 2022.
