 Entering Gaussian System, Link 0=g16
 Input=eubutmrv2uh34_addon_9.gjf
 Output=eubutmrv2uh34_addon_9.log
 Initial command:
 /home/mkliu/g16/l1.exe "/data/scratch/Gau-23549.inp" -scrdir="/data/scratch/"
 Entering Link 1 = /home/mkliu/g16/l1.exe PID=     23550.
  
 Copyright (c) 1988,1990,1992,1993,1995,1998,2003,2009,2016,
            Gaussian, Inc.  All Rights Reserved.
  
 This is part of the Gaussian(R) 16 program.  It is based on
 the Gaussian(R) 09 system (copyright 2009, Gaussian, Inc.),
 the Gaussian(R) 03 system (copyright 2003, Gaussian, Inc.),
 the Gaussian(R) 98 system (copyright 1998, Gaussian, Inc.),
 the Gaussian(R) 94 system (copyright 1995, Gaussian, Inc.),
 the Gaussian 92(TM) system (copyright 1992, Gaussian, Inc.),
 the Gaussian 90(TM) system (copyright 1990, Gaussian, Inc.),
 the Gaussian 88(TM) system (copyright 1988, Gaussian, Inc.),
 the Gaussian 86(TM) system (copyright 1986, Carnegie Mellon
 University), and the Gaussian 82(TM) system (copyright 1983,
 Carnegie Mellon University). Gaussian is a federally registered
 trademark of Gaussian, Inc.
  
 This software contains proprietary and confidential information,
 including trade secrets, belonging to Gaussian, Inc.
  
 This software is provided under written license and may be
 used, copied, transmitted, or stored only in accord with that
 written license.
  
 The following legend is applicable only to US Government
 contracts under FAR:
  
                    RESTRICTED RIGHTS LEGEND
  
 Use, reproduction and disclosure by the US Government is
 subject to restrictions as set forth in subparagraphs (a)
 and (c) of the Commercial Computer Software - Restricted
 Rights clause in FAR 52.227-19.
  
 Gaussian, Inc.
 340 Quinnipiac St., Bldg. 40, Wallingford CT 06492
  
  
 ---------------------------------------------------------------
 Warning -- This program may not be used in any manner that
 competes with the business of Gaussian, Inc. or will provide
 assistance to any competitor of Gaussian, Inc.  The licensee
 of this program is prohibited from giving any competitor of
 Gaussian, Inc. access to this program.  By using this program,
 the user acknowledges that Gaussian, Inc. is engaged in the
 business of creating and licensing software in the field of
 computational chemistry and represents and warrants to the
 licensee that it is not a competitor of Gaussian, Inc. and that
 it will not use this program in any manner prohibited above.
 ---------------------------------------------------------------
  

 Cite this work as:
 Gaussian 16, Revision A.03,
 M. J. Frisch, G. W. Trucks, H. B. Schlegel, G. E. Scuseria, 
 M. A. Robb, J. R. Cheeseman, G. Scalmani, V. Barone, 
 G. A. Petersson, H. Nakatsuji, X. Li, M. Caricato, A. V. Marenich, 
 J. Bloino, B. G. Janesko, R. Gomperts, B. Mennucci, H. P. Hratchian, 
 J. V. Ortiz, A. F. Izmaylov, J. L. Sonnenberg, D. Williams-Young, 
 F. Ding, F. Lipparini, F. Egidi, J. Goings, B. Peng, A. Petrone, 
 T. Henderson, D. Ranasinghe, V. G. Zakrzewski, J. Gao, N. Rega, 
 G. Zheng, W. Liang, M. Hada, M. Ehara, K. Toyota, R. Fukuda, 
 J. Hasegawa, M. Ishida, T. Nakajima, Y. Honda, O. Kitao, H. Nakai, 
 T. Vreven, K. Throssell, J. A. Montgomery, Jr., J. E. Peralta, 
 F. Ogliaro, M. J. Bearpark, J. J. Heyd, E. N. Brothers, K. N. Kudin, 
 V. N. Staroverov, T. A. Keith, R. Kobayashi, J. Normand, 
 K. Raghavachari, A. P. Rendell, J. C. Burant, S. S. Iyengar, 
 J. Tomasi, M. Cossi, J. M. Millam, M. Klene, C. Adamo, R. Cammi, 
 J. W. Ochterski, R. L. Martin, K. Morokuma, O. Farkas, 
 J. B. Foresman, and D. J. Fox, Gaussian, Inc., Wallingford CT, 2016.
 
 ******************************************
 Gaussian 16:  ES64L-G16RevA.03 25-Dec-2016
                15-Jul-2022 
 ******************************************
 %mem=10GB
 %chk=eubutmrv2uh34_addon_9.chk
 %nprocshared=48
 Will use up to   48 processors via shared memory.
 -------------------------------------------------
 #P opt b3lyp/6-311G(d, p) empiricaldispersion=GD3
 -------------------------------------------------
 1/18=20,19=15,26=3,38=1/1,3;
 2/9=110,12=2,17=6,18=5,40=1/2;
 3/5=4,6=6,7=101,11=2,25=1,30=1,71=1,74=-5,124=31/1,2,3;
 4//1;
 5/5=2,38=5/2;
 6/7=2,8=2,9=2,10=2,28=1/1;
 7//1,2,3,16;
 1/18=20,19=15,26=3/3(2);
 2/9=110/2;
 99//99;
 2/9=110/2;
 3/5=4,6=6,7=101,11=2,25=1,30=1,71=1,74=-5,124=31/1,2,3;
 4/5=5,16=3,69=1/1;
 5/5=2,38=5/2;
 7//1,2,3,16;
 1/18=20,19=15,26=3/3(-5);
 2/9=110/2;
 6/7=2,8=2,9=2,10=2,19=2,28=1/1;
 99/9=1/99;
 Leave Link    1 at Fri Jul 15 01:03:56 2022, MaxMem=  1342177280 cpu:               2.1 elap:               0.1
 (Enter /home/mkliu/g16/l101.exe)
 -----
 force
 -----
 Symbolic Z-matrix:
 Charge =  0 Multiplicity = 2
 C                    -1.35063   1.85845  -3.90308 
 C                     0.17399   2.19269  -3.97911 
 C                     0.92488   0.86914  -4.22158 
 C                    -1.51303   0.33333  -4.21631 
 C                    -0.12212  -0.1697   -4.06783 
 C                    -2.48344  -0.23627  -3.13039 
 C                    -1.89957   1.99553  -2.52623 
 C                    -2.61039   0.88385  -2.15344 
 C                    -1.40793   2.88883  -1.54903 
 C                     0.71521   2.65105  -2.66368 
 C                     0.00347   3.2265   -1.6189 
 C                     1.85353   0.69815  -3.04439 
 C                     1.81448   1.83448  -2.23271 
 C                     2.20153  -0.51538  -2.48593 
 C                     0.19248  -1.35103  -3.55243 
 C                     1.58206  -1.7528   -3.12168 
 C                    -1.99472  -1.46507  -2.40917 
 C                    -0.82024  -2.07293  -2.79139 
 C                    -2.52767  -1.758    -1.09163 
 C                    -3.06878   0.66298  -0.83802 
 C                    -3.12185  -0.68715  -0.3141 
 C                    -2.02463   2.81159  -0.3192 
 C                    -2.91406   1.74339   0.02511 
 C                    -1.36993   3.22994   0.87572 
 C                     0.7109    3.4463   -0.393 
 C                     0.00005   3.49754   0.80968 
 C                     2.40768   1.81753  -0.97374 
 C                     2.13848   3.0276   -0.11893 
 C                     2.83398  -0.54805  -1.22352 
 C                     2.95819   0.63585  -0.47053 
 C                     3.13395  -1.90621  -0.60999 
 C                     1.28646  -2.77553  -2.07384 
 C                    -0.12717  -3.01637  -1.99594 
 C                     2.03243  -2.87572  -0.95016 
 C                    -1.94234  -2.82439  -0.39972 
 C                    -0.72451  -3.44143  -0.83544 
 C                    -1.94555  -2.90129   1.02873 
 C                    -3.15947  -0.80978   1.08167 
 C                    -2.55926  -1.92024   1.76232 
 C                    -2.88932   1.58558   1.43734 
 C                    -1.92309   2.513     1.97748 
 C                    -3.03173   0.32344   1.95868 
 C                    -1.11983   2.10777   3.02403 
 C                     0.84477   3.06132   1.90103 
 C                     2.08109   2.6529    1.33088 
 C                     0.28925   2.39771   2.971 
 C                     3.50377   0.61341   0.94698 
 C                     2.73102   1.56634   1.82038 
 C                     3.01651  -1.8471    0.88543 
 C                     3.20054  -0.70651   1.5966 
 C                     1.44486  -3.42238   0.23602 
 C                     0.09556  -3.73721   0.29235 
 C                    -0.68053  -3.45239   1.45967 
 C                     2.07497  -2.81529   1.35703 
 C                    -0.06009  -2.93348   2.57634 
 C                     1.34199  -2.6166    2.51276 
 C                    -1.96785  -1.45534   2.99041 
 C                    -2.26166  -0.06277   3.11131 
 C                    -1.30453   0.81045   3.60733 
 C                    -0.72469  -1.93463   3.36479 
 C                     0.9886    1.28577   3.5251 
 C                     2.18434   0.88585   2.94855 
 C                     2.47319  -0.50762   2.81296 
 C                     1.55436  -1.43257   3.26766 
 C                     0.00895   0.32175   3.94287 
 C                     0.29016  -1.02413   3.81858 
 Cl                   -2.35579   2.88271  -4.95824 
 Cl                    0.51443   3.44813  -5.20822 
 Cl                    1.76027   0.70145  -5.78408 
 Cl                    2.67437  -2.36649  -4.40477 
 Cl                    4.7679   -2.42042  -1.19355 
 Cl                    5.26576   0.99087   0.84579 
 Cl                   -2.04102   0.01232  -5.88833 
 Cl                   -4.12258  -0.6122   -3.81046 
 Cl                    3.40198   4.29601  -0.44023 
 
 ITRead=  0  0  0  0  0  0  0  0  0  0  0  0  0  0  0  0  0  0  0  0
 ITRead=  0  0  0  0  0  0  0  0  0  0  0  0  0  0  0  0  0  0  0  0
 ITRead=  0  0  0  0  0  0  0  0  0  0  0  0  0  0  0  0  0  0  0  0
 ITRead=  0  0  0  0  0  0  0  0  0  0  0  0  0  0  0
 MicOpt= -1 -1 -1 -1 -1 -1 -1 -1 -1 -1 -1 -1 -1 -1 -1 -1 -1 -1 -1 -1
 MicOpt= -1 -1 -1 -1 -1 -1 -1 -1 -1 -1 -1 -1 -1 -1 -1 -1 -1 -1 -1 -1
 MicOpt= -1 -1 -1 -1 -1 -1 -1 -1 -1 -1 -1 -1 -1 -1 -1 -1 -1 -1 -1 -1
 MicOpt= -1 -1 -1 -1 -1 -1 -1 -1 -1 -1 -1 -1 -1 -1 -1
 NAtoms=     75 NQM=       75 NQMF=       0 NMMI=      0 NMMIF=      0
                NMic=       0 NMicF=      0.
                    Isotopes and Nuclear Properties:
 (Nuclear quadrupole moments (NQMom) in fm**2, nuclear magnetic moments (NMagM)
  in nuclear magnetons)

  Atom         1           2           3           4           5           6           7           8           9          10
 IAtWgt=          12          12          12          12          12          12          12          12          12          12
 AtmWgt=  12.0000000  12.0000000  12.0000000  12.0000000  12.0000000  12.0000000  12.0000000  12.0000000  12.0000000  12.0000000
 NucSpn=           0           0           0           0           0           0           0           0           0           0
 AtZEff=  -0.0000000  -0.0000000  -0.0000000  -0.0000000  -0.0000000  -0.0000000  -0.0000000  -0.0000000  -0.0000000  -0.0000000
 NQMom=    0.0000000   0.0000000   0.0000000   0.0000000   0.0000000   0.0000000   0.0000000   0.0000000   0.0000000   0.0000000
 NMagM=    0.0000000   0.0000000   0.0000000   0.0000000   0.0000000   0.0000000   0.0000000   0.0000000   0.0000000   0.0000000
 AtZNuc=   6.0000000   6.0000000   6.0000000   6.0000000   6.0000000   6.0000000   6.0000000   6.0000000   6.0000000   6.0000000

  Atom        11          12          13          14          15          16          17          18          19          20
 IAtWgt=          12          12          12          12          12          12          12          12          12          12
 AtmWgt=  12.0000000  12.0000000  12.0000000  12.0000000  12.0000000  12.0000000  12.0000000  12.0000000  12.0000000  12.0000000
 NucSpn=           0           0           0           0           0           0           0           0           0           0
 AtZEff=  -0.0000000  -0.0000000  -0.0000000  -0.0000000  -0.0000000  -0.0000000  -0.0000000  -0.0000000  -0.0000000  -0.0000000
 NQMom=    0.0000000   0.0000000   0.0000000   0.0000000   0.0000000   0.0000000   0.0000000   0.0000000   0.0000000   0.0000000
 NMagM=    0.0000000   0.0000000   0.0000000   0.0000000   0.0000000   0.0000000   0.0000000   0.0000000   0.0000000   0.0000000
 AtZNuc=   6.0000000   6.0000000   6.0000000   6.0000000   6.0000000   6.0000000   6.0000000   6.0000000   6.0000000   6.0000000

  Atom        21          22          23          24          25          26          27          28          29          30
 IAtWgt=          12          12          12          12          12          12          12          12          12          12
 AtmWgt=  12.0000000  12.0000000  12.0000000  12.0000000  12.0000000  12.0000000  12.0000000  12.0000000  12.0000000  12.0000000
 NucSpn=           0           0           0           0           0           0           0           0           0           0
 AtZEff=  -0.0000000  -0.0000000  -0.0000000  -0.0000000  -0.0000000  -0.0000000  -0.0000000  -0.0000000  -0.0000000  -0.0000000
 NQMom=    0.0000000   0.0000000   0.0000000   0.0000000   0.0000000   0.0000000   0.0000000   0.0000000   0.0000000   0.0000000
 NMagM=    0.0000000   0.0000000   0.0000000   0.0000000   0.0000000   0.0000000   0.0000000   0.0000000   0.0000000   0.0000000
 AtZNuc=   6.0000000   6.0000000   6.0000000   6.0000000   6.0000000   6.0000000   6.0000000   6.0000000   6.0000000   6.0000000

  Atom        31          32          33          34          35          36          37          38          39          40
 IAtWgt=          12          12          12          12          12          12          12          12          12          12
 AtmWgt=  12.0000000  12.0000000  12.0000000  12.0000000  12.0000000  12.0000000  12.0000000  12.0000000  12.0000000  12.0000000
 NucSpn=           0           0           0           0           0           0           0           0           0           0
 AtZEff=  -0.0000000  -0.0000000  -0.0000000  -0.0000000  -0.0000000  -0.0000000  -0.0000000  -0.0000000  -0.0000000  -0.0000000
 NQMom=    0.0000000   0.0000000   0.0000000   0.0000000   0.0000000   0.0000000   0.0000000   0.0000000   0.0000000   0.0000000
 NMagM=    0.0000000   0.0000000   0.0000000   0.0000000   0.0000000   0.0000000   0.0000000   0.0000000   0.0000000   0.0000000
 AtZNuc=   6.0000000   6.0000000   6.0000000   6.0000000   6.0000000   6.0000000   6.0000000   6.0000000   6.0000000   6.0000000

  Atom        41          42          43          44          45          46          47          48          49          50
 IAtWgt=          12          12          12          12          12          12          12          12          12          12
 AtmWgt=  12.0000000  12.0000000  12.0000000  12.0000000  12.0000000  12.0000000  12.0000000  12.0000000  12.0000000  12.0000000
 NucSpn=           0           0           0           0           0           0           0           0           0           0
 AtZEff=  -0.0000000  -0.0000000  -0.0000000  -0.0000000  -0.0000000  -0.0000000  -0.0000000  -0.0000000  -0.0000000  -0.0000000
 NQMom=    0.0000000   0.0000000   0.0000000   0.0000000   0.0000000   0.0000000   0.0000000   0.0000000   0.0000000   0.0000000
 NMagM=    0.0000000   0.0000000   0.0000000   0.0000000   0.0000000   0.0000000   0.0000000   0.0000000   0.0000000   0.0000000
 AtZNuc=   6.0000000   6.0000000   6.0000000   6.0000000   6.0000000   6.0000000   6.0000000   6.0000000   6.0000000   6.0000000

  Atom        51          52          53          54          55          56          57          58          59          60
 IAtWgt=          12          12          12          12          12          12          12          12          12          12
 AtmWgt=  12.0000000  12.0000000  12.0000000  12.0000000  12.0000000  12.0000000  12.0000000  12.0000000  12.0000000  12.0000000
 NucSpn=           0           0           0           0           0           0           0           0           0           0
 AtZEff=  -0.0000000  -0.0000000  -0.0000000  -0.0000000  -0.0000000  -0.0000000  -0.0000000  -0.0000000  -0.0000000  -0.0000000
 NQMom=    0.0000000   0.0000000   0.0000000   0.0000000   0.0000000   0.0000000   0.0000000   0.0000000   0.0000000   0.0000000
 NMagM=    0.0000000   0.0000000   0.0000000   0.0000000   0.0000000   0.0000000   0.0000000   0.0000000   0.0000000   0.0000000
 AtZNuc=   6.0000000   6.0000000   6.0000000   6.0000000   6.0000000   6.0000000   6.0000000   6.0000000   6.0000000   6.0000000

  Atom        61          62          63          64          65          66          67          68          69          70
 IAtWgt=          12          12          12          12          12          12          35          35          35          35
 AtmWgt=  12.0000000  12.0000000  12.0000000  12.0000000  12.0000000  12.0000000  34.9688527  34.9688527  34.9688527  34.9688527
 NucSpn=           0           0           0           0           0           0           3           3           3           3
 AtZEff=  -0.0000000  -0.0000000  -0.0000000  -0.0000000  -0.0000000  -0.0000000  -0.0000000  -0.0000000  -0.0000000  -0.0000000
 NQMom=    0.0000000   0.0000000   0.0000000   0.0000000   0.0000000   0.0000000  -8.1650000  -8.1650000  -8.1650000  -8.1650000
 NMagM=    0.0000000   0.0000000   0.0000000   0.0000000   0.0000000   0.0000000   0.8218740   0.8218740   0.8218740   0.8218740
 AtZNuc=   6.0000000   6.0000000   6.0000000   6.0000000   6.0000000   6.0000000  17.0000000  17.0000000  17.0000000  17.0000000

  Atom        71          72          73          74          75
 IAtWgt=          35          35          35          35          35
 AtmWgt=  34.9688527  34.9688527  34.9688527  34.9688527  34.9688527
 NucSpn=           3           3           3           3           3
 AtZEff=  -0.0000000  -0.0000000  -0.0000000  -0.0000000  -0.0000000
 NQMom=   -8.1650000  -8.1650000  -8.1650000  -8.1650000  -8.1650000
 NMagM=    0.8218740   0.8218740   0.8218740   0.8218740   0.8218740
 AtZNuc=  17.0000000  17.0000000  17.0000000  17.0000000  17.0000000
 Leave Link  101 at Fri Jul 15 01:03:57 2022, MaxMem=  1342177280 cpu:              13.0 elap:               0.3
 (Enter /home/mkliu/g16/l103.exe)

 GradGradGradGradGradGradGradGradGradGradGradGradGradGradGradGradGradGrad
 Berny optimization.
 Initialization pass.
                           ----------------------------
                           !    Initial Parameters    !
                           ! (Angstroms and Degrees)  !
 --------------------------                            --------------------------
 ! Name  Definition              Value          Derivative Info.                !
 --------------------------------------------------------------------------------
 ! R1    R(1,2)                  1.5627         estimate D2E/DX2                !
 ! R2    R(1,4)                  1.5654         estimate D2E/DX2                !
 ! R3    R(1,7)                  1.4886         estimate D2E/DX2                !
 ! R4    R(1,67)                 1.7812         estimate D2E/DX2                !
 ! R5    R(2,3)                  1.5409         estimate D2E/DX2                !
 ! R6    R(2,10)                 1.4945         estimate D2E/DX2                !
 ! R7    R(2,68)                 1.7896         estimate D2E/DX2                !
 ! R8    R(3,5)                  1.4829         estimate D2E/DX2                !
 ! R9    R(3,12)                 1.5091         estimate D2E/DX2                !
 ! R10   R(3,69)                 1.7797         estimate D2E/DX2                !
 ! R11   R(4,5)                  1.4865         estimate D2E/DX2                !
 ! R12   R(4,6)                  1.5638         estimate D2E/DX2                !
 ! R13   R(4,73)                 1.7825         estimate D2E/DX2                !
 ! R14   R(5,15)                 1.3267         estimate D2E/DX2                !
 ! R15   R(6,8)                  1.4917         estimate D2E/DX2                !
 ! R16   R(6,17)                 1.5063         estimate D2E/DX2                !
 ! R17   R(6,74)                 1.814          estimate D2E/DX2                !
 ! R18   R(7,8)                  1.3712         estimate D2E/DX2                !
 ! R19   R(7,9)                  1.4123         estimate D2E/DX2                !
 ! R20   R(8,20)                 1.4104         estimate D2E/DX2                !
 ! R21   R(9,11)                 1.4529         estimate D2E/DX2                !
 ! R22   R(9,22)                 1.378          estimate D2E/DX2                !
 ! R23   R(10,11)                1.389          estimate D2E/DX2                !
 ! R24   R(10,13)                1.4356         estimate D2E/DX2                !
 ! R25   R(11,25)                1.4323         estimate D2E/DX2                !
 ! R26   R(12,13)                1.397          estimate D2E/DX2                !
 ! R27   R(12,14)                1.3804         estimate D2E/DX2                !
 ! R28   R(13,27)                1.3918         estimate D2E/DX2                !
 ! R29   R(14,16)                1.5229         estimate D2E/DX2                !
 ! R30   R(14,29)                1.4124         estimate D2E/DX2                !
 ! R31   R(15,16)                1.5093         estimate D2E/DX2                !
 ! R32   R(15,18)                1.4581         estimate D2E/DX2                !
 ! R33   R(16,32)                1.4938         estimate D2E/DX2                !
 ! R34   R(16,70)                1.7933         estimate D2E/DX2                !
 ! R35   R(17,18)                1.3766         estimate D2E/DX2                !
 ! R36   R(17,19)                1.4511         estimate D2E/DX2                !
 ! R37   R(18,33)                1.4153         estimate D2E/DX2                !
 ! R38   R(19,21)                1.4506         estimate D2E/DX2                !
 ! R39   R(19,35)                1.3995         estimate D2E/DX2                !
 ! R40   R(20,21)                1.4492         estimate D2E/DX2                !
 ! R41   R(20,23)                1.3915         estimate D2E/DX2                !
 ! R42   R(21,38)                1.4017         estimate D2E/DX2                !
 ! R43   R(22,23)                1.432          estimate D2E/DX2                !
 ! R44   R(22,24)                1.4253         estimate D2E/DX2                !
 ! R45   R(23,40)                1.4212         estimate D2E/DX2                !
 ! R46   R(24,26)                1.3974         estimate D2E/DX2                !
 ! R47   R(24,41)                1.4261         estimate D2E/DX2                !
 ! R48   R(25,26)                1.398          estimate D2E/DX2                !
 ! R49   R(25,28)                1.5128         estimate D2E/DX2                !
 ! R50   R(26,44)                1.4474         estimate D2E/DX2                !
 ! R51   R(27,28)                1.5058         estimate D2E/DX2                !
 ! R52   R(27,30)                1.3974         estimate D2E/DX2                !
 ! R53   R(28,45)                1.4985         estimate D2E/DX2                !
 ! R54   R(28,75)                1.8189         estimate D2E/DX2                !
 ! R55   R(29,30)                1.4086         estimate D2E/DX2                !
 ! R56   R(29,31)                1.5202         estimate D2E/DX2                !
 ! R57   R(30,47)                1.519          estimate D2E/DX2                !
 ! R58   R(31,34)                1.5063         estimate D2E/DX2                !
 ! R59   R(31,49)                1.5012         estimate D2E/DX2                !
 ! R60   R(31,71)                1.8096         estimate D2E/DX2                !
 ! R61   R(32,33)                1.4361         estimate D2E/DX2                !
 ! R62   R(32,34)                1.3525         estimate D2E/DX2                !
 ! R63   R(33,36)                1.3727         estimate D2E/DX2                !
 ! R64   R(34,51)                1.4322         estimate D2E/DX2                !
 ! R65   R(35,36)                1.4331         estimate D2E/DX2                !
 ! R66   R(35,37)                1.4305         estimate D2E/DX2                !
 ! R67   R(36,52)                1.4255         estimate D2E/DX2                !
 ! R68   R(37,39)                1.3701         estimate D2E/DX2                !
 ! R69   R(37,53)                1.4456         estimate D2E/DX2                !
 ! R70   R(38,39)                1.4341         estimate D2E/DX2                !
 ! R71   R(38,42)                1.4386         estimate D2E/DX2                !
 ! R72   R(39,57)                1.4402         estimate D2E/DX2                !
 ! R73   R(40,41)                1.4441         estimate D2E/DX2                !
 ! R74   R(40,42)                1.373          estimate D2E/DX2                !
 ! R75   R(41,43)                1.3801         estimate D2E/DX2                !
 ! R76   R(42,58)                1.439          estimate D2E/DX2                !
 ! R77   R(43,46)                1.4396         estimate D2E/DX2                !
 ! R78   R(43,59)                1.4344         estimate D2E/DX2                !
 ! R79   R(44,45)                1.4214         estimate D2E/DX2                !
 ! R80   R(44,46)                1.3762         estimate D2E/DX2                !
 ! R81   R(45,48)                1.3574         estimate D2E/DX2                !
 ! R82   R(46,61)                1.4257         estimate D2E/DX2                !
 ! R83   R(47,48)                1.506          estimate D2E/DX2                !
 ! R84   R(47,50)                1.502          estimate D2E/DX2                !
 ! R85   R(47,72)                1.8048         estimate D2E/DX2                !
 ! R86   R(48,62)                1.4264         estimate D2E/DX2                !
 ! R87   R(49,50)                1.3567         estimate D2E/DX2                !
 ! R88   R(49,54)                1.4305         estimate D2E/DX2                !
 ! R89   R(50,63)                1.4311         estimate D2E/DX2                !
 ! R90   R(51,52)                1.3867         estimate D2E/DX2                !
 ! R91   R(51,54)                1.4221         estimate D2E/DX2                !
 ! R92   R(52,53)                1.4304         estimate D2E/DX2                !
 ! R93   R(53,55)                1.3788         estimate D2E/DX2                !
 ! R94   R(54,56)                1.3829         estimate D2E/DX2                !
 ! R95   R(55,56)                1.4388         estimate D2E/DX2                !
 ! R96   R(55,60)                1.4356         estimate D2E/DX2                !
 ! R97   R(56,64)                1.4202         estimate D2E/DX2                !
 ! R98   R(57,58)                1.4284         estimate D2E/DX2                !
 ! R99   R(57,60)                1.3839         estimate D2E/DX2                !
 ! R100  R(58,59)                1.3873         estimate D2E/DX2                !
 ! R101  R(59,65)                1.4411         estimate D2E/DX2                !
 ! R102  R(60,66)                1.437          estimate D2E/DX2                !
 ! R103  R(61,62)                1.3864         estimate D2E/DX2                !
 ! R104  R(61,65)                1.4365         estimate D2E/DX2                !
 ! R105  R(62,63)                1.4295         estimate D2E/DX2                !
 ! R106  R(63,64)                1.3808         estimate D2E/DX2                !
 ! R107  R(64,66)                1.4382         estimate D2E/DX2                !
 ! R108  R(65,66)                1.3805         estimate D2E/DX2                !
 ! A1    A(2,1,4)              107.4493         estimate D2E/DX2                !
 ! A2    A(2,1,7)              112.6498         estimate D2E/DX2                !
 ! A3    A(2,1,67)             113.4999         estimate D2E/DX2                !
 ! A4    A(4,1,7)              103.6823         estimate D2E/DX2                !
 ! A5    A(4,1,67)             112.5292         estimate D2E/DX2                !
 ! A6    A(7,1,67)             106.6705         estimate D2E/DX2                !
 ! A7    A(1,2,3)              107.4205         estimate D2E/DX2                !
 ! A8    A(1,2,10)             112.0927         estimate D2E/DX2                !
 ! A9    A(1,2,68)             111.6576         estimate D2E/DX2                !
 ! A10   A(3,2,10)             103.0306         estimate D2E/DX2                !
 ! A11   A(3,2,68)             113.6897         estimate D2E/DX2                !
 ! A12   A(10,2,68)            108.6915         estimate D2E/DX2                !
 ! A13   A(2,3,5)              103.9659         estimate D2E/DX2                !
 ! A14   A(2,3,12)             105.9293         estimate D2E/DX2                !
 ! A15   A(2,3,69)             116.604          estimate D2E/DX2                !
 ! A16   A(5,3,12)             105.9155         estimate D2E/DX2                !
 ! A17   A(5,3,69)             110.8808         estimate D2E/DX2                !
 ! A18   A(12,3,69)            112.664          estimate D2E/DX2                !
 ! A19   A(1,4,5)              102.2767         estimate D2E/DX2                !
 ! A20   A(1,4,6)              106.2785         estimate D2E/DX2                !
 ! A21   A(1,4,73)             113.1956         estimate D2E/DX2                !
 ! A22   A(5,4,6)              112.8316         estimate D2E/DX2                !
 ! A23   A(5,4,73)             108.053          estimate D2E/DX2                !
 ! A24   A(6,4,73)             113.701          estimate D2E/DX2                !
 ! A25   A(3,5,4)              114.4072         estimate D2E/DX2                !
 ! A26   A(3,5,15)             119.7771         estimate D2E/DX2                !
 ! A27   A(4,5,15)             124.1941         estimate D2E/DX2                !
 ! A28   A(4,6,8)              103.5379         estimate D2E/DX2                !
 ! A29   A(4,6,17)             115.3599         estimate D2E/DX2                !
 ! A30   A(4,6,74)             112.0791         estimate D2E/DX2                !
 ! A31   A(8,6,17)             109.062          estimate D2E/DX2                !
 ! A32   A(8,6,74)             108.9195         estimate D2E/DX2                !
 ! A33   A(17,6,74)            107.675          estimate D2E/DX2                !
 ! A34   A(1,7,8)              111.5918         estimate D2E/DX2                !
 ! A35   A(1,7,9)              124.7403         estimate D2E/DX2                !
 ! A36   A(8,7,9)              120.3419         estimate D2E/DX2                !
 ! A37   A(6,8,7)              112.7441         estimate D2E/DX2                !
 ! A38   A(6,8,20)             121.3913         estimate D2E/DX2                !
 ! A39   A(7,8,20)             123.3002         estimate D2E/DX2                !
 ! A40   A(7,9,11)             116.8651         estimate D2E/DX2                !
 ! A41   A(7,9,22)             115.2321         estimate D2E/DX2                !
 ! A42   A(11,9,22)            119.3873         estimate D2E/DX2                !
 ! A43   A(2,10,11)            127.1267         estimate D2E/DX2                !
 ! A44   A(2,10,13)            111.5365         estimate D2E/DX2                !
 ! A45   A(11,10,13)           113.7168         estimate D2E/DX2                !
 ! A46   A(9,11,10)            115.9553         estimate D2E/DX2                !
 ! A47   A(9,11,25)            118.313          estimate D2E/DX2                !
 ! A48   A(10,11,25)           117.018          estimate D2E/DX2                !
 ! A49   A(3,12,13)            110.1121         estimate D2E/DX2                !
 ! A50   A(3,12,14)            124.7718         estimate D2E/DX2                !
 ! A51   A(13,12,14)           119.1472         estimate D2E/DX2                !
 ! A52   A(10,13,12)           108.0383         estimate D2E/DX2                !
 ! A53   A(10,13,27)           127.2168         estimate D2E/DX2                !
 ! A54   A(12,13,27)           120.2474         estimate D2E/DX2                !
 ! A55   A(12,14,16)           116.2877         estimate D2E/DX2                !
 ! A56   A(12,14,29)           119.6579         estimate D2E/DX2                !
 ! A57   A(16,14,29)           122.4461         estimate D2E/DX2                !
 ! A58   A(5,15,16)            124.488          estimate D2E/DX2                !
 ! A59   A(5,15,18)            118.6155         estimate D2E/DX2                !
 ! A60   A(16,15,18)           111.0214         estimate D2E/DX2                !
 ! A61   A(14,16,15)           106.1022         estimate D2E/DX2                !
 ! A62   A(14,16,32)           110.1197         estimate D2E/DX2                !
 ! A63   A(14,16,70)           109.2072         estimate D2E/DX2                !
 ! A64   A(15,16,32)           101.5526         estimate D2E/DX2                !
 ! A65   A(15,16,70)           116.5956         estimate D2E/DX2                !
 ! A66   A(32,16,70)           112.8382         estimate D2E/DX2                !
 ! A67   A(6,17,18)            120.2711         estimate D2E/DX2                !
 ! A68   A(6,17,19)            118.7015         estimate D2E/DX2                !
 ! A69   A(18,17,19)           118.4441         estimate D2E/DX2                !
 ! A70   A(15,18,17)           121.2578         estimate D2E/DX2                !
 ! A71   A(15,18,33)           106.4552         estimate D2E/DX2                !
 ! A72   A(17,18,33)           123.786          estimate D2E/DX2                !
 ! A73   A(17,19,21)           119.2139         estimate D2E/DX2                !
 ! A74   A(17,19,35)           116.6864         estimate D2E/DX2                !
 ! A75   A(21,19,35)           117.9573         estimate D2E/DX2                !
 ! A76   A(8,20,21)            119.6683         estimate D2E/DX2                !
 ! A77   A(8,20,23)            114.8845         estimate D2E/DX2                !
 ! A78   A(21,20,23)           120.2115         estimate D2E/DX2                !
 ! A79   A(19,21,20)           118.6176         estimate D2E/DX2                !
 ! A80   A(19,21,38)           118.6954         estimate D2E/DX2                !
 ! A81   A(20,21,38)           116.2637         estimate D2E/DX2                !
 ! A82   A(9,22,23)            122.3018         estimate D2E/DX2                !
 ! A83   A(9,22,24)            121.7502         estimate D2E/DX2                !
 ! A84   A(23,22,24)           107.6175         estimate D2E/DX2                !
 ! A85   A(20,23,22)           119.9403         estimate D2E/DX2                !
 ! A86   A(20,23,40)           122.1465         estimate D2E/DX2                !
 ! A87   A(22,23,40)           108.1156         estimate D2E/DX2                !
 ! A88   A(22,24,26)           117.8334         estimate D2E/DX2                !
 ! A89   A(22,24,41)           108.7816         estimate D2E/DX2                !
 ! A90   A(26,24,41)           120.8656         estimate D2E/DX2                !
 ! A91   A(11,25,26)           119.3926         estimate D2E/DX2                !
 ! A92   A(11,25,28)           125.3576         estimate D2E/DX2                !
 ! A93   A(26,25,28)           109.5198         estimate D2E/DX2                !
 ! A94   A(24,26,25)           122.1492         estimate D2E/DX2                !
 ! A95   A(24,26,44)           118.6079         estimate D2E/DX2                !
 ! A96   A(25,26,44)           109.93           estimate D2E/DX2                !
 ! A97   A(13,27,28)           115.3095         estimate D2E/DX2                !
 ! A98   A(13,27,30)           120.261          estimate D2E/DX2                !
 ! A99   A(28,27,30)           123.0636         estimate D2E/DX2                !
 ! A100  A(25,28,27)           106.7554         estimate D2E/DX2                !
 ! A101  A(25,28,45)           102.0257         estimate D2E/DX2                !
 ! A102  A(25,28,75)           115.5001         estimate D2E/DX2                !
 ! A103  A(27,28,45)           110.8013         estimate D2E/DX2                !
 ! A104  A(27,28,75)           109.6285         estimate D2E/DX2                !
 ! A105  A(45,28,75)           111.8307         estimate D2E/DX2                !
 ! A106  A(14,29,30)           119.8593         estimate D2E/DX2                !
 ! A107  A(14,29,31)           118.0186         estimate D2E/DX2                !
 ! A108  A(30,29,31)           121.183          estimate D2E/DX2                !
 ! A109  A(27,30,29)           118.9158         estimate D2E/DX2                !
 ! A110  A(27,30,47)           119.342          estimate D2E/DX2                !
 ! A111  A(29,30,47)           121.2053         estimate D2E/DX2                !
 ! A112  A(29,31,34)           109.8522         estimate D2E/DX2                !
 ! A113  A(29,31,49)           110.5739         estimate D2E/DX2                !
 ! A114  A(29,31,71)           107.5708         estimate D2E/DX2                !
 ! A115  A(34,31,49)           101.1335         estimate D2E/DX2                !
 ! A116  A(34,31,71)           113.8638         estimate D2E/DX2                !
 ! A117  A(49,31,71)           113.7694         estimate D2E/DX2                !
 ! A118  A(16,32,33)           110.3446         estimate D2E/DX2                !
 ! A119  A(16,32,34)           121.6272         estimate D2E/DX2                !
 ! A120  A(33,32,34)           119.0409         estimate D2E/DX2                !
 ! A121  A(18,33,32)           109.8613         estimate D2E/DX2                !
 ! A122  A(18,33,36)           117.9346         estimate D2E/DX2                !
 ! A123  A(32,33,36)           121.7452         estimate D2E/DX2                !
 ! A124  A(31,34,32)           122.9072         estimate D2E/DX2                !
 ! A125  A(31,34,51)           111.0169         estimate D2E/DX2                !
 ! A126  A(32,34,51)           119.3489         estimate D2E/DX2                !
 ! A127  A(19,35,36)           122.2217         estimate D2E/DX2                !
 ! A128  A(19,35,37)           122.2567         estimate D2E/DX2                !
 ! A129  A(36,35,37)           106.4019         estimate D2E/DX2                !
 ! A130  A(33,36,35)           119.5726         estimate D2E/DX2                !
 ! A131  A(33,36,52)           118.8673         estimate D2E/DX2                !
 ! A132  A(35,36,52)           109.7356         estimate D2E/DX2                !
 ! A133  A(35,37,39)           119.8123         estimate D2E/DX2                !
 ! A134  A(35,37,53)           108.4336         estimate D2E/DX2                !
 ! A135  A(39,37,53)           120.3534         estimate D2E/DX2                !
 ! A136  A(21,38,39)           121.9474         estimate D2E/DX2                !
 ! A137  A(21,38,42)           122.3948         estimate D2E/DX2                !
 ! A138  A(39,38,42)           106.4663         estimate D2E/DX2                !
 ! A139  A(37,39,38)           119.1948         estimate D2E/DX2                !
 ! A140  A(37,39,57)           120.2497         estimate D2E/DX2                !
 ! A141  A(38,39,57)           109.0645         estimate D2E/DX2                !
 ! A142  A(23,40,41)           108.1791         estimate D2E/DX2                !
 ! A143  A(23,40,42)           118.527          estimate D2E/DX2                !
 ! A144  A(41,40,42)           121.1809         estimate D2E/DX2                !
 ! A145  A(24,41,40)           107.0625         estimate D2E/DX2                !
 ! A146  A(24,41,43)           120.5103         estimate D2E/DX2                !
 ! A147  A(40,41,43)           118.9784         estimate D2E/DX2                !
 ! A148  A(38,42,40)           120.1227         estimate D2E/DX2                !
 ! A149  A(38,42,58)           108.9291         estimate D2E/DX2                !
 ! A150  A(40,42,58)           119.6935         estimate D2E/DX2                !
 ! A151  A(41,43,46)           118.8568         estimate D2E/DX2                !
 ! A152  A(41,43,59)           119.934          estimate D2E/DX2                !
 ! A153  A(46,43,59)           108.8557         estimate D2E/DX2                !
 ! A154  A(26,44,45)           106.9649         estimate D2E/DX2                !
 ! A155  A(26,44,46)           119.7354         estimate D2E/DX2                !
 ! A156  A(45,44,46)           121.6292         estimate D2E/DX2                !
 ! A157  A(28,45,44)           110.4586         estimate D2E/DX2                !
 ! A158  A(28,45,48)           122.0521         estimate D2E/DX2                !
 ! A159  A(44,45,48)           120.1197         estimate D2E/DX2                !
 ! A160  A(43,46,44)           121.3914         estimate D2E/DX2                !
 ! A161  A(43,46,61)           107.9836         estimate D2E/DX2                !
 ! A162  A(44,46,61)           118.703          estimate D2E/DX2                !
 ! A163  A(30,47,48)           110.3377         estimate D2E/DX2                !
 ! A164  A(30,47,50)           110.1241         estimate D2E/DX2                !
 ! A165  A(30,47,72)           107.1711         estimate D2E/DX2                !
 ! A166  A(48,47,50)           101.6319         estimate D2E/DX2                !
 ! A167  A(48,47,72)           113.6485         estimate D2E/DX2                !
 ! A168  A(50,47,72)           113.8984         estimate D2E/DX2                !
 ! A169  A(45,48,47)           122.8898         estimate D2E/DX2                !
 ! A170  A(45,48,62)           118.9187         estimate D2E/DX2                !
 ! A171  A(47,48,62)           110.7004         estimate D2E/DX2                !
 ! A172  A(31,49,50)           123.0023         estimate D2E/DX2                !
 ! A173  A(31,49,54)           110.6863         estimate D2E/DX2                !
 ! A174  A(50,49,54)           119.0447         estimate D2E/DX2                !
 ! A175  A(47,50,49)           122.6471         estimate D2E/DX2                !
 ! A176  A(47,50,63)           110.3688         estimate D2E/DX2                !
 ! A177  A(49,50,63)           119.5663         estimate D2E/DX2                !
 ! A178  A(34,51,52)           121.2994         estimate D2E/DX2                !
 ! A179  A(34,51,54)           107.9488         estimate D2E/DX2                !
 ! A180  A(52,51,54)           119.7393         estimate D2E/DX2                !
 ! A181  A(36,52,51)           118.7212         estimate D2E/DX2                !
 ! A182  A(36,52,53)           106.9901         estimate D2E/DX2                !
 ! A183  A(51,52,53)           121.056          estimate D2E/DX2                !
 ! A184  A(37,53,52)           107.904          estimate D2E/DX2                !
 ! A185  A(37,53,55)           119.4544         estimate D2E/DX2                !
 ! A186  A(52,53,55)           119.4531         estimate D2E/DX2                !
 ! A187  A(49,54,51)           108.7054         estimate D2E/DX2                !
 ! A188  A(49,54,56)           121.812          estimate D2E/DX2                !
 ! A189  A(51,54,56)           119.0309         estimate D2E/DX2                !
 ! A190  A(53,55,56)           119.0502         estimate D2E/DX2                !
 ! A191  A(53,55,60)           119.8882         estimate D2E/DX2                !
 ! A192  A(56,55,60)           108.7924         estimate D2E/DX2                !
 ! A193  A(54,56,55)           121.4508         estimate D2E/DX2                !
 ! A194  A(54,56,64)           118.9965         estimate D2E/DX2                !
 ! A195  A(55,56,64)           107.809          estimate D2E/DX2                !
 ! A196  A(39,57,58)           107.6038         estimate D2E/DX2                !
 ! A197  A(39,57,60)           119.1937         estimate D2E/DX2                !
 ! A198  A(58,57,60)           119.9678         estimate D2E/DX2                !
 ! A199  A(42,58,57)           107.6944         estimate D2E/DX2                !
 ! A200  A(42,58,59)           119.1213         estimate D2E/DX2                !
 ! A201  A(57,58,59)           120.1332         estimate D2E/DX2                !
 ! A202  A(43,59,58)           120.8461         estimate D2E/DX2                !
 ! A203  A(43,59,65)           106.5019         estimate D2E/DX2                !
 ! A204  A(58,59,65)           119.9096         estimate D2E/DX2                !
 ! A205  A(55,60,57)           120.5454         estimate D2E/DX2                !
 ! A206  A(55,60,66)           106.6989         estimate D2E/DX2                !
 ! A207  A(57,60,66)           120.026          estimate D2E/DX2                !
 ! A208  A(46,61,62)           119.1062         estimate D2E/DX2                !
 ! A209  A(46,61,65)           107.5724         estimate D2E/DX2                !
 ! A210  A(62,61,65)           121.0328         estimate D2E/DX2                !
 ! A211  A(48,62,61)           121.4558         estimate D2E/DX2                !
 ! A212  A(48,62,63)           108.2138         estimate D2E/DX2                !
 ! A213  A(61,62,63)           119.6628         estimate D2E/DX2                !
 ! A214  A(50,63,62)           108.5889         estimate D2E/DX2                !
 ! A215  A(50,63,64)           121.6676         estimate D2E/DX2                !
 ! A216  A(62,63,64)           119.1622         estimate D2E/DX2                !
 ! A217  A(56,64,63)           118.879          estimate D2E/DX2                !
 ! A218  A(56,64,66)           107.9952         estimate D2E/DX2                !
 ! A219  A(63,64,66)           121.3874         estimate D2E/DX2                !
 ! A220  A(59,65,61)           109.0435         estimate D2E/DX2                !
 ! A221  A(59,65,66)           119.69           estimate D2E/DX2                !
 ! A222  A(61,65,66)           119.2841         estimate D2E/DX2                !
 ! A223  A(60,66,64)           108.6552         estimate D2E/DX2                !
 ! A224  A(60,66,65)           120.1516         estimate D2E/DX2                !
 ! A225  A(64,66,65)           119.366          estimate D2E/DX2                !
 ! D1    D(4,1,2,3)             -4.4042         estimate D2E/DX2                !
 ! D2    D(4,1,2,10)          -116.8865         estimate D2E/DX2                !
 ! D3    D(4,1,2,68)           120.8833         estimate D2E/DX2                !
 ! D4    D(7,1,2,3)            109.1634         estimate D2E/DX2                !
 ! D5    D(7,1,2,10)            -3.3189         estimate D2E/DX2                !
 ! D6    D(7,1,2,68)          -125.5491         estimate D2E/DX2                !
 ! D7    D(67,1,2,3)          -129.478          estimate D2E/DX2                !
 ! D8    D(67,1,2,10)          118.0396         estimate D2E/DX2                !
 ! D9    D(67,1,2,68)           -4.1905         estimate D2E/DX2                !
 ! D10   D(2,1,4,5)             15.2315         estimate D2E/DX2                !
 ! D11   D(2,1,4,6)            133.7364         estimate D2E/DX2                !
 ! D12   D(2,1,4,73)          -100.7632         estimate D2E/DX2                !
 ! D13   D(7,1,4,5)           -104.2397         estimate D2E/DX2                !
 ! D14   D(7,1,4,6)             14.2653         estimate D2E/DX2                !
 ! D15   D(7,1,4,73)           139.7656         estimate D2E/DX2                !
 ! D16   D(67,1,4,5)           140.8864         estimate D2E/DX2                !
 ! D17   D(67,1,4,6)          -100.6087         estimate D2E/DX2                !
 ! D18   D(67,1,4,73)           24.8916         estimate D2E/DX2                !
 ! D19   D(2,1,7,8)           -129.9235         estimate D2E/DX2                !
 ! D20   D(2,1,7,9)             29.3993         estimate D2E/DX2                !
 ! D21   D(4,1,7,8)            -14.0748         estimate D2E/DX2                !
 ! D22   D(4,1,7,9)            145.248          estimate D2E/DX2                !
 ! D23   D(67,1,7,8)           104.908          estimate D2E/DX2                !
 ! D24   D(67,1,7,9)           -95.7693         estimate D2E/DX2                !
 ! D25   D(1,2,3,5)             -8.4059         estimate D2E/DX2                !
 ! D26   D(1,2,3,12)          -119.8034         estimate D2E/DX2                !
 ! D27   D(1,2,3,69)           113.9606         estimate D2E/DX2                !
 ! D28   D(10,2,3,5)           110.0982         estimate D2E/DX2                !
 ! D29   D(10,2,3,12)           -1.2994         estimate D2E/DX2                !
 ! D30   D(10,2,3,69)         -127.5353         estimate D2E/DX2                !
 ! D31   D(68,2,3,5)          -132.4661         estimate D2E/DX2                !
 ! D32   D(68,2,3,12)          116.1364         estimate D2E/DX2                !
 ! D33   D(68,2,3,69)          -10.0996         estimate D2E/DX2                !
 ! D34   D(1,2,10,11)          -23.9913         estimate D2E/DX2                !
 ! D35   D(1,2,10,13)          123.2644         estimate D2E/DX2                !
 ! D36   D(3,2,10,11)         -139.179          estimate D2E/DX2                !
 ! D37   D(3,2,10,13)            8.0767         estimate D2E/DX2                !
 ! D38   D(68,2,10,11)          99.913          estimate D2E/DX2                !
 ! D39   D(68,2,10,13)        -112.8313         estimate D2E/DX2                !
 ! D40   D(2,3,5,4)             19.9578         estimate D2E/DX2                !
 ! D41   D(2,3,5,15)          -146.1315         estimate D2E/DX2                !
 ! D42   D(12,3,5,4)           131.3654         estimate D2E/DX2                !
 ! D43   D(12,3,5,15)          -34.7239         estimate D2E/DX2                !
 ! D44   D(69,3,5,4)          -106.1121         estimate D2E/DX2                !
 ! D45   D(69,3,5,15)           87.7986         estimate D2E/DX2                !
 ! D46   D(2,3,12,13)           -5.9574         estimate D2E/DX2                !
 ! D47   D(2,3,12,14)          146.3778         estimate D2E/DX2                !
 ! D48   D(5,3,12,13)         -115.9788         estimate D2E/DX2                !
 ! D49   D(5,3,12,14)           36.3563         estimate D2E/DX2                !
 ! D50   D(69,3,12,13)         122.6408         estimate D2E/DX2                !
 ! D51   D(69,3,12,14)         -85.0241         estimate D2E/DX2                !
 ! D52   D(1,4,5,3)            -22.3644         estimate D2E/DX2                !
 ! D53   D(1,4,5,15)           143.0234         estimate D2E/DX2                !
 ! D54   D(6,4,5,3)           -136.1221         estimate D2E/DX2                !
 ! D55   D(6,4,5,15)            29.2657         estimate D2E/DX2                !
 ! D56   D(73,4,5,3)            97.298          estimate D2E/DX2                !
 ! D57   D(73,4,5,15)          -97.3141         estimate D2E/DX2                !
 ! D58   D(1,4,6,8)             -9.8776         estimate D2E/DX2                !
 ! D59   D(1,4,6,17)          -128.9473         estimate D2E/DX2                !
 ! D60   D(1,4,6,74)           107.3526         estimate D2E/DX2                !
 ! D61   D(5,4,6,8)            101.4245         estimate D2E/DX2                !
 ! D62   D(5,4,6,17)           -17.6451         estimate D2E/DX2                !
 ! D63   D(5,4,6,74)          -141.3453         estimate D2E/DX2                !
 ! D64   D(73,4,6,8)          -135.0689         estimate D2E/DX2                !
 ! D65   D(73,4,6,17)          105.8615         estimate D2E/DX2                !
 ! D66   D(73,4,6,74)          -17.8387         estimate D2E/DX2                !
 ! D67   D(3,5,15,16)           -1.4656         estimate D2E/DX2                !
 ! D68   D(3,5,15,18)          149.0572         estimate D2E/DX2                !
 ! D69   D(4,5,15,16)         -166.1179         estimate D2E/DX2                !
 ! D70   D(4,5,15,18)          -15.5951         estimate D2E/DX2                !
 ! D71   D(4,6,8,7)              1.452          estimate D2E/DX2                !
 ! D72   D(4,6,8,20)          -160.9489         estimate D2E/DX2                !
 ! D73   D(17,6,8,7)           124.771          estimate D2E/DX2                !
 ! D74   D(17,6,8,20)          -37.6299         estimate D2E/DX2                !
 ! D75   D(74,6,8,7)          -117.9699         estimate D2E/DX2                !
 ! D76   D(74,6,8,20)           79.6291         estimate D2E/DX2                !
 ! D77   D(4,6,17,18)           -5.112          estimate D2E/DX2                !
 ! D78   D(4,6,17,19)          156.3879         estimate D2E/DX2                !
 ! D79   D(8,6,17,18)         -121.0794         estimate D2E/DX2                !
 ! D80   D(8,6,17,19)           40.4205         estimate D2E/DX2                !
 ! D81   D(74,6,17,18)         120.8761         estimate D2E/DX2                !
 ! D82   D(74,6,17,19)         -77.624          estimate D2E/DX2                !
 ! D83   D(1,7,8,6)              8.2902         estimate D2E/DX2                !
 ! D84   D(1,7,8,20)           170.3031         estimate D2E/DX2                !
 ! D85   D(9,7,8,6)           -152.0635         estimate D2E/DX2                !
 ! D86   D(9,7,8,20)             9.9495         estimate D2E/DX2                !
 ! D87   D(1,7,9,11)           -29.371          estimate D2E/DX2                !
 ! D88   D(1,7,9,22)          -177.2379         estimate D2E/DX2                !
 ! D89   D(8,7,9,11)           128.2683         estimate D2E/DX2                !
 ! D90   D(8,7,9,22)           -19.5986         estimate D2E/DX2                !
 ! D91   D(6,8,20,21)           14.6824         estimate D2E/DX2                !
 ! D92   D(6,8,20,23)          169.1868         estimate D2E/DX2                !
 ! D93   D(7,8,20,21)         -145.8289         estimate D2E/DX2                !
 ! D94   D(7,8,20,23)            8.6755         estimate D2E/DX2                !
 ! D95   D(7,9,11,10)            1.2807         estimate D2E/DX2                !
 ! D96   D(7,9,11,25)         -145.4522         estimate D2E/DX2                !
 ! D97   D(22,9,11,10)         147.7631         estimate D2E/DX2                !
 ! D98   D(22,9,11,25)           1.0301         estimate D2E/DX2                !
 ! D99   D(7,9,22,23)           11.4214         estimate D2E/DX2                !
 ! D100  D(7,9,22,24)          155.7447         estimate D2E/DX2                !
 ! D101  D(11,9,22,23)        -135.5844         estimate D2E/DX2                !
 ! D102  D(11,9,22,24)           8.7389         estimate D2E/DX2                !
 ! D103  D(2,10,11,9)           25.8916         estimate D2E/DX2                !
 ! D104  D(2,10,11,25)         173.0663         estimate D2E/DX2                !
 ! D105  D(13,10,11,9)        -120.7729         estimate D2E/DX2                !
 ! D106  D(13,10,11,25)         26.4017         estimate D2E/DX2                !
 ! D107  D(2,10,13,12)         -12.2125         estimate D2E/DX2                !
 ! D108  D(2,10,13,27)        -168.0781         estimate D2E/DX2                !
 ! D109  D(11,10,13,12)        139.686          estimate D2E/DX2                !
 ! D110  D(11,10,13,27)        -16.1797         estimate D2E/DX2                !
 ! D111  D(9,11,25,26)          -7.9995         estimate D2E/DX2                !
 ! D112  D(9,11,25,28)         142.4496         estimate D2E/DX2                !
 ! D113  D(10,11,25,26)       -154.3827         estimate D2E/DX2                !
 ! D114  D(10,11,25,28)         -3.9337         estimate D2E/DX2                !
 ! D115  D(3,12,13,10)          11.0537         estimate D2E/DX2                !
 ! D116  D(3,12,13,27)         168.9103         estimate D2E/DX2                !
 ! D117  D(14,12,13,10)       -143.0536         estimate D2E/DX2                !
 ! D118  D(14,12,13,27)         14.803          estimate D2E/DX2                !
 ! D119  D(3,12,14,16)          -0.3028         estimate D2E/DX2                !
 ! D120  D(3,12,14,29)        -166.2029         estimate D2E/DX2                !
 ! D121  D(13,12,14,16)        149.7501         estimate D2E/DX2                !
 ! D122  D(13,12,14,29)        -16.15           estimate D2E/DX2                !
 ! D123  D(10,13,27,28)        -18.6423         estimate D2E/DX2                !
 ! D124  D(10,13,27,30)        148.4202         estimate D2E/DX2                !
 ! D125  D(12,13,27,28)       -171.8953         estimate D2E/DX2                !
 ! D126  D(12,13,27,30)         -4.8328         estimate D2E/DX2                !
 ! D127  D(12,14,16,15)        -35.1405         estimate D2E/DX2                !
 ! D128  D(12,14,16,32)       -144.2725         estimate D2E/DX2                !
 ! D129  D(12,14,16,70)         91.3014         estimate D2E/DX2                !
 ! D130  D(29,14,16,15)        130.3311         estimate D2E/DX2                !
 ! D131  D(29,14,16,32)         21.1991         estimate D2E/DX2                !
 ! D132  D(29,14,16,70)       -103.227          estimate D2E/DX2                !
 ! D133  D(12,14,29,30)          7.7581         estimate D2E/DX2                !
 ! D134  D(12,14,29,31)        176.803          estimate D2E/DX2                !
 ! D135  D(16,14,29,30)       -157.2417         estimate D2E/DX2                !
 ! D136  D(16,14,29,31)         11.8032         estimate D2E/DX2                !
 ! D137  D(5,15,16,14)          38.2465         estimate D2E/DX2                !
 ! D138  D(5,15,16,32)         153.3617         estimate D2E/DX2                !
 ! D139  D(5,15,16,70)         -83.5881         estimate D2E/DX2                !
 ! D140  D(18,15,16,14)       -114.1875         estimate D2E/DX2                !
 ! D141  D(18,15,16,32)          0.9277         estimate D2E/DX2                !
 ! D142  D(18,15,16,70)        123.978          estimate D2E/DX2                !
 ! D143  D(5,15,18,17)         -11.1951         estimate D2E/DX2                !
 ! D144  D(5,15,18,33)        -160.242          estimate D2E/DX2                !
 ! D145  D(16,15,18,17)        143.0508         estimate D2E/DX2                !
 ! D146  D(16,15,18,33)         -5.9962         estimate D2E/DX2                !
 ! D147  D(14,16,32,33)        116.6169         estimate D2E/DX2                !
 ! D148  D(14,16,32,34)        -30.1446         estimate D2E/DX2                !
 ! D149  D(15,16,32,33)          4.5081         estimate D2E/DX2                !
 ! D150  D(15,16,32,34)       -142.2534         estimate D2E/DX2                !
 ! D151  D(70,16,32,33)       -121.0764         estimate D2E/DX2                !
 ! D152  D(70,16,32,34)         92.1621         estimate D2E/DX2                !
 ! D153  D(6,17,18,15)          20.8295         estimate D2E/DX2                !
 ! D154  D(6,17,18,33)         164.4238         estimate D2E/DX2                !
 ! D155  D(19,17,18,15)       -140.7172         estimate D2E/DX2                !
 ! D156  D(19,17,18,33)          2.8771         estimate D2E/DX2                !
 ! D157  D(6,17,19,21)         -21.3863         estimate D2E/DX2                !
 ! D158  D(6,17,19,35)        -173.302          estimate D2E/DX2                !
 ! D159  D(18,17,19,21)        140.4541         estimate D2E/DX2                !
 ! D160  D(18,17,19,35)        -11.4616         estimate D2E/DX2                !
 ! D161  D(15,18,33,32)          8.8416         estimate D2E/DX2                !
 ! D162  D(15,18,33,36)        154.4036         estimate D2E/DX2                !
 ! D163  D(17,18,33,32)       -139.2194         estimate D2E/DX2                !
 ! D164  D(17,18,33,36)          6.3426         estimate D2E/DX2                !
 ! D165  D(17,19,21,20)         -4.7676         estimate D2E/DX2                !
 ! D166  D(17,19,21,38)       -155.6142         estimate D2E/DX2                !
 ! D167  D(35,19,21,20)        146.7952         estimate D2E/DX2                !
 ! D168  D(35,19,21,38)         -4.0515         estimate D2E/DX2                !
 ! D169  D(17,19,35,36)         11.4976         estimate D2E/DX2                !
 ! D170  D(17,19,35,37)        153.9137         estimate D2E/DX2                !
 ! D171  D(21,19,35,36)       -140.7807         estimate D2E/DX2                !
 ! D172  D(21,19,35,37)          1.6354         estimate D2E/DX2                !
 ! D173  D(8,20,21,19)           8.4415         estimate D2E/DX2                !
 ! D174  D(8,20,21,38)         159.9837         estimate D2E/DX2                !
 ! D175  D(23,20,21,19)       -144.6959         estimate D2E/DX2                !
 ! D176  D(23,20,21,38)          6.8463         estimate D2E/DX2                !
 ! D177  D(8,20,23,22)         -16.6995         estimate D2E/DX2                !
 ! D178  D(8,20,23,40)        -158.4891         estimate D2E/DX2                !
 ! D179  D(21,20,23,22)        137.6552         estimate D2E/DX2                !
 ! D180  D(21,20,23,40)         -4.1344         estimate D2E/DX2                !
 ! D181  D(19,21,38,39)          3.7749         estimate D2E/DX2                !
 ! D182  D(19,21,38,42)        146.0802         estimate D2E/DX2                !
 ! D183  D(20,21,38,39)       -147.7442         estimate D2E/DX2                !
 ! D184  D(20,21,38,42)         -5.4389         estimate D2E/DX2                !
 ! D185  D(9,22,23,20)           6.9672         estimate D2E/DX2                !
 ! D186  D(9,22,23,40)         153.5291         estimate D2E/DX2                !
 ! D187  D(24,22,23,20)       -141.6778         estimate D2E/DX2                !
 ! D188  D(24,22,23,40)          4.8841         estimate D2E/DX2                !
 ! D189  D(9,22,24,26)         -11.3151         estimate D2E/DX2                !
 ! D190  D(9,22,24,41)        -153.7183         estimate D2E/DX2                !
 ! D191  D(23,22,24,26)        137.5393         estimate D2E/DX2                !
 ! D192  D(23,22,24,41)         -4.8639         estimate D2E/DX2                !
 ! D193  D(20,23,40,41)        142.5984         estimate D2E/DX2                !
 ! D194  D(20,23,40,42)         -0.4117         estimate D2E/DX2                !
 ! D195  D(22,23,40,41)         -3.0717         estimate D2E/DX2                !
 ! D196  D(22,23,40,42)       -146.0817         estimate D2E/DX2                !
 ! D197  D(22,24,26,25)          4.0033         estimate D2E/DX2                !
 ! D198  D(22,24,26,44)       -139.2578         estimate D2E/DX2                !
 ! D199  D(41,24,26,25)        141.7106         estimate D2E/DX2                !
 ! D200  D(41,24,26,44)         -1.5505         estimate D2E/DX2                !
 ! D201  D(22,24,41,40)          2.9639         estimate D2E/DX2                !
 ! D202  D(22,24,41,43)        143.2371         estimate D2E/DX2                !
 ! D203  D(26,24,41,40)       -138.0939         estimate D2E/DX2                !
 ! D204  D(26,24,41,43)          2.1793         estimate D2E/DX2                !
 ! D205  D(11,25,26,24)          5.4901         estimate D2E/DX2                !
 ! D206  D(11,25,26,44)        151.5312         estimate D2E/DX2                !
 ! D207  D(28,25,26,24)       -149.2479         estimate D2E/DX2                !
 ! D208  D(28,25,26,44)         -3.2068         estimate D2E/DX2                !
 ! D209  D(11,25,28,27)        -28.2823         estimate D2E/DX2                !
 ! D210  D(11,25,28,45)       -144.5989         estimate D2E/DX2                !
 ! D211  D(11,25,28,75)         93.8774         estimate D2E/DX2                !
 ! D212  D(26,25,28,27)        124.5939         estimate D2E/DX2                !
 ! D213  D(26,25,28,45)          8.2773         estimate D2E/DX2                !
 ! D214  D(26,25,28,75)       -113.2465         estimate D2E/DX2                !
 ! D215  D(24,26,44,45)        143.7205         estimate D2E/DX2                !
 ! D216  D(24,26,44,46)          0.0449         estimate D2E/DX2                !
 ! D217  D(25,26,44,45)         -3.6834         estimate D2E/DX2                !
 ! D218  D(25,26,44,46)       -147.359          estimate D2E/DX2                !
 ! D219  D(13,27,28,25)         36.8477         estimate D2E/DX2                !
 ! D220  D(13,27,28,45)        147.1597         estimate D2E/DX2                !
 ! D221  D(13,27,28,75)        -88.935          estimate D2E/DX2                !
 ! D222  D(30,27,28,25)       -129.8113         estimate D2E/DX2                !
 ! D223  D(30,27,28,45)        -19.4993         estimate D2E/DX2                !
 ! D224  D(30,27,28,75)        104.406          estimate D2E/DX2                !
 ! D225  D(13,27,30,29)         -3.5999         estimate D2E/DX2                !
 ! D226  D(13,27,30,47)       -175.2998         estimate D2E/DX2                !
 ! D227  D(28,27,30,29)        162.4247         estimate D2E/DX2                !
 ! D228  D(28,27,30,47)         -9.2752         estimate D2E/DX2                !
 ! D229  D(25,28,45,44)        -10.6739         estimate D2E/DX2                !
 ! D230  D(25,28,45,48)        139.2662         estimate D2E/DX2                !
 ! D231  D(27,28,45,44)       -124.0169         estimate D2E/DX2                !
 ! D232  D(27,28,45,48)         25.9232         estimate D2E/DX2                !
 ! D233  D(75,28,45,44)        113.3482         estimate D2E/DX2                !
 ! D234  D(75,28,45,48)        -96.7117         estimate D2E/DX2                !
 ! D235  D(14,29,30,27)          2.1732         estimate D2E/DX2                !
 ! D236  D(14,29,30,47)        173.7129         estimate D2E/DX2                !
 ! D237  D(31,29,30,27)       -166.5178         estimate D2E/DX2                !
 ! D238  D(31,29,30,47)          5.0218         estimate D2E/DX2                !
 ! D239  D(14,29,31,34)        -35.7409         estimate D2E/DX2                !
 ! D240  D(14,29,31,49)       -146.5223         estimate D2E/DX2                !
 ! D241  D(14,29,31,71)         88.6965         estimate D2E/DX2                !
 ! D242  D(30,29,31,34)        133.1518         estimate D2E/DX2                !
 ! D243  D(30,29,31,49)         22.3704         estimate D2E/DX2                !
 ! D244  D(30,29,31,71)       -102.4107         estimate D2E/DX2                !
 ! D245  D(27,30,47,48)         31.2615         estimate D2E/DX2                !
 ! D246  D(27,30,47,50)        142.6585         estimate D2E/DX2                !
 ! D247  D(27,30,47,72)        -92.9524         estimate D2E/DX2                !
 ! D248  D(29,30,47,48)       -140.2428         estimate D2E/DX2                !
 ! D249  D(29,30,47,50)        -28.8458         estimate D2E/DX2                !
 ! D250  D(29,30,47,72)         95.5433         estimate D2E/DX2                !
 ! D251  D(29,31,34,32)         28.3688         estimate D2E/DX2                !
 ! D252  D(29,31,34,51)       -122.5604         estimate D2E/DX2                !
 ! D253  D(49,31,34,32)        145.2306         estimate D2E/DX2                !
 ! D254  D(49,31,34,51)         -5.6986         estimate D2E/DX2                !
 ! D255  D(71,31,34,32)        -92.3407         estimate D2E/DX2                !
 ! D256  D(71,31,34,51)        116.7301         estimate D2E/DX2                !
 ! D257  D(29,31,49,50)        -26.2479         estimate D2E/DX2                !
 ! D258  D(29,31,49,54)        123.5239         estimate D2E/DX2                !
 ! D259  D(34,31,49,50)       -142.5789         estimate D2E/DX2                !
 ! D260  D(34,31,49,54)          7.1928         estimate D2E/DX2                !
 ! D261  D(71,31,49,50)         94.9268         estimate D2E/DX2                !
 ! D262  D(71,31,49,54)       -115.3014         estimate D2E/DX2                !
 ! D263  D(16,32,33,18)         -8.6366         estimate D2E/DX2                !
 ! D264  D(16,32,33,36)       -152.6556         estimate D2E/DX2                !
 ! D265  D(34,32,33,18)        139.0986         estimate D2E/DX2                !
 ! D266  D(34,32,33,36)         -4.9204         estimate D2E/DX2                !
 ! D267  D(16,32,34,31)          5.2546         estimate D2E/DX2                !
 ! D268  D(16,32,34,51)        153.8987         estimate D2E/DX2                !
 ! D269  D(33,32,34,31)       -138.7416         estimate D2E/DX2                !
 ! D270  D(33,32,34,51)          9.9025         estimate D2E/DX2                !
 ! D271  D(18,33,36,35)         -6.49           estimate D2E/DX2                !
 ! D272  D(18,33,36,52)       -145.6181         estimate D2E/DX2                !
 ! D273  D(32,33,36,35)        134.7951         estimate D2E/DX2                !
 ! D274  D(32,33,36,52)         -4.333          estimate D2E/DX2                !
 ! D275  D(31,34,51,52)        146.119          estimate D2E/DX2                !
 ! D276  D(31,34,51,54)          2.2965         estimate D2E/DX2                !
 ! D277  D(32,34,51,52)         -5.9767         estimate D2E/DX2                !
 ! D278  D(32,34,51,54)       -149.7991         estimate D2E/DX2                !
 ! D279  D(19,35,36,33)         -2.5128         estimate D2E/DX2                !
 ! D280  D(19,35,36,52)        139.983          estimate D2E/DX2                !
 ! D281  D(37,35,36,33)       -149.9876         estimate D2E/DX2                !
 ! D282  D(37,35,36,52)         -7.4918         estimate D2E/DX2                !
 ! D283  D(19,35,37,39)          1.2589         estimate D2E/DX2                !
 ! D284  D(19,35,37,53)       -142.3407         estimate D2E/DX2                !
 ! D285  D(36,35,37,39)        148.7195         estimate D2E/DX2                !
 ! D286  D(36,35,37,53)          5.12           estimate D2E/DX2                !
 ! D287  D(33,36,52,51)          8.2344         estimate D2E/DX2                !
 ! D288  D(33,36,52,53)        149.7265         estimate D2E/DX2                !
 ! D289  D(35,36,52,51)       -134.5624         estimate D2E/DX2                !
 ! D290  D(35,36,52,53)          6.9296         estimate D2E/DX2                !
 ! D291  D(35,37,39,38)         -1.6587         estimate D2E/DX2                !
 ! D292  D(35,37,39,57)       -141.0348         estimate D2E/DX2                !
 ! D293  D(53,37,39,38)        137.6181         estimate D2E/DX2                !
 ! D294  D(53,37,39,57)         -1.758          estimate D2E/DX2                !
 ! D295  D(35,37,53,52)         -0.9755         estimate D2E/DX2                !
 ! D296  D(35,37,53,55)        139.9096         estimate D2E/DX2                !
 ! D297  D(39,37,53,52)       -144.343          estimate D2E/DX2                !
 ! D298  D(39,37,53,55)         -3.4579         estimate D2E/DX2                !
 ! D299  D(21,38,39,37)         -0.8888         estimate D2E/DX2                !
 ! D300  D(21,38,39,57)        142.593          estimate D2E/DX2                !
 ! D301  D(42,38,39,37)       -148.3156         estimate D2E/DX2                !
 ! D302  D(42,38,39,57)         -4.8337         estimate D2E/DX2                !
 ! D303  D(21,38,42,40)          1.138          estimate D2E/DX2                !
 ! D304  D(21,38,42,58)       -142.4167         estimate D2E/DX2                !
 ! D305  D(39,38,42,40)        148.3843         estimate D2E/DX2                !
 ! D306  D(39,38,42,58)          4.8296         estimate D2E/DX2                !
 ! D307  D(37,39,57,58)        146.0711         estimate D2E/DX2                !
 ! D308  D(37,39,57,60)          5.0306         estimate D2E/DX2                !
 ! D309  D(38,39,57,58)          3.0389         estimate D2E/DX2                !
 ! D310  D(38,39,57,60)       -138.0016         estimate D2E/DX2                !
 ! D311  D(23,40,41,24)          0.0823         estimate D2E/DX2                !
 ! D312  D(23,40,41,43)       -140.9091         estimate D2E/DX2                !
 ! D313  D(42,40,41,24)        141.9202         estimate D2E/DX2                !
 ! D314  D(42,40,41,43)          0.9288         estimate D2E/DX2                !
 ! D315  D(23,40,42,38)          1.9459         estimate D2E/DX2                !
 ! D316  D(23,40,42,58)        141.6397         estimate D2E/DX2                !
 ! D317  D(41,40,42,38)       -136.1282         estimate D2E/DX2                !
 ! D318  D(41,40,42,58)          3.5656         estimate D2E/DX2                !
 ! D319  D(24,41,43,46)         -1.2357         estimate D2E/DX2                !
 ! D320  D(24,41,43,59)       -139.2327         estimate D2E/DX2                !
 ! D321  D(40,41,43,46)        134.4623         estimate D2E/DX2                !
 ! D322  D(40,41,43,59)         -3.5346         estimate D2E/DX2                !
 ! D323  D(38,42,58,57)         -3.0266         estimate D2E/DX2                !
 ! D324  D(38,42,58,59)        138.3178         estimate D2E/DX2                !
 ! D325  D(40,42,58,57)       -146.7629         estimate D2E/DX2                !
 ! D326  D(40,42,58,59)         -5.4185         estimate D2E/DX2                !
 ! D327  D(41,43,46,44)         -0.2781         estimate D2E/DX2                !
 ! D328  D(41,43,46,61)       -142.4255         estimate D2E/DX2                !
 ! D329  D(59,43,46,44)        141.9305         estimate D2E/DX2                !
 ! D330  D(59,43,46,61)         -0.2169         estimate D2E/DX2                !
 ! D331  D(41,43,59,58)          1.6457         estimate D2E/DX2                !
 ! D332  D(41,43,59,65)        143.1503         estimate D2E/DX2                !
 ! D333  D(46,43,59,58)       -140.0884         estimate D2E/DX2                !
 ! D334  D(46,43,59,65)          1.4163         estimate D2E/DX2                !
 ! D335  D(26,44,45,28)          9.2517         estimate D2E/DX2                !
 ! D336  D(26,44,45,48)       -141.3538         estimate D2E/DX2                !
 ! D337  D(46,44,45,28)        152.0884         estimate D2E/DX2                !
 ! D338  D(46,44,45,48)          1.4828         estimate D2E/DX2                !
 ! D339  D(26,44,46,43)          0.875          estimate D2E/DX2                !
 ! D340  D(26,44,46,61)        139.1605         estimate D2E/DX2                !
 ! D341  D(45,44,46,43)       -137.4103         estimate D2E/DX2                !
 ! D342  D(45,44,46,61)          0.8752         estimate D2E/DX2                !
 ! D343  D(28,45,48,47)         -3.0566         estimate D2E/DX2                !
 ! D344  D(28,45,48,62)       -150.0052         estimate D2E/DX2                !
 ! D345  D(44,45,48,47)        144.0848         estimate D2E/DX2                !
 ! D346  D(44,45,48,62)         -2.8637         estimate D2E/DX2                !
 ! D347  D(43,46,61,62)        141.5954         estimate D2E/DX2                !
 ! D348  D(43,46,61,65)         -1.0818         estimate D2E/DX2                !
 ! D349  D(44,46,61,62)         -1.7353         estimate D2E/DX2                !
 ! D350  D(44,46,61,65)       -144.4124         estimate D2E/DX2                !
 ! D351  D(30,47,48,45)        -25.7774         estimate D2E/DX2                !
 ! D352  D(30,47,48,62)        123.5367         estimate D2E/DX2                !
 ! D353  D(50,47,48,45)       -142.5803         estimate D2E/DX2                !
 ! D354  D(50,47,48,62)          6.7338         estimate D2E/DX2                !
 ! D355  D(72,47,48,45)         94.6223         estimate D2E/DX2                !
 ! D356  D(72,47,48,62)       -116.0636         estimate D2E/DX2                !
 ! D357  D(30,47,50,49)         25.9216         estimate D2E/DX2                !
 ! D358  D(30,47,50,63)       -123.7305         estimate D2E/DX2                !
 ! D359  D(48,47,50,49)        142.8798         estimate D2E/DX2                !
 ! D360  D(48,47,50,63)         -6.7722         estimate D2E/DX2                !
 ! D361  D(72,47,50,49)        -94.4942         estimate D2E/DX2                !
 ! D362  D(72,47,50,63)        115.8538         estimate D2E/DX2                !
 ! D363  D(45,48,62,61)          1.9941         estimate D2E/DX2                !
 ! D364  D(45,48,62,63)        146.2905         estimate D2E/DX2                !
 ! D365  D(47,48,62,61)       -148.6928         estimate D2E/DX2                !
 ! D366  D(47,48,62,63)         -4.3965         estimate D2E/DX2                !
 ! D367  D(31,49,50,47)          1.6741         estimate D2E/DX2                !
 ! D368  D(31,49,50,63)        148.6789         estimate D2E/DX2                !
 ! D369  D(54,49,50,47)       -145.7281         estimate D2E/DX2                !
 ! D370  D(54,49,50,63)          1.2767         estimate D2E/DX2                !
 ! D371  D(31,49,54,51)         -6.3347         estimate D2E/DX2                !
 ! D372  D(31,49,54,56)       -150.719          estimate D2E/DX2                !
 ! D373  D(50,49,54,51)        144.7871         estimate D2E/DX2                !
 ! D374  D(50,49,54,56)          0.4028         estimate D2E/DX2                !
 ! D375  D(47,50,63,62)          4.5853         estimate D2E/DX2                !
 ! D376  D(47,50,63,64)        148.8276         estimate D2E/DX2                !
 ! D377  D(49,50,63,62)       -146.1322         estimate D2E/DX2                !
 ! D378  D(49,50,63,64)         -1.89           estimate D2E/DX2                !
 ! D379  D(34,51,52,36)         -3.2801         estimate D2E/DX2                !
 ! D380  D(34,51,52,53)       -139.2466         estimate D2E/DX2                !
 ! D381  D(54,51,52,36)        136.4234         estimate D2E/DX2                !
 ! D382  D(54,51,52,53)          0.4569         estimate D2E/DX2                !
 ! D383  D(34,51,54,49)          2.4486         estimate D2E/DX2                !
 ! D384  D(34,51,54,56)        147.9784         estimate D2E/DX2                !
 ! D385  D(52,51,54,49)       -142.0382         estimate D2E/DX2                !
 ! D386  D(52,51,54,56)          3.4916         estimate D2E/DX2                !
 ! D387  D(36,52,53,37)         -3.6024         estimate D2E/DX2                !
 ! D388  D(36,52,53,55)       -144.4881         estimate D2E/DX2                !
 ! D389  D(51,52,53,37)        136.8008         estimate D2E/DX2                !
 ! D390  D(51,52,53,55)         -4.0849         estimate D2E/DX2                !
 ! D391  D(37,53,55,56)       -132.7627         estimate D2E/DX2                !
 ! D392  D(37,53,55,60)          5.3344         estimate D2E/DX2                !
 ! D393  D(52,53,55,56)          3.6524         estimate D2E/DX2                !
 ! D394  D(52,53,55,60)        141.7495         estimate D2E/DX2                !
 ! D395  D(49,54,56,55)        136.9739         estimate D2E/DX2                !
 ! D396  D(49,54,56,64)         -1.5189         estimate D2E/DX2                !
 ! D397  D(51,54,56,55)         -3.9134         estimate D2E/DX2                !
 ! D398  D(51,54,56,64)       -142.4063         estimate D2E/DX2                !
 ! D399  D(53,55,56,54)          0.3122         estimate D2E/DX2                !
 ! D400  D(53,55,56,64)        142.8083         estimate D2E/DX2                !
 ! D401  D(60,55,56,54)       -141.9789         estimate D2E/DX2                !
 ! D402  D(60,55,56,64)          0.5172         estimate D2E/DX2                !
 ! D403  D(53,55,60,57)         -2.0534         estimate D2E/DX2                !
 ! D404  D(53,55,60,66)       -143.6481         estimate D2E/DX2                !
 ! D405  D(56,55,60,57)        139.8692         estimate D2E/DX2                !
 ! D406  D(56,55,60,66)         -1.7254         estimate D2E/DX2                !
 ! D407  D(54,56,64,63)          0.913          estimate D2E/DX2                !
 ! D408  D(54,56,64,66)        144.4789         estimate D2E/DX2                !
 ! D409  D(55,56,64,63)       -142.6593         estimate D2E/DX2                !
 ! D410  D(55,56,64,66)          0.9066         estimate D2E/DX2                !
 ! D411  D(39,57,58,42)         -0.0001         estimate D2E/DX2                !
 ! D412  D(39,57,58,59)       -140.8804         estimate D2E/DX2                !
 ! D413  D(60,57,58,42)        140.6828         estimate D2E/DX2                !
 ! D414  D(60,57,58,59)         -0.1975         estimate D2E/DX2                !
 ! D415  D(39,57,60,55)         -3.1379         estimate D2E/DX2                !
 ! D416  D(39,57,60,66)        133.449          estimate D2E/DX2                !
 ! D417  D(58,57,60,55)       -139.3638         estimate D2E/DX2                !
 ! D418  D(58,57,60,66)         -2.7768         estimate D2E/DX2                !
 ! D419  D(42,58,59,43)          2.8437         estimate D2E/DX2                !
 ! D420  D(42,58,59,65)       -133.6437         estimate D2E/DX2                !
 ! D421  D(57,58,59,43)        139.366          estimate D2E/DX2                !
 ! D422  D(57,58,59,65)          2.8786         estimate D2E/DX2                !
 ! D423  D(43,59,65,61)         -2.0961         estimate D2E/DX2                !
 ! D424  D(43,59,65,66)       -144.5126         estimate D2E/DX2                !
 ! D425  D(58,59,65,61)        139.8417         estimate D2E/DX2                !
[...]
              Bcc     0.0352     4.718     1.684     1.574  0.8914  0.1045 -0.4410
 
              Baa    -0.0038    -0.510    -0.182    -0.170  0.2667  0.9255 -0.2689
    15 C(13)  Bbb    -0.0016    -0.214    -0.076    -0.072  0.8065 -0.3671 -0.4635
              Bcc     0.0054     0.724     0.258     0.242  0.5276  0.0933  0.8443
 
              Baa    -0.0016    -0.211    -0.075    -0.070  0.1879  0.9811  0.0452
    16 C(13)  Bbb    -0.0013    -0.177    -0.063    -0.059  0.9717 -0.1790 -0.1540
              Bcc     0.0029     0.388     0.138     0.129  0.1430 -0.0729  0.9870
 
              Baa    -0.0008    -0.111    -0.040    -0.037 -0.5543  0.6771 -0.4840
    17 C(13)  Bbb    -0.0004    -0.052    -0.019    -0.017  0.8323  0.4478 -0.3267
              Bcc     0.0012     0.163     0.058     0.054  0.0045  0.5840  0.8118
 
              Baa    -0.0012    -0.159    -0.057    -0.053  0.7656 -0.5266  0.3694
    18 C(13)  Bbb    -0.0003    -0.046    -0.016    -0.015  0.6425  0.6545 -0.3985
              Bcc     0.0015     0.205     0.073     0.068 -0.0319  0.5425  0.8395
 
              Baa    -0.0008    -0.112    -0.040    -0.037  0.8325  0.5539 -0.0155
    19 C(13)  Bbb    -0.0003    -0.040    -0.014    -0.013  0.4045 -0.5883  0.7002
              Bcc     0.0011     0.152     0.054     0.051 -0.3787  0.5892  0.7138
 
              Baa    -0.0110    -1.475    -0.526    -0.492  0.5517  0.8211 -0.1464
    20 C(13)  Bbb     0.0050     0.677     0.241     0.226  0.5118 -0.1947  0.8368
              Bcc     0.0060     0.799     0.285     0.266  0.6585 -0.5366 -0.5276
 
              Baa    -0.0008    -0.110    -0.039    -0.037  0.8716  0.3953 -0.2898
    21 C(13)  Bbb    -0.0005    -0.061    -0.022    -0.020  0.4417 -0.3771  0.8140
              Bcc     0.0013     0.171     0.061     0.057 -0.2125  0.8376  0.5033
 
              Baa    -0.0471    -6.324    -2.256    -2.109 -0.4213 -0.5323  0.7343
    22 C(13)  Bbb     0.0230     3.091     1.103     1.031  0.0047  0.8083  0.5887
              Bcc     0.0241     3.233     1.154     1.078  0.9069 -0.2514  0.3380
 
              Baa    -0.0057    -0.762    -0.272    -0.254  0.2251  0.0972  0.9695
    23 C(13)  Bbb    -0.0047    -0.626    -0.223    -0.209  0.8505 -0.5050 -0.1468
              Bcc     0.0103     1.388     0.495     0.463  0.4753  0.8576 -0.1963
 
              Baa    -0.0693    -9.301    -3.319    -3.102  0.6919  0.6126  0.3820
    24 C(13)  Bbb    -0.0650    -8.727    -3.114    -2.911  0.7082 -0.6788 -0.1941
              Bcc     0.1343    18.028     6.433     6.013 -0.1404 -0.4048  0.9035
 
              Baa    -0.1354   -18.170    -6.483    -6.061  0.8297  0.5531  0.0751
    25 C(13)  Bbb    -0.1270   -17.037    -6.079    -5.683 -0.4668  0.7614 -0.4499
              Bcc     0.2624    35.206    12.563    11.744 -0.3060  0.3383  0.8899
 
              Baa    -0.0592    -7.943    -2.834    -2.649 -0.0588 -0.0347  0.9977
    26 C(13)  Bbb     0.0206     2.769     0.988     0.924  0.8609  0.5042  0.0683
              Bcc     0.0386     5.173     1.846     1.726 -0.5054  0.8629  0.0002
 
              Baa    -0.0832   -11.171    -3.986    -3.726  0.9917  0.0129  0.1277
    27 C(13)  Bbb    -0.0790   -10.595    -3.781    -3.534 -0.1114 -0.4081  0.9061
              Bcc     0.1622    21.766     7.767     7.260 -0.0638  0.9128  0.4033
 
              Baa    -0.0084    -1.127    -0.402    -0.376 -0.5687  0.5140  0.6422
    28 C(13)  Bbb     0.0013     0.176     0.063     0.059 -0.0996  0.7320 -0.6740
              Bcc     0.0071     0.951     0.339     0.317  0.8165  0.4473  0.3651
 
              Baa    -0.0937   -12.580    -4.489    -4.196  0.8002  0.1353  0.5843
    29 C(13)  Bbb    -0.0864   -11.594    -4.137    -3.867 -0.5893 -0.0042  0.8079
              Bcc     0.1801    24.174     8.626     8.064 -0.1118  0.9908 -0.0764
 
              Baa    -0.0601    -8.064    -2.877    -2.690 -0.1098  0.9916  0.0686
    30 C(13)  Bbb     0.0258     3.458     1.234     1.154  0.9555  0.0862  0.2820
              Bcc     0.0343     4.605     1.643     1.536 -0.2738 -0.0965  0.9569
 
              Baa    -0.0029    -0.393    -0.140    -0.131 -0.0514  0.9810 -0.1870
    31 C(13)  Bbb    -0.0007    -0.097    -0.035    -0.032  0.8324  0.1455  0.5347
              Bcc     0.0037     0.490     0.175     0.164 -0.5517  0.1282  0.8241
 
              Baa    -0.0024    -0.321    -0.115    -0.107  0.9142 -0.2718 -0.3007
    32 C(13)  Bbb    -0.0017    -0.231    -0.082    -0.077  0.3347  0.9246  0.1821
              Bcc     0.0041     0.552     0.197     0.184  0.2285 -0.2671  0.9362
 
              Baa    -0.0014    -0.183    -0.065    -0.061  0.6449 -0.4759  0.5981
    33 C(13)  Bbb    -0.0000    -0.005    -0.002    -0.002  0.7338  0.6044 -0.3103
              Bcc     0.0014     0.189     0.067     0.063 -0.2138  0.6389  0.7390
 
              Baa    -0.0036    -0.483    -0.172    -0.161 -0.0604  0.7939 -0.6050
    34 C(13)  Bbb    -0.0003    -0.042    -0.015    -0.014  0.9943  0.1010  0.0332
              Bcc     0.0039     0.526     0.188     0.175 -0.0874  0.5995  0.7956
 
              Baa    -0.0006    -0.075    -0.027    -0.025  0.8662  0.2130  0.4521
    35 C(13)  Bbb    -0.0001    -0.013    -0.004    -0.004  0.1105  0.8006 -0.5889
              Bcc     0.0007     0.088     0.031     0.029 -0.4874  0.5600  0.6699
 
              Baa    -0.0010    -0.131    -0.047    -0.044  0.9104  0.4037 -0.0906
    36 C(13)  Bbb    -0.0008    -0.108    -0.038    -0.036 -0.4097  0.8491 -0.3334
              Bcc     0.0018     0.239     0.085     0.080 -0.0576  0.3406  0.9384
 
              Baa    -0.0047    -0.636    -0.227    -0.212 -0.1258  0.6845  0.7181
    37 C(13)  Bbb     0.0023     0.306     0.109     0.102  0.9903  0.1303  0.0493
              Bcc     0.0025     0.330     0.118     0.110 -0.0598  0.7173 -0.6942
 
              Baa    -0.0050    -0.673    -0.240    -0.225  0.1193  0.9772  0.1754
    38 C(13)  Bbb     0.0022     0.302     0.108     0.101  0.4553 -0.2109  0.8650
              Bcc     0.0028     0.371     0.133     0.124  0.8823 -0.0233 -0.4701
 
              Baa    -0.0032    -0.434    -0.155    -0.145  0.7611  0.5006 -0.4125
    39 C(13)  Bbb    -0.0030    -0.401    -0.143    -0.134  0.5873 -0.2617  0.7659
              Bcc     0.0062     0.835     0.298     0.279 -0.2755  0.8252  0.4932
 
              Baa    -0.0076    -1.022    -0.365    -0.341  0.6332  0.3497  0.6905
    40 C(13)  Bbb    -0.0061    -0.819    -0.292    -0.273  0.7735 -0.2529 -0.5812
              Bcc     0.0137     1.841     0.657     0.614 -0.0286  0.9021 -0.4306
 
              Baa    -0.0324    -4.346    -1.551    -1.450  0.1268 -0.5975  0.7918
    41 C(13)  Bbb     0.0134     1.797     0.641     0.599  0.4861  0.7333  0.4755
              Bcc     0.0190     2.549     0.910     0.850  0.8647 -0.3246 -0.3834
 
              Baa    -0.0090    -1.212    -0.433    -0.404 -0.1862  0.9596 -0.2110
    42 C(13)  Bbb     0.0037     0.503     0.179     0.168  0.3360  0.2639  0.9041
              Bcc     0.0053     0.710     0.253     0.237  0.9233  0.0974 -0.3716
 
              Baa    -0.0347    -4.652    -1.660    -1.552  0.6859  0.7271  0.0289
    43 C(13)  Bbb    -0.0320    -4.290    -1.531    -1.431 -0.5297  0.4717  0.7050
              Bcc     0.0666     8.942     3.191     2.983  0.4989 -0.4989  0.7087
 
              Baa    -0.0213    -2.856    -1.019    -0.953  0.4673  0.8243 -0.3196
    44 C(13)  Bbb    -0.0184    -2.466    -0.880    -0.823  0.8201 -0.5392 -0.1915
              Bcc     0.0397     5.322     1.899     1.775  0.3302  0.1726  0.9280
 
              Baa    -0.0120    -1.614    -0.576    -0.538  0.1626  0.5070  0.8464
    45 C(13)  Bbb     0.0024     0.319     0.114     0.107 -0.0758  0.8617 -0.5016
              Bcc     0.0096     1.294     0.462     0.432  0.9838 -0.0174 -0.1786
 
              Baa    -0.0235    -3.158    -1.127    -1.053  0.5243 -0.1098  0.8444
    46 C(13)  Bbb     0.0107     1.430     0.510     0.477  0.7601  0.5074 -0.4060
              Bcc     0.0129     1.727     0.616     0.576 -0.3839  0.8547  0.3495
 
              Baa    -0.0012    -0.158    -0.056    -0.053 -0.2505  0.8663  0.4321
    47 C(13)  Bbb    -0.0006    -0.083    -0.030    -0.028  0.1995 -0.3906  0.8987
              Bcc     0.0018     0.241     0.086     0.080  0.9473  0.3114 -0.0749
 
              Baa    -0.0050    -0.666    -0.237    -0.222  0.2201 -0.6520  0.7256
    48 C(13)  Bbb    -0.0025    -0.330    -0.118    -0.110  0.7182 -0.3950 -0.5729
              Bcc     0.0074     0.996     0.355     0.332  0.6601  0.6472  0.3813
 
              Baa    -0.0021    -0.285    -0.102    -0.095  0.1436  0.9876 -0.0637
    49 C(13)  Bbb    -0.0012    -0.161    -0.057    -0.054  0.3628  0.0074  0.9318
              Bcc     0.0033     0.446     0.159     0.149  0.9207 -0.1569 -0.3572
 
              Baa    -0.0014    -0.188    -0.067    -0.063 -0.0362  0.5767  0.8161
    50 C(13)  Bbb    -0.0000    -0.005    -0.002    -0.002 -0.3486  0.7581 -0.5512
              Bcc     0.0014     0.193     0.069     0.064  0.9366  0.3044 -0.1736
 
              Baa    -0.0039    -0.521    -0.186    -0.174  0.8471  0.3257  0.4199
    51 C(13)  Bbb    -0.0029    -0.386    -0.138    -0.129 -0.4387  0.8745  0.2066
              Bcc     0.0068     0.908     0.324     0.303 -0.3000 -0.3592  0.8837
 
              Baa    -0.0030    -0.403    -0.144    -0.134 -0.1711 -0.0747  0.9824
    52 C(13)  Bbb     0.0011     0.148     0.053     0.049  0.9497  0.2528  0.1846
              Bcc     0.0019     0.255     0.091     0.085 -0.2621  0.9646  0.0277
 
              Baa    -0.0043    -0.573    -0.204    -0.191  0.8146  0.5648  0.1324
    53 C(13)  Bbb    -0.0038    -0.508    -0.181    -0.169 -0.4119  0.7239 -0.5535
              Bcc     0.0081     1.081     0.386     0.361 -0.4084  0.3963  0.8223
 
              Baa    -0.0040    -0.543    -0.194    -0.181 -0.5158 -0.5704  0.6392
    54 C(13)  Bbb     0.0016     0.211     0.075     0.070  0.5443  0.3580  0.7587
              Bcc     0.0025     0.332     0.118     0.111 -0.6616  0.7392  0.1259
 
              Baa    -0.0051    -0.691    -0.246    -0.230  0.7405 -0.2580 -0.6205
    55 C(13)  Bbb     0.0022     0.291     0.104     0.097  0.5337  0.7870  0.3096
              Bcc     0.0030     0.400     0.143     0.133  0.4085 -0.5604  0.7205
 
              Baa    -0.0029    -0.389    -0.139    -0.130  0.5820  0.3868  0.7153
    56 C(13)  Bbb    -0.0025    -0.330    -0.118    -0.110 -0.3733  0.9086 -0.1876
              Bcc     0.0054     0.719     0.257     0.240  0.7225  0.1578 -0.6732
 
              Baa    -0.0080    -1.072    -0.383    -0.358 -0.6072  0.7696  0.1974
    57 C(13)  Bbb     0.0032     0.432     0.154     0.144  0.7399  0.4572  0.4935
              Bcc     0.0048     0.640     0.228     0.213 -0.2895 -0.4457  0.8471
 
              Baa    -0.0196    -2.627    -0.938    -0.876  0.7615  0.5133  0.3957
    58 C(13)  Bbb    -0.0184    -2.464    -0.879    -0.822 -0.4000 -0.1081  0.9101
              Bcc     0.0379     5.091     1.817     1.698 -0.5099  0.8514 -0.1230
 
              Baa    -0.0146    -1.957    -0.698    -0.653 -0.6385  0.6395 -0.4283
    59 C(13)  Bbb     0.0059     0.788     0.281     0.263  0.7459  0.6512 -0.1397
              Bcc     0.0087     1.169     0.417     0.390 -0.1896  0.4086  0.8928
 
              Baa    -0.0101    -1.355    -0.484    -0.452  0.5637  0.7754  0.2846
    60 C(13)  Bbb    -0.0095    -1.273    -0.454    -0.425  0.1202 -0.4179  0.9005
              Bcc     0.0196     2.628     0.938     0.877  0.8172 -0.4734 -0.3288
 
              Baa    -0.0036    -0.478    -0.171    -0.159 -0.2407 -0.6551  0.7162
    61 C(13)  Bbb    -0.0025    -0.334    -0.119    -0.111 -0.3950  0.7401  0.5443
              Bcc     0.0060     0.812     0.290     0.271  0.8866  0.1518  0.4369
 
              Baa    -0.0090    -1.213    -0.433    -0.405  0.7338  0.5162  0.4417
    62 C(13)  Bbb     0.0039     0.529     0.189     0.176 -0.1024 -0.5587  0.8230
              Bcc     0.0051     0.684     0.244     0.228  0.6716 -0.6492 -0.3571
 
              Baa    -0.0013    -0.178    -0.064    -0.060  0.0065  0.3837  0.9234
    63 C(13)  Bbb    -0.0011    -0.147    -0.052    -0.049 -0.1974  0.9058 -0.3750
              Bcc     0.0024     0.325     0.116     0.108  0.9803  0.1799 -0.0816
 
              Baa    -0.0020    -0.268    -0.096    -0.089  0.9009  0.3558 -0.2486
    64 C(13)  Bbb     0.0009     0.125     0.044     0.042  0.3656 -0.3130  0.8766
              Bcc     0.0011     0.143     0.051     0.048 -0.2341  0.8806  0.4121
 
              Baa    -0.0033    -0.437    -0.156    -0.146  0.3954  0.9178 -0.0368
    65 C(13)  Bbb    -0.0027    -0.357    -0.127    -0.119 -0.1338  0.0971  0.9862
              Bcc     0.0059     0.794     0.283     0.265  0.9087 -0.3851  0.1612
 
              Baa    -0.0045    -0.603    -0.215    -0.201  0.9587 -0.2815 -0.0419
    66 C(13)  Bbb     0.0020     0.265     0.095     0.088  0.2125  0.8059 -0.5526
              Bcc     0.0025     0.338     0.121     0.113  0.1893  0.5209  0.8324
 
              Baa    -0.0291    -1.525    -0.544    -0.509  0.8756 -0.3565 -0.3260
    67 Cl(35) Bbb    -0.0092    -0.483    -0.172    -0.161  0.3710  0.0641  0.9264
              Bcc     0.0384     2.008     0.717     0.670  0.3094  0.9321 -0.1884
 
              Baa    -0.2231   -11.678    -4.167    -3.895  0.1466  0.4763  0.8670
    68 Cl(35) Bbb    -0.1996   -10.449    -3.728    -3.485  0.1064  0.8638 -0.4926
              Bcc     0.4228    22.127     7.895     7.381  0.9835 -0.1644 -0.0760
 
              Baa    -0.0202    -1.057    -0.377    -0.353 -0.1803  0.8878  0.4234
    69 Cl(35) Bbb    -0.0091    -0.474    -0.169    -0.158  0.3229 -0.3532  0.8781
              Bcc     0.0293     1.531     0.546     0.511  0.9291  0.2951 -0.2230
 
              Baa    -0.0327    -1.711    -0.610    -0.571  0.5078 -0.3241  0.7982
    70 Cl(35) Bbb     0.0138     0.724     0.258     0.242  0.8270  0.4429 -0.3463
              Bcc     0.0189     0.987     0.352     0.329 -0.2413  0.8359  0.4929
 
              Baa    -0.0722    -3.778    -1.348    -1.260 -0.5696  0.7226  0.3917
    71 Cl(35) Bbb    -0.0618    -3.233    -1.154    -1.078  0.7487  0.2596  0.6100
              Bcc     0.1339     7.011     2.502     2.338 -0.3391 -0.6407  0.6888
 
              Baa    -0.0350    -1.833    -0.654    -0.611  0.6746  0.7162  0.1789
    72 Cl(35) Bbb     0.0147     0.768     0.274     0.256 -0.4898  0.2529  0.8344
              Bcc     0.0203     1.064     0.380     0.355 -0.5524  0.6505 -0.5213
 
              Baa    -0.0027    -0.142    -0.051    -0.047  0.4822  0.4302  0.7631
    73 Cl(35) Bbb    -0.0014    -0.071    -0.025    -0.024 -0.3467  0.8937 -0.2848
              Bcc     0.0041     0.213     0.076     0.071  0.8045  0.1273 -0.5801
 
              Baa    -0.0077    -0.401    -0.143    -0.134 -0.0577  0.8124 -0.5803
    74 Cl(35) Bbb    -0.0066    -0.345    -0.123    -0.115  0.8045 -0.3064 -0.5089
              Bcc     0.0143     0.746     0.266     0.249  0.5912  0.4962  0.6359
 
              Baa    -0.1630    -8.530    -3.044    -2.845  0.9950 -0.0702  0.0712
    75 Cl(35) Bbb    -0.1469    -7.689    -2.743    -2.565 -0.1000 -0.6869  0.7199
              Bcc     0.3099    16.219     5.787     5.410  0.0016  0.7234  0.6905
 

 ---------------------------------------------------------------------------------

 No NMR shielding tensors so no spin-rotation constants.
 Leave Link  601 at Fri Jul 15 03:27:47 2022, MaxMem=  1342177280 cpu:             106.3 elap:               2.5
 (Enter /home/mkliu/g16/l9999.exe)
 1\1\GINC-NODE05\FOpt\UB3LYP\6-311G(d,p)\C66Cl9(2)\MKLIU\15-Jul-2022\0\
 \#P opt b3lyp/6-311G(d, p) empiricaldispersion=GD3\\force\\0,2\C,-1.35
 30678163,1.8806449192,-3.9372141798\C,0.203943501,2.2401684226,-3.9999
 146097\C,0.9481290124,0.8632231993,-4.2686373033\C,-1.5108599047,0.343
 8578936,-4.2815270209\C,-0.1185626454,-0.1672279722,-4.1318092872\C,-2
 .5084089718,-0.253677181,-3.1686800782\C,-1.8592912537,1.9522925341,-2
 .5325348981\C,-2.5903775652,0.8527772937,-2.1693517083\C,-1.4039428093
 ,2.8938888805,-1.5589158486\C,0.7630807564,2.6703261508,-2.6673813425\
 C,0.0078950869,3.2518513062,-1.6092168202\C,1.889010589,0.6999562608,-
 3.0876501373\C,1.8728346233,1.8480075433,-2.2881662735\C,2.2372405757,
 -0.5237669909,-2.5304298084\C,0.1549398652,-1.3496608821,-3.5932562795
 \C,1.5612738874,-1.7545628438,-3.1376946196\C,-2.0227205215,-1.4987971
 311,-2.4305142228\C,-0.8414417911,-2.0983405024,-2.837316803\C,-2.5255
 640656,-1.7808289145,-1.0977003446\C,-3.0586243626,0.6498696488,-0.839
 5901988\C,-3.1277395307,-0.7002760398,-0.2972923445\C,-2.0536381955,2.
 8502203382,-0.3248702645\C,-2.9321552364,1.7537829834,0.01829932\C,-1.
 4025946051,3.2773923366,0.8860366047\C,0.6677278565,3.491507348,-0.399
 9896078\C,-0.0336444137,3.5458147584,0.8334418384\C,2.4269586565,1.839
 0545126,-0.9942334056\C,2.106902072,3.043859449,-0.1377960184\C,2.8339
 439955,-0.5580333553,-1.2470374449\C,2.9665084147,0.6435330475,-0.4952
 159757\C,3.1244054084,-1.9180616659,-0.6056188674\C,1.2630793072,-2.77
 6310043,-2.0765281326\C,-0.146193698,-3.0310118127,-2.0138519666\C,2.0
 231888554,-2.9108809278,-0.956563732\C,-1.9548628041,-2.8691721428,-0.
 3923939298\C,-0.7351201331,-3.4846059828,-0.8449998087\C,-1.9435504548
 ,-2.9366631083,1.050845955\C,-3.1708087894,-0.8272353418,1.1056959134\
 C,-2.5558461662,-1.9439104016,1.7902626444\C,-2.9013568074,1.590040609
 5,1.4457823583\C,-1.9427524534,2.5259900786,1.9942990073\C,-3.03638633
 78,0.3225537347,1.9810634287\C,-1.129040251,2.1369223053,3.053419665\C
 ,0.8294546705,3.1018215886,1.9085932863\C,2.0713166424,2.6858868535,1.
 3301754684\C,0.2915545993,2.4373788451,3.0112923212\C,3.4896837789,0.6
 157783804,0.9428074548\C,2.7184523433,1.590307399,1.8257317419\C,3.013
 4821332,-1.8636153562,0.9069516942\C,3.1963525302,-0.7125667262,1.6146
 231722\C,1.445242507,-3.4529165758,0.2368501523\C,0.0884541916,-3.7866
 946357,0.2939083712\C,-0.6734512912,-3.4878505998,1.4839442574\C,2.085
 6208163,-2.8499083527,1.3802151611\C,-0.0453590606,-2.9732075325,2.613
 6317691\C,1.3721948922,-2.6566564908,2.5648681662\C,-1.9497316076,-1.4
 661561124,3.0166415687\C,-2.2484560218,-0.0598462415,3.1357249993\C,-1
 .2905144662,0.823973783,3.6438715113\C,-0.6992101163,-1.9542279743,3.4
 069772626\C,0.9991703673,1.3192614219,3.569298045\C,2.1889059182,0.904
 286794,2.9662578403\C,2.4853353646,-0.5037030839,2.8402840963\C,1.5879
 987297,-1.4574008555,3.3243339388\C,0.0252268707,0.326094137,3.9934006
 708\C,0.3136172143,-1.0290306479,3.8757901447\Cl,-2.4205853652,2.96623
 64858,-4.9163899197\Cl,0.6160539198,3.5527094173,-5.1729157311\Cl,1.83
 44924556,0.7393608947,-5.8476512573\Cl,2.5485895551,-2.4985730987,-4.4
 946898255\Cl,4.7957942293,-2.4967954598,-1.1402412729\Cl,5.2970081461,
 0.9894308403,0.9176697744\Cl,-1.9960058634,0.0075364666,-5.9920166908\
 Cl,-4.188042876,-0.6129163801,-3.8264946797\Cl,3.3271968846,4.40457107
 71,-0.4789943763\\Version=ES64L-G16RevA.03\State=2-A\HF=-6657.4635812\
 S2=0.783041\S2-1=0.\S2A=0.750952\RMSD=9.434e-09\RMSF=4.178e-05\Dipole=
 -1.0590164,-0.522622,2.0291218\Quadrupole=-6.6791319,5.2236758,1.45545
 61,-1.0405788,-4.7277628,-0.1662357\PG=C01 [X(C66Cl9)]\\@


 THE MORE PROGRESS PHYSICAL SCIENCES MAKE, THE MORE THEY TEND TO ENTER
 THE DOMAIN OF MATHEMATICS, WHICH IS A KIND OF CENTRE TO WHICH THEY ALL
 CONVERGE.  WE MAY EVEN JUDGE THE DEGREE OF PERFECTION TO WHICH A 
 SCIENCE HAS ARRIVED BY THE FACILITY WITH WHICH IT MAY BE SUBMITTED
 TO CALCULATION.

                               -- ADOLPHE QUETELET, 1796-1874
 Job cpu time:       4 days 18 hours 31 minutes 30.8 seconds.
 Elapsed time:       0 days  2 hours 23 minutes 23.3 seconds.
 File lengths (MBytes):  RWF=   2194 Int=      0 D2E=      0 Chk=    198 Scr=      1
 Normal termination of Gaussian 16 at Fri Jul 15 03:27:50 2022.
