 Entering Gaussian System, Link 0=g16
 Input=epy9m4ts7f8jk_addon_9.gjf
 Output=epy9m4ts7f8jk_addon_9.log
 Initial command:
 /home/mkliu/g16/l1.exe "/data/scratch/Gau-73184.inp" -scrdir="/data/scratch/"
 Entering Link 1 = /home/mkliu/g16/l1.exe PID=     73185.
  
 Copyright (c) 1988,1990,1992,1993,1995,1998,2003,2009,2016,
            Gaussian, Inc.  All Rights Reserved.
  
 This is part of the Gaussian(R) 16 program.  It is based on
 the Gaussian(R) 09 system (copyright 2009, Gaussian, Inc.),
 the Gaussian(R) 03 system (copyright 2003, Gaussian, Inc.),
 the Gaussian(R) 98 system (copyright 1998, Gaussian, Inc.),
 the Gaussian(R) 94 system (copyright 1995, Gaussian, Inc.),
 the Gaussian 92(TM) system (copyright 1992, Gaussian, Inc.),
 the Gaussian 90(TM) system (copyright 1990, Gaussian, Inc.),
 the Gaussian 88(TM) system (copyright 1988, Gaussian, Inc.),
 the Gaussian 86(TM) system (copyright 1986, Carnegie Mellon
 University), and the Gaussian 82(TM) system (copyright 1983,
 Carnegie Mellon University). Gaussian is a federally registered
 trademark of Gaussian, Inc.
  
 This software contains proprietary and confidential information,
 including trade secrets, belonging to Gaussian, Inc.
  
 This software is provided under written license and may be
 used, copied, transmitted, or stored only in accord with that
 written license.
  
 The following legend is applicable only to US Government
 contracts under FAR:
  
                    RESTRICTED RIGHTS LEGEND
  
 Use, reproduction and disclosure by the US Government is
 subject to restrictions as set forth in subparagraphs (a)
 and (c) of the Commercial Computer Software - Restricted
 Rights clause in FAR 52.227-19.
  
 Gaussian, Inc.
 340 Quinnipiac St., Bldg. 40, Wallingford CT 06492
  
  
 ---------------------------------------------------------------
 Warning -- This program may not be used in any manner that
 competes with the business of Gaussian, Inc. or will provide
 assistance to any competitor of Gaussian, Inc.  The licensee
 of this program is prohibited from giving any competitor of
 Gaussian, Inc. access to this program.  By using this program,
 the user acknowledges that Gaussian, Inc. is engaged in the
 business of creating and licensing software in the field of
 computational chemistry and represents and warrants to the
 licensee that it is not a competitor of Gaussian, Inc. and that
 it will not use this program in any manner prohibited above.
 ---------------------------------------------------------------
  

 Cite this work as:
 Gaussian 16, Revision A.03,
 M. J. Frisch, G. W. Trucks, H. B. Schlegel, G. E. Scuseria, 
 M. A. Robb, J. R. Cheeseman, G. Scalmani, V. Barone, 
 G. A. Petersson, H. Nakatsuji, X. Li, M. Caricato, A. V. Marenich, 
 J. Bloino, B. G. Janesko, R. Gomperts, B. Mennucci, H. P. Hratchian, 
 J. V. Ortiz, A. F. Izmaylov, J. L. Sonnenberg, D. Williams-Young, 
 F. Ding, F. Lipparini, F. Egidi, J. Goings, B. Peng, A. Petrone, 
 T. Henderson, D. Ranasinghe, V. G. Zakrzewski, J. Gao, N. Rega, 
 G. Zheng, W. Liang, M. Hada, M. Ehara, K. Toyota, R. Fukuda, 
 J. Hasegawa, M. Ishida, T. Nakajima, Y. Honda, O. Kitao, H. Nakai, 
 T. Vreven, K. Throssell, J. A. Montgomery, Jr., J. E. Peralta, 
 F. Ogliaro, M. J. Bearpark, J. J. Heyd, E. N. Brothers, K. N. Kudin, 
 V. N. Staroverov, T. A. Keith, R. Kobayashi, J. Normand, 
 K. Raghavachari, A. P. Rendell, J. C. Burant, S. S. Iyengar, 
 J. Tomasi, M. Cossi, J. M. Millam, M. Klene, C. Adamo, R. Cammi, 
 J. W. Ochterski, R. L. Martin, K. Morokuma, O. Farkas, 
 J. B. Foresman, and D. J. Fox, Gaussian, Inc., Wallingford CT, 2016.
 
 ******************************************
 Gaussian 16:  ES64L-G16RevA.03 25-Dec-2016
                16-Jul-2022 
 ******************************************
 %mem=10GB
 %chk=epy9m4ts7f8jk_addon_9.chk
 %nprocshared=48
 Will use up to   48 processors via shared memory.
 -------------------------------------------------
 #P opt b3lyp/6-311G(d, p) empiricaldispersion=GD3
 -------------------------------------------------
 1/18=20,19=15,26=3,38=1/1,3;
 2/9=110,12=2,17=6,18=5,40=1/2;
 3/5=4,6=6,7=101,11=2,25=1,30=1,71=1,74=-5,124=31/1,2,3;
 4//1;
 5/5=2,38=5/2;
 6/7=2,8=2,9=2,10=2,28=1/1;
 7//1,2,3,16;
 1/18=20,19=15,26=3/3(2);
 2/9=110/2;
 99//99;
 2/9=110/2;
 3/5=4,6=6,7=101,11=2,25=1,30=1,71=1,74=-5,124=31/1,2,3;
 4/5=5,16=3,69=1/1;
 5/5=2,38=5/2;
 7//1,2,3,16;
 1/18=20,19=15,26=3/3(-5);
 2/9=110/2;
 6/7=2,8=2,9=2,10=2,19=2,28=1/1;
 99/9=1/99;
 Leave Link    1 at Sat Jul 16 16:02:01 2022, MaxMem=  1342177280 cpu:               2.2 elap:               0.1
 (Enter /home/mkliu/g16/l101.exe)
 -----
 force
 -----
 Symbolic Z-matrix:
 Charge =  0 Multiplicity = 2
 C                    -1.34286   1.91263  -4.02927 
 C                     0.19835   2.20464  -3.94882 
 C                     0.95035   0.88274  -4.23526 
 C                    -1.45815   0.36018  -4.15546 
 C                    -0.07355  -0.17934  -4.09429 
 C                    -2.08945  -0.11298  -2.89412 
 C                    -2.14325   2.26704  -2.71835 
 C                    -2.54192   0.93156  -2.12133 
 C                    -1.45649   2.93751  -1.55073 
 C                     0.69975   2.56889  -2.60004 
 C                    -0.04319   3.17207  -1.58119 
 C                     1.90186   0.68245  -3.07889 
 C                     1.82682   1.82688  -2.23861 
 C                     2.2576   -0.51709  -2.54782 
 C                     0.21132  -1.3864   -3.6208 
 C                     1.5967   -1.7469   -3.13231 
 C                    -1.87531  -1.37724  -2.36187 
 C                    -0.8674   -2.27574  -3.04747 
 C                    -2.37304  -1.65231  -1.0808 
 C                    -2.98091   0.69273  -0.82991 
 C                    -2.93451  -0.60482  -0.30067 
 C                    -2.06941   2.87042  -0.32643 
 C                    -3.18318   1.90856   0.03696 
 C                    -1.37434   3.22936   0.87897 
 C                     0.64386   3.39257  -0.37797 
 C                    -0.03635   3.52902   0.86021 
 C                     2.43215   1.84458  -0.97082 
 C                     1.90402   2.79356  -0.09458 
 C                     2.93347  -0.57182  -1.24878 
 C                     3.05927   0.64014  -0.4847 
 C                     2.94402  -1.78433  -0.55724 
 C                     1.26922  -2.74979  -2.08399 
 C                    -0.11084  -3.0515   -2.03107 
 C                     2.03531  -2.8524   -0.96007 
 C                    -2.07965  -3.00581  -0.45273 
 C                    -0.6963   -3.45774  -0.86912 
 C                    -1.91383  -2.92785   1.03653 
 C                    -3.11901  -0.79674   1.13802 
 C                    -2.50462  -1.91955   1.76831 
 C                    -2.89209   1.62898   1.47875 
 C                    -1.90833   2.49836   1.99191 
 C                    -2.99364   0.34904   1.98861 
 C                    -1.07556   2.11626   3.04875 
 C                     0.8359    3.10402   1.92302 
 C                     2.04966   2.64234   1.31578 
 C                     0.32294   2.4181    3.00402 
 C                     3.26098   0.55888   0.91277 
 C                     2.73894   1.55416   1.81174 
 C                     3.04332  -1.84639   0.86604 
 C                     3.22685  -0.68946   1.59897 
 C                     1.47318  -3.43781   0.21328 
 C                     0.11496  -3.71966   0.25982 
 C                    -0.64892  -3.42339   1.44104 
 C                     2.12665  -2.85466   1.34562 
 C                     0.00996  -2.92255   2.56169 
 C                     1.41124  -2.62744   2.50948 
 C                    -1.87609  -1.44302   2.98279 
 C                    -2.17899  -0.04817   3.11723 
 C                    -1.21988   0.81423   3.62171 
 C                    -0.63041  -1.91629   3.35146 
 C                     1.05961   1.30691   3.56212 
 C                     2.25601   0.9005    2.99584 
 C                     2.55717  -0.49847   2.86222 
 C                     1.64545  -1.43713   3.29471 
 C                     0.09423   0.32904   3.97338 
 C                     0.38456  -1.0201    3.83826 
 Cl                   -2.01597   2.70181  -5.47124 
 Cl                    0.69579   3.55406  -5.00874 
 Cl                    1.75208   0.78208  -5.8239 
 Cl                    2.64337  -2.41194  -4.45637 
 Cl                   -2.33202  -0.23446  -5.58981 
 Cl                   -1.67996  -3.33731  -4.24407 
 Cl                   -3.62416   3.22599  -3.08903 
 Cl                   -4.85546   2.57215  -0.17597 
 Cl                   -3.38697  -4.16296  -0.95958 
 
 ITRead=  0  0  0  0  0  0  0  0  0  0  0  0  0  0  0  0  0  0  0  0
 ITRead=  0  0  0  0  0  0  0  0  0  0  0  0  0  0  0  0  0  0  0  0
 ITRead=  0  0  0  0  0  0  0  0  0  0  0  0  0  0  0  0  0  0  0  0
 ITRead=  0  0  0  0  0  0  0  0  0  0  0  0  0  0  0
 MicOpt= -1 -1 -1 -1 -1 -1 -1 -1 -1 -1 -1 -1 -1 -1 -1 -1 -1 -1 -1 -1
 MicOpt= -1 -1 -1 -1 -1 -1 -1 -1 -1 -1 -1 -1 -1 -1 -1 -1 -1 -1 -1 -1
 MicOpt= -1 -1 -1 -1 -1 -1 -1 -1 -1 -1 -1 -1 -1 -1 -1 -1 -1 -1 -1 -1
 MicOpt= -1 -1 -1 -1 -1 -1 -1 -1 -1 -1 -1 -1 -1 -1 -1
 NAtoms=     75 NQM=       75 NQMF=       0 NMMI=      0 NMMIF=      0
                NMic=       0 NMicF=      0.
                    Isotopes and Nuclear Properties:
 (Nuclear quadrupole moments (NQMom) in fm**2, nuclear magnetic moments (NMagM)
  in nuclear magnetons)

  Atom         1           2           3           4           5           6           7           8           9          10
 IAtWgt=          12          12          12          12          12          12          12          12          12          12
 AtmWgt=  12.0000000  12.0000000  12.0000000  12.0000000  12.0000000  12.0000000  12.0000000  12.0000000  12.0000000  12.0000000
 NucSpn=           0           0           0           0           0           0           0           0           0           0
 AtZEff=  -0.0000000  -0.0000000  -0.0000000  -0.0000000  -0.0000000  -0.0000000  -0.0000000  -0.0000000  -0.0000000  -0.0000000
 NQMom=    0.0000000   0.0000000   0.0000000   0.0000000   0.0000000   0.0000000   0.0000000   0.0000000   0.0000000   0.0000000
 NMagM=    0.0000000   0.0000000   0.0000000   0.0000000   0.0000000   0.0000000   0.0000000   0.0000000   0.0000000   0.0000000
 AtZNuc=   6.0000000   6.0000000   6.0000000   6.0000000   6.0000000   6.0000000   6.0000000   6.0000000   6.0000000   6.0000000

  Atom        11          12          13          14          15          16          17          18          19          20
 IAtWgt=          12          12          12          12          12          12          12          12          12          12
 AtmWgt=  12.0000000  12.0000000  12.0000000  12.0000000  12.0000000  12.0000000  12.0000000  12.0000000  12.0000000  12.0000000
 NucSpn=           0           0           0           0           0           0           0           0           0           0
 AtZEff=  -0.0000000  -0.0000000  -0.0000000  -0.0000000  -0.0000000  -0.0000000  -0.0000000  -0.0000000  -0.0000000  -0.0000000
 NQMom=    0.0000000   0.0000000   0.0000000   0.0000000   0.0000000   0.0000000   0.0000000   0.0000000   0.0000000   0.0000000
 NMagM=    0.0000000   0.0000000   0.0000000   0.0000000   0.0000000   0.0000000   0.0000000   0.0000000   0.0000000   0.0000000
 AtZNuc=   6.0000000   6.0000000   6.0000000   6.0000000   6.0000000   6.0000000   6.0000000   6.0000000   6.0000000   6.0000000

  Atom        21          22          23          24          25          26          27          28          29          30
 IAtWgt=          12          12          12          12          12          12          12          12          12          12
 AtmWgt=  12.0000000  12.0000000  12.0000000  12.0000000  12.0000000  12.0000000  12.0000000  12.0000000  12.0000000  12.0000000
 NucSpn=           0           0           0           0           0           0           0           0           0           0
 AtZEff=  -0.0000000  -0.0000000  -0.0000000  -0.0000000  -0.0000000  -0.0000000  -0.0000000  -0.0000000  -0.0000000  -0.0000000
 NQMom=    0.0000000   0.0000000   0.0000000   0.0000000   0.0000000   0.0000000   0.0000000   0.0000000   0.0000000   0.0000000
 NMagM=    0.0000000   0.0000000   0.0000000   0.0000000   0.0000000   0.0000000   0.0000000   0.0000000   0.0000000   0.0000000
 AtZNuc=   6.0000000   6.0000000   6.0000000   6.0000000   6.0000000   6.0000000   6.0000000   6.0000000   6.0000000   6.0000000

  Atom        31          32          33          34          35          36          37          38          39          40
 IAtWgt=          12          12          12          12          12          12          12          12          12          12
 AtmWgt=  12.0000000  12.0000000  12.0000000  12.0000000  12.0000000  12.0000000  12.0000000  12.0000000  12.0000000  12.0000000
 NucSpn=           0           0           0           0           0           0           0           0           0           0
 AtZEff=  -0.0000000  -0.0000000  -0.0000000  -0.0000000  -0.0000000  -0.0000000  -0.0000000  -0.0000000  -0.0000000  -0.0000000
 NQMom=    0.0000000   0.0000000   0.0000000   0.0000000   0.0000000   0.0000000   0.0000000   0.0000000   0.0000000   0.0000000
 NMagM=    0.0000000   0.0000000   0.0000000   0.0000000   0.0000000   0.0000000   0.0000000   0.0000000   0.0000000   0.0000000
 AtZNuc=   6.0000000   6.0000000   6.0000000   6.0000000   6.0000000   6.0000000   6.0000000   6.0000000   6.0000000   6.0000000

  Atom        41          42          43          44          45          46          47          48          49          50
 IAtWgt=          12          12          12          12          12          12          12          12          12          12
 AtmWgt=  12.0000000  12.0000000  12.0000000  12.0000000  12.0000000  12.0000000  12.0000000  12.0000000  12.0000000  12.0000000
 NucSpn=           0           0           0           0           0           0           0           0           0           0
 AtZEff=  -0.0000000  -0.0000000  -0.0000000  -0.0000000  -0.0000000  -0.0000000  -0.0000000  -0.0000000  -0.0000000  -0.0000000
 NQMom=    0.0000000   0.0000000   0.0000000   0.0000000   0.0000000   0.0000000   0.0000000   0.0000000   0.0000000   0.0000000
 NMagM=    0.0000000   0.0000000   0.0000000   0.0000000   0.0000000   0.0000000   0.0000000   0.0000000   0.0000000   0.0000000
 AtZNuc=   6.0000000   6.0000000   6.0000000   6.0000000   6.0000000   6.0000000   6.0000000   6.0000000   6.0000000   6.0000000

  Atom        51          52          53          54          55          56          57          58          59          60
 IAtWgt=          12          12          12          12          12          12          12          12          12          12
 AtmWgt=  12.0000000  12.0000000  12.0000000  12.0000000  12.0000000  12.0000000  12.0000000  12.0000000  12.0000000  12.0000000
 NucSpn=           0           0           0           0           0           0           0           0           0           0
 AtZEff=  -0.0000000  -0.0000000  -0.0000000  -0.0000000  -0.0000000  -0.0000000  -0.0000000  -0.0000000  -0.0000000  -0.0000000
 NQMom=    0.0000000   0.0000000   0.0000000   0.0000000   0.0000000   0.0000000   0.0000000   0.0000000   0.0000000   0.0000000
 NMagM=    0.0000000   0.0000000   0.0000000   0.0000000   0.0000000   0.0000000   0.0000000   0.0000000   0.0000000   0.0000000
 AtZNuc=   6.0000000   6.0000000   6.0000000   6.0000000   6.0000000   6.0000000   6.0000000   6.0000000   6.0000000   6.0000000

  Atom        61          62          63          64          65          66          67          68          69          70
 IAtWgt=          12          12          12          12          12          12          35          35          35          35
 AtmWgt=  12.0000000  12.0000000  12.0000000  12.0000000  12.0000000  12.0000000  34.9688527  34.9688527  34.9688527  34.9688527
 NucSpn=           0           0           0           0           0           0           3           3           3           3
 AtZEff=  -0.0000000  -0.0000000  -0.0000000  -0.0000000  -0.0000000  -0.0000000  -0.0000000  -0.0000000  -0.0000000  -0.0000000
 NQMom=    0.0000000   0.0000000   0.0000000   0.0000000   0.0000000   0.0000000  -8.1650000  -8.1650000  -8.1650000  -8.1650000
 NMagM=    0.0000000   0.0000000   0.0000000   0.0000000   0.0000000   0.0000000   0.8218740   0.8218740   0.8218740   0.8218740
 AtZNuc=   6.0000000   6.0000000   6.0000000   6.0000000   6.0000000   6.0000000  17.0000000  17.0000000  17.0000000  17.0000000

  Atom        71          72          73          74          75
 IAtWgt=          35          35          35          35          35
 AtmWgt=  34.9688527  34.9688527  34.9688527  34.9688527  34.9688527
 NucSpn=           3           3           3           3           3
 AtZEff=  -0.0000000  -0.0000000  -0.0000000  -0.0000000  -0.0000000
 NQMom=   -8.1650000  -8.1650000  -8.1650000  -8.1650000  -8.1650000
 NMagM=    0.8218740   0.8218740   0.8218740   0.8218740   0.8218740
 AtZNuc=  17.0000000  17.0000000  17.0000000  17.0000000  17.0000000
 Leave Link  101 at Sat Jul 16 16:02:01 2022, MaxMem=  1342177280 cpu:              13.0 elap:               0.3
 (Enter /home/mkliu/g16/l103.exe)

 GradGradGradGradGradGradGradGradGradGradGradGradGradGradGradGradGradGrad
 Berny optimization.
 Initialization pass.
                           ----------------------------
                           !    Initial Parameters    !
                           ! (Angstroms and Degrees)  !
 --------------------------                            --------------------------
 ! Name  Definition              Value          Derivative Info.                !
 --------------------------------------------------------------------------------
 ! R1    R(1,2)                  1.5707         estimate D2E/DX2                !
 ! R2    R(1,4)                  1.5618         estimate D2E/DX2                !
 ! R3    R(1,7)                  1.5763         estimate D2E/DX2                !
 ! R4    R(1,67)                 1.7763         estimate D2E/DX2                !
 ! R5    R(2,3)                  1.5476         estimate D2E/DX2                !
 ! R6    R(2,10)                 1.4844         estimate D2E/DX2                !
 ! R7    R(2,68)                 1.7866         estimate D2E/DX2                !
 ! R8    R(3,5)                  1.482          estimate D2E/DX2                !
 ! R9    R(3,12)                 1.5109         estimate D2E/DX2                !
 ! R10   R(3,69)                 1.7823         estimate D2E/DX2                !
 ! R11   R(4,5)                  1.4873         estimate D2E/DX2                !
 ! R12   R(4,6)                  1.4877         estimate D2E/DX2                !
 ! R13   R(4,71)                 1.7817         estimate D2E/DX2                !
 ! R14   R(5,15)                 1.3275         estimate D2E/DX2                !
 ! R15   R(6,8)                  1.3759         estimate D2E/DX2                !
 ! R16   R(6,17)                 1.3883         estimate D2E/DX2                !
 ! R17   R(7,8)                  1.5162         estimate D2E/DX2                !
 ! R18   R(7,9)                  1.5115         estimate D2E/DX2                !
 ! R19   R(7,73)                 1.8028         estimate D2E/DX2                !
 ! R20   R(8,20)                 1.3847         estimate D2E/DX2                !
 ! R21   R(9,11)                 1.433          estimate D2E/DX2                !
 ! R22   R(9,22)                 1.3708         estimate D2E/DX2                !
 ! R23   R(10,11)                1.3978         estimate D2E/DX2                !
 ! R24   R(10,13)                1.397          estimate D2E/DX2                !
 ! R25   R(11,25)                1.403          estimate D2E/DX2                !
 ! R26   R(12,13)                1.4218         estimate D2E/DX2                !
 ! R27   R(12,14)                1.3592         estimate D2E/DX2                !
 ! R28   R(13,27)                1.405          estimate D2E/DX2                !
 ! R29   R(14,16)                1.5136         estimate D2E/DX2                !
 ! R30   R(14,29)                1.4654         estimate D2E/DX2                !
 ! R31   R(15,16)                1.5126         estimate D2E/DX2                !
 ! R32   R(15,18)                1.511          estimate D2E/DX2                !
 ! R33   R(16,32)                1.4873         estimate D2E/DX2                !
 ! R34   R(16,70)                1.8141         estimate D2E/DX2                !
 ! R35   R(17,18)                1.5143         estimate D2E/DX2                !
 ! R36   R(17,19)                1.4016         estimate D2E/DX2                !
 ! R37   R(18,33)                1.4857         estimate D2E/DX2                !
 ! R38   R(18,72)                1.7942         estimate D2E/DX2                !
 ! R39   R(19,21)                1.4216         estimate D2E/DX2                !
 ! R40   R(19,35)                1.5207         estimate D2E/DX2                !
 ! R41   R(20,21)                1.4021         estimate D2E/DX2                !
 ! R42   R(20,23)                1.5069         estimate D2E/DX2                !
 ! R43   R(21,38)                1.4631         estimate D2E/DX2                !
 ! R44   R(22,23)                1.5158         estimate D2E/DX2                !
 ! R45   R(22,24)                1.437          estimate D2E/DX2                !
 ! R46   R(23,40)                1.4972         estimate D2E/DX2                !
 ! R47   R(23,74)                1.8117         estimate D2E/DX2                !
 ! R48   R(24,26)                1.3713         estimate D2E/DX2                !
 ! R49   R(24,41)                1.4346         estimate D2E/DX2                !
 ! R50   R(25,26)                1.4193         estimate D2E/DX2                !
 ! R51   R(25,28)                1.4238         estimate D2E/DX2                !
 ! R52   R(26,44)                1.4391         estimate D2E/DX2                !
 ! R53   R(27,28)                1.3954         estimate D2E/DX2                !
 ! R54   R(27,30)                1.4423         estimate D2E/DX2                !
 ! R55   R(28,45)                1.4259         estimate D2E/DX2                !
 ! R56   R(29,30)                1.4382         estimate D2E/DX2                !
 ! R57   R(29,31)                1.3959         estimate D2E/DX2                !
 ! R58   R(30,47)                1.4143         estimate D2E/DX2                !
 ! R59   R(31,34)                1.459          estimate D2E/DX2                !
 ! R60   R(31,49)                1.4281         estimate D2E/DX2                !
 ! R61   R(32,33)                1.4136         estimate D2E/DX2                !
 ! R62   R(32,34)                1.364          estimate D2E/DX2                !
 ! R63   R(33,36)                1.3631         estimate D2E/DX2                !
 ! R64   R(34,51)                1.4267         estimate D2E/DX2                !
 ! R65   R(35,36)                1.5137         estimate D2E/DX2                !
 ! R66   R(35,37)                1.5005         estimate D2E/DX2                !
 ! R67   R(35,75)                1.818          estimate D2E/DX2                !
 ! R68   R(36,52)                1.4147         estimate D2E/DX2                !
 ! R69   R(37,39)                1.3788         estimate D2E/DX2                !
 ! R70   R(37,53)                1.4175         estimate D2E/DX2                !
 ! R71   R(38,39)                1.4267         estimate D2E/DX2                !
 ! R72   R(38,42)                1.4325         estimate D2E/DX2                !
 ! R73   R(39,57)                1.4481         estimate D2E/DX2                !
 ! R74   R(40,41)                1.4096         estimate D2E/DX2                !
 ! R75   R(40,42)                1.3815         estimate D2E/DX2                !
 ! R76   R(41,43)                1.3987         estimate D2E/DX2                !
 ! R77   R(42,58)                1.4475         estimate D2E/DX2                !
 ! R78   R(43,46)                1.4314         estimate D2E/DX2                !
 ! R79   R(43,59)                1.4298         estimate D2E/DX2                !
 ! R80   R(44,45)                1.4336         estimate D2E/DX2                !
 ! R81   R(44,46)                1.3792         estimate D2E/DX2                !
 ! R82   R(45,48)                1.3803         estimate D2E/DX2                !
 ! R83   R(46,61)                1.4453         estimate D2E/DX2                !
 ! R84   R(47,48)                1.4392         estimate D2E/DX2                !
 ! R85   R(47,50)                1.4249         estimate D2E/DX2                !
 ! R86   R(48,62)                1.4362         estimate D2E/DX2                !
 ! R87   R(49,50)                1.3818         estimate D2E/DX2                !
 ! R88   R(49,54)                1.4446         estimate D2E/DX2                !
 ! R89   R(50,63)                1.4425         estimate D2E/DX2                !
 ! R90   R(51,52)                1.3879         estimate D2E/DX2                !
 ! R91   R(51,54)                1.4315         estimate D2E/DX2                !
 ! R92   R(52,53)                1.4376         estimate D2E/DX2                !
 ! R93   R(53,55)                1.3931         estimate D2E/DX2                !
 ! R94   R(54,56)                1.3849         estimate D2E/DX2                !
 ! R95   R(55,56)                1.433          estimate D2E/DX2                !
 ! R96   R(55,60)                1.4305         estimate D2E/DX2                !
 ! R97   R(56,64)                1.4451         estimate D2E/DX2                !
 ! R98   R(57,58)                1.4337         estimate D2E/DX2                !
 ! R99   R(57,60)                1.3826         estimate D2E/DX2                !
 ! R100  R(58,59)                1.385          estimate D2E/DX2                !
 ! R101  R(59,65)                1.4443         estimate D2E/DX2                !
 ! R102  R(60,66)                1.4389         estimate D2E/DX2                !
 ! R103  R(61,62)                1.3846         estimate D2E/DX2                !
 ! R104  R(61,65)                1.4343         estimate D2E/DX2                !
 ! R105  R(62,63)                1.4372         estimate D2E/DX2                !
 ! R106  R(63,64)                1.3782         estimate D2E/DX2                !
 ! R107  R(64,66)                1.435          estimate D2E/DX2                !
 ! R108  R(65,66)                1.3866         estimate D2E/DX2                !
 ! A1    A(2,1,4)              105.1508         estimate D2E/DX2                !
 ! A2    A(2,1,7)              114.446          estimate D2E/DX2                !
 ! A3    A(2,1,67)             109.3183         estimate D2E/DX2                !
 ! A4    A(4,1,7)              104.6664         estimate D2E/DX2                !
 ! A5    A(4,1,67)             110.3689         estimate D2E/DX2                !
 ! A6    A(7,1,67)             112.5083         estimate D2E/DX2                !
 ! A7    A(1,2,3)              107.9703         estimate D2E/DX2                !
 ! A8    A(1,2,10)             115.0632         estimate D2E/DX2                !
 ! A9    A(1,2,68)             112.5349         estimate D2E/DX2                !
 ! A10   A(3,2,10)             102.3363         estimate D2E/DX2                !
 ! A11   A(3,2,68)             113.5826         estimate D2E/DX2                !
 ! A12   A(10,2,68)            105.0509         estimate D2E/DX2                !
 ! A13   A(2,3,5)              105.0006         estimate D2E/DX2                !
 ! A14   A(2,3,12)             106.1174         estimate D2E/DX2                !
 ! A15   A(2,3,69)             115.5814         estimate D2E/DX2                !
 ! A16   A(5,3,12)             105.5042         estimate D2E/DX2                !
 ! A17   A(5,3,69)             110.7992         estimate D2E/DX2                !
 ! A18   A(12,3,69)            113.0428         estimate D2E/DX2                !
 ! A19   A(1,4,5)              106.7704         estimate D2E/DX2                !
 ! A20   A(1,4,6)              106.1977         estimate D2E/DX2                !
 ! A21   A(1,4,71)             115.6568         estimate D2E/DX2                !
 ! A22   A(5,4,6)              104.1703         estimate D2E/DX2                !
 ! A23   A(5,4,71)             111.6321         estimate D2E/DX2                !
 ! A24   A(6,4,71)             111.608          estimate D2E/DX2                !
 ! A25   A(3,5,4)              112.2917         estimate D2E/DX2                !
 ! A26   A(3,5,15)             122.4998         estimate D2E/DX2                !
 ! A27   A(4,5,15)             122.9758         estimate D2E/DX2                !
 ! A28   A(4,6,8)              111.9809         estimate D2E/DX2                !
 ! A29   A(4,6,17)             123.3116         estimate D2E/DX2                !
 ! A30   A(8,6,17)             121.7846         estimate D2E/DX2                !
 ! A31   A(1,7,8)              105.2446         estimate D2E/DX2                !
 ! A32   A(1,7,9)              120.7622         estimate D2E/DX2                !
 ! A33   A(1,7,73)             111.4505         estimate D2E/DX2                !
 ! A34   A(8,7,9)              101.8886         estimate D2E/DX2                !
 ! A35   A(8,7,73)             109.4808         estimate D2E/DX2                !
 ! A36   A(9,7,73)             107.2249         estimate D2E/DX2                !
 ! A37   A(6,8,7)              111.1656         estimate D2E/DX2                !
 ! A38   A(6,8,20)             119.8113         estimate D2E/DX2                !
 ! A39   A(7,8,20)             127.0482         estimate D2E/DX2                !
 ! A40   A(7,9,11)             120.2866         estimate D2E/DX2                !
 ! A41   A(7,9,22)             117.7153         estimate D2E/DX2                !
 ! A42   A(11,9,22)            117.9043         estimate D2E/DX2                !
 ! A43   A(2,10,11)            126.0632         estimate D2E/DX2                !
 ! A44   A(2,10,13)            112.1655         estimate D2E/DX2                !
 ! A45   A(11,10,13)           117.9983         estimate D2E/DX2                !
 ! A46   A(9,11,10)            117.9743         estimate D2E/DX2                !
 ! A47   A(9,11,25)            119.3719         estimate D2E/DX2                !
 ! A48   A(10,11,25)           115.6358         estimate D2E/DX2                !
 ! A49   A(3,12,13)            108.2032         estimate D2E/DX2                !
 ! A50   A(3,12,14)            125.5115         estimate D2E/DX2                !
 ! A51   A(13,12,14)           119.556          estimate D2E/DX2                !
 ! A52   A(10,13,12)           108.4956         estimate D2E/DX2                !
 ! A53   A(10,13,27)           125.0554         estimate D2E/DX2                !
 ! A54   A(12,13,27)           121.3785         estimate D2E/DX2                !
 ! A55   A(12,14,16)           116.8661         estimate D2E/DX2                !
 ! A56   A(12,14,29)           120.0028         estimate D2E/DX2                !
 ! A57   A(16,14,29)           120.8899         estimate D2E/DX2                !
 ! A58   A(5,15,16)            121.9            estimate D2E/DX2                !
 ! A59   A(5,15,18)            121.15           estimate D2E/DX2                !
 ! A60   A(16,15,18)           113.02           estimate D2E/DX2                !
 ! A61   A(14,16,15)           109.3298         estimate D2E/DX2                !
 ! A62   A(14,16,32)           111.8296         estimate D2E/DX2                !
 ! A63   A(14,16,70)           109.1346         estimate D2E/DX2                !
 ! A64   A(15,16,32)           100.7591         estimate D2E/DX2                !
 ! A65   A(15,16,70)           112.3403         estimate D2E/DX2                !
 ! A66   A(32,16,70)           113.222          estimate D2E/DX2                !
 ! A67   A(6,17,18)            117.9944         estimate D2E/DX2                !
 ! A68   A(6,17,19)            118.3162         estimate D2E/DX2                !
 ! A69   A(18,17,19)           122.2567         estimate D2E/DX2                !
 ! A70   A(15,18,17)           107.3213         estimate D2E/DX2                !
 ! A71   A(15,18,33)           101.7332         estimate D2E/DX2                !
 ! A72   A(15,18,72)           114.7394         estimate D2E/DX2                !
 ! A73   A(17,18,33)           109.8169         estimate D2E/DX2                !
 ! A74   A(17,18,72)           110.5835         estimate D2E/DX2                !
 ! A75   A(33,18,72)           112.2066         estimate D2E/DX2                !
 ! A76   A(17,19,21)           119.8151         estimate D2E/DX2                !
 ! A77   A(17,19,35)           118.9239         estimate D2E/DX2                !
 ! A78   A(21,19,35)           120.3554         estimate D2E/DX2                !
 ! A79   A(8,20,21)            120.0755         estimate D2E/DX2                !
 ! A80   A(8,20,23)            116.0982         estimate D2E/DX2                !
 ! A81   A(21,20,23)           122.2753         estimate D2E/DX2                !
 ! A82   A(19,21,20)           119.1965         estimate D2E/DX2                !
 ! A83   A(19,21,38)           119.5211         estimate D2E/DX2                !
 ! A84   A(20,21,38)           119.2343         estimate D2E/DX2                !
 ! A85   A(9,22,23)            125.0089         estimate D2E/DX2                !
 ! A86   A(9,22,24)            121.3781         estimate D2E/DX2                !
 ! A87   A(23,22,24)           108.2289         estimate D2E/DX2                !
 ! A88   A(20,23,22)           105.9891         estimate D2E/DX2                !
 ! A89   A(20,23,40)           112.1617         estimate D2E/DX2                !
 ! A90   A(20,23,74)           110.5989         estimate D2E/DX2                !
 ! A91   A(22,23,40)           101.9173         estimate D2E/DX2                !
 ! A92   A(22,23,74)           114.6848         estimate D2E/DX2                !
 ! A93   A(40,23,74)           111.1637         estimate D2E/DX2                !
 ! A94   A(22,24,26)           121.0023         estimate D2E/DX2                !
 ! A95   A(22,24,41)           110.0854         estimate D2E/DX2                !
 ! A96   A(26,24,41)           119.0222         estimate D2E/DX2                !
 ! A97   A(11,25,26)           121.9103         estimate D2E/DX2                !
 ! A98   A(11,25,28)           122.5479         estimate D2E/DX2                !
 ! A99   A(26,25,28)           106.9171         estimate D2E/DX2                !
 ! A100  A(24,26,25)           117.2938         estimate D2E/DX2                !
 ! A101  A(24,26,44)           121.1153         estimate D2E/DX2                !
 ! A102  A(25,26,44)           108.9904         estimate D2E/DX2                !
 ! A103  A(13,27,28)           114.3374         estimate D2E/DX2                !
 ! A104  A(13,27,30)           118.7462         estimate D2E/DX2                !
 ! A105  A(28,27,30)           121.3874         estimate D2E/DX2                !
 ! A106  A(25,28,27)           119.7426         estimate D2E/DX2                !
 ! A107  A(25,28,45)           109.3835         estimate D2E/DX2                !
 ! A108  A(27,28,45)           120.684          estimate D2E/DX2                !
 ! A109  A(14,29,30)           118.6746         estimate D2E/DX2                !
 ! A110  A(14,29,31)           118.3666         estimate D2E/DX2                !
 ! A111  A(30,29,31)           117.9118         estimate D2E/DX2                !
 ! A112  A(27,30,29)           119.1182         estimate D2E/DX2                !
 ! A113  A(27,30,47)           116.2968         estimate D2E/DX2                !
 ! A114  A(29,30,47)           119.2755         estimate D2E/DX2                !
 ! A115  A(29,31,34)           119.6287         estimate D2E/DX2                !
 ! A116  A(29,31,49)           122.1421         estimate D2E/DX2                !
 ! A117  A(34,31,49)           106.658          estimate D2E/DX2                !
 ! A118  A(16,32,33)           112.6596         estimate D2E/DX2                !
 ! A119  A(16,32,34)           120.5202         estimate D2E/DX2                !
 ! A120  A(33,32,34)           120.0917         estimate D2E/DX2                !
 ! A121  A(18,33,32)           111.1053         estimate D2E/DX2                !
 ! A122  A(18,33,36)           121.3378         estimate D2E/DX2                !
 ! A123  A(32,33,36)           120.9867         estimate D2E/DX2                !
 ! A124  A(31,34,32)           121.4806         estimate D2E/DX2                !
 ! A125  A(31,34,51)           108.5843         estimate D2E/DX2                !
 ! A126  A(32,34,51)           119.1587         estimate D2E/DX2                !
 ! A127  A(19,35,36)           109.1748         estimate D2E/DX2                !
 ! A128  A(19,35,37)           112.6436         estimate D2E/DX2                !
 ! A129  A(19,35,75)           108.2184         estimate D2E/DX2                !
 ! A130  A(36,35,37)           100.8095         estimate D2E/DX2                !
 ! A131  A(36,35,75)           112.983          estimate D2E/DX2                !
 ! A132  A(37,35,75)           112.9076         estimate D2E/DX2                !
 ! A133  A(33,36,35)           122.5508         estimate D2E/DX2                !
 ! A134  A(33,36,52)           119.2849         estimate D2E/DX2                !
 ! A135  A(35,36,52)           111.0904         estimate D2E/DX2                !
 ! A136  A(35,37,39)           121.1577         estimate D2E/DX2                !
 ! A137  A(35,37,53)           111.3269         estimate D2E/DX2                !
 ! A138  A(39,37,53)           119.1142         estimate D2E/DX2                !
 ! A139  A(21,38,39)           118.9038         estimate D2E/DX2                !
 ! A140  A(21,38,42)           117.8994         estimate D2E/DX2                !
 ! A141  A(39,38,42)           109.2364         estimate D2E/DX2                !
 ! A142  A(37,39,38)           121.7059         estimate D2E/DX2                !
 ! A143  A(37,39,57)           119.9839         estimate D2E/DX2                !
 ! A144  A(38,39,57)           107.3641         estimate D2E/DX2                !
 ! A145  A(23,40,41)           111.7824         estimate D2E/DX2                !
 ! A146  A(23,40,42)           120.9389         estimate D2E/DX2                !
 ! A147  A(41,40,42)           119.2332         estimate D2E/DX2                !
 ! A148  A(24,41,40)           106.9554         estimate D2E/DX2                !
 ! A149  A(24,41,43)           120.2479         estimate D2E/DX2                !
 ! A150  A(40,41,43)           121.4733         estimate D2E/DX2                !
 ! A151  A(38,42,40)           121.8934         estimate D2E/DX2                !
 ! A152  A(38,42,58)           107.0224         estimate D2E/DX2                !
 ! A153  A(40,42,58)           120.0424         estimate D2E/DX2                !
 ! A154  A(41,43,46)           120.0315         estimate D2E/DX2                !
 ! A155  A(41,43,59)           119.4353         estimate D2E/DX2                !
 ! A156  A(46,43,59)           107.6475         estimate D2E/DX2                !
 ! A157  A(26,44,45)           107.1849         estimate D2E/DX2                !
 ! A158  A(26,44,46)           120.0194         estimate D2E/DX2                !
 ! A159  A(45,44,46)           119.1262         estimate D2E/DX2                !
 ! A160  A(28,45,44)           107.3581         estimate D2E/DX2                !
 ! A161  A(28,45,48)           119.3411         estimate D2E/DX2                !
 ! A162  A(44,45,48)           121.6344         estimate D2E/DX2                !
 ! A163  A(43,46,44)           119.5211         estimate D2E/DX2                !
 ! A164  A(43,46,61)           108.8925         estimate D2E/DX2                !
 ! A165  A(44,46,61)           119.6999         estimate D2E/DX2                !
 ! A166  A(30,47,48)           121.7186         estimate D2E/DX2                !
 ! A167  A(30,47,50)           121.5177         estimate D2E/DX2                !
 ! A168  A(48,47,50)           107.2391         estimate D2E/DX2                !
 ! A169  A(45,48,47)           120.1255         estimate D2E/DX2                !
 ! A170  A(45,48,62)           119.1533         estimate D2E/DX2                !
 ! A171  A(47,48,62)           108.7977         estimate D2E/DX2                !
 ! A172  A(31,49,50)           120.0982         estimate D2E/DX2                !
 ! A173  A(31,49,54)           108.4859         estimate D2E/DX2                !
 ! A174  A(50,49,54)           119.5097         estimate D2E/DX2                !
 ! A175  A(47,50,49)           118.7675         estimate D2E/DX2                !
 ! A176  A(47,50,63)           108.4729         estimate D2E/DX2                !
 ! A177  A(49,50,63)           120.9111         estimate D2E/DX2                !
 ! A178  A(34,51,52)           119.7676         estimate D2E/DX2                !
 ! A179  A(34,51,54)           107.6699         estimate D2E/DX2                !
 ! A180  A(52,51,54)           120.1925         estimate D2E/DX2                !
 ! A181  A(36,52,51)           119.7902         estimate D2E/DX2                !
 ! A182  A(36,52,53)           108.2311         estimate D2E/DX2                !
 ! A183  A(51,52,53)           120.3779         estimate D2E/DX2                !
 ! A184  A(37,53,52)           108.1645         estimate D2E/DX2                !
 ! A185  A(37,53,55)           121.7305         estimate D2E/DX2                !
 ! A186  A(52,53,55)           118.9306         estimate D2E/DX2                !
 ! A187  A(49,54,51)           108.1425         estimate D2E/DX2                !
 ! A188  A(49,54,56)           119.4892         estimate D2E/DX2                !
 ! A189  A(51,54,56)           119.7203         estimate D2E/DX2                !
 ! A190  A(53,55,56)           120.4789         estimate D2E/DX2                !
 ! A191  A(53,55,60)           119.0303         estimate D2E/DX2                !
 ! A192  A(56,55,60)           108.2402         estimate D2E/DX2                !
 ! A193  A(54,56,55)           120.131          estimate D2E/DX2                !
 ! A194  A(54,56,64)           120.535          estimate D2E/DX2                !
 ! A195  A(55,56,64)           107.9584         estimate D2E/DX2                !
 ! A196  A(39,57,58)           107.8842         estimate D2E/DX2                !
 ! A197  A(39,57,60)           120.1339         estimate D2E/DX2                !
 ! A198  A(58,57,60)           119.8928         estimate D2E/DX2                !
 ! A199  A(42,58,57)           108.2266         estimate D2E/DX2                !
 ! A200  A(42,58,59)           120.1909         estimate D2E/DX2                !
 ! A201  A(57,58,59)           119.5824         estimate D2E/DX2                !
 ! A202  A(43,59,58)           119.4048         estimate D2E/DX2                !
 ! A203  A(43,59,65)           108.1584         estimate D2E/DX2                !
 ! A204  A(58,59,65)           120.6372         estimate D2E/DX2                !
 ! A205  A(55,60,57)           119.7946         estimate D2E/DX2                !
 ! A206  A(55,60,66)           108.0076         estimate D2E/DX2                !
 ! A207  A(57,60,66)           120.8335         estimate D2E/DX2                !
 ! A208  A(46,61,62)           120.5404         estimate D2E/DX2                !
 ! A209  A(46,61,65)           106.9672         estimate D2E/DX2                !
 ! A210  A(62,61,65)           119.9145         estimate D2E/DX2                !
 ! A211  A(48,62,61)           119.6136         estimate D2E/DX2                !
 ! A212  A(48,62,63)           107.2116         estimate D2E/DX2                !
 ! A213  A(61,62,63)           120.3166         estimate D2E/DX2                !
 ! A214  A(50,63,62)           107.9137         estimate D2E/DX2                !
 ! A215  A(50,63,64)           119.4568         estimate D2E/DX2                !
 ! A216  A(62,63,64)           119.6796         estimate D2E/DX2                !
 ! A217  A(56,64,63)           119.8484         estimate D2E/DX2                !
 ! A218  A(56,64,66)           107.6253         estimate D2E/DX2                !
 ! A219  A(63,64,66)           120.1468         estimate D2E/DX2                !
 ! A220  A(59,65,61)           108.2726         estimate D2E/DX2                !
 ! A221  A(59,65,66)           119.5798         estimate D2E/DX2                !
 ! A222  A(61,65,66)           119.6347         estimate D2E/DX2                !
 ! A223  A(60,66,64)           108.0984         estimate D2E/DX2                !
 ! A224  A(60,66,65)           119.4255         estimate D2E/DX2                !
 ! A225  A(64,66,65)           120.2413         estimate D2E/DX2                !
 ! D1    D(4,1,2,3)              8.1988         estimate D2E/DX2                !
 ! D2    D(4,1,2,10)          -105.3565         estimate D2E/DX2                !
 ! D3    D(4,1,2,68)           134.3513         estimate D2E/DX2                !
 ! D4    D(7,1,2,3)            122.4809         estimate D2E/DX2                !
 ! D5    D(7,1,2,10)             8.9256         estimate D2E/DX2                !
 ! D6    D(7,1,2,68)          -111.3665         estimate D2E/DX2                !
 ! D7    D(67,1,2,3)          -110.293          estimate D2E/DX2                !
 ! D8    D(67,1,2,10)          136.1517         estimate D2E/DX2                !
 ! D9    D(67,1,2,68)           15.8596         estimate D2E/DX2                !
 ! D10   D(2,1,4,5)              2.0786         estimate D2E/DX2                !
 ! D11   D(2,1,4,6)            112.7978         estimate D2E/DX2                !
 ! D12   D(2,1,4,71)          -122.8033         estimate D2E/DX2                !
 ! D13   D(7,1,4,5)           -118.855          estimate D2E/DX2                !
 ! D14   D(7,1,4,6)             -8.1359         estimate D2E/DX2                !
 ! D15   D(7,1,4,71)           116.2631         estimate D2E/DX2                !
 ! D16   D(67,1,4,5)           119.8614         estimate D2E/DX2                !
 ! D17   D(67,1,4,6)          -129.4195         estimate D2E/DX2                !
 ! D18   D(67,1,4,71)           -5.0205         estimate D2E/DX2                !
 ! D19   D(2,1,7,8)           -109.4711         estimate D2E/DX2                !
 ! D20   D(2,1,7,9)              4.7779         estimate D2E/DX2                !
 ! D21   D(2,1,7,73)           131.9441         estimate D2E/DX2                !
 ! D22   D(4,1,7,8)              5.095          estimate D2E/DX2                !
 ! D23   D(4,1,7,9)            119.3441         estimate D2E/DX2                !
 ! D24   D(4,1,7,73)          -113.4897         estimate D2E/DX2                !
 ! D25   D(67,1,7,8)           124.9565         estimate D2E/DX2                !
 ! D26   D(67,1,7,9)          -120.7944         estimate D2E/DX2                !
 ! D27   D(67,1,7,73)            6.3718         estimate D2E/DX2                !
 ! D28   D(1,2,3,5)            -15.3205         estimate D2E/DX2                !
 ! D29   D(1,2,3,12)          -126.7584         estimate D2E/DX2                !
 ! D30   D(1,2,3,69)           107.0813         estimate D2E/DX2                !
 ! D31   D(10,2,3,5)           106.4692         estimate D2E/DX2                !
 ! D32   D(10,2,3,12)           -4.9687         estimate D2E/DX2                !
 ! D33   D(10,2,3,69)         -131.129          estimate D2E/DX2                !
 ! D34   D(68,2,3,5)          -140.8556         estimate D2E/DX2                !
 ! D35   D(68,2,3,12)          107.7064         estimate D2E/DX2                !
 ! D36   D(68,2,3,69)          -18.4539         estimate D2E/DX2                !
 ! D37   D(1,2,10,11)          -26.8438         estimate D2E/DX2                !
 ! D38   D(1,2,10,13)          130.6363         estimate D2E/DX2                !
 ! D39   D(3,2,10,11)         -143.6464         estimate D2E/DX2                !
 ! D40   D(3,2,10,13)           13.8337         estimate D2E/DX2                !
 ! D41   D(68,2,10,11)          97.4797         estimate D2E/DX2                !
 ! D42   D(68,2,10,13)        -105.0402         estimate D2E/DX2                !
 ! D43   D(2,3,5,4)             17.4056         estimate D2E/DX2                !
 ! D44   D(2,3,5,15)          -146.06           estimate D2E/DX2                !
 ! D45   D(12,3,5,4)           129.2808         estimate D2E/DX2                !
 ! D46   D(12,3,5,15)          -34.1847         estimate D2E/DX2                !
 ! D47   D(69,3,5,4)          -108.0432         estimate D2E/DX2                !
 ! D48   D(69,3,5,15)           88.4913         estimate D2E/DX2                !
 ! D49   D(2,3,12,13)           -4.8733         estimate D2E/DX2                !
 ! D50   D(2,3,12,14)          145.886          estimate D2E/DX2                !
 ! D51   D(5,3,12,13)         -115.9583         estimate D2E/DX2                !
 ! D52   D(5,3,12,14)           34.8011         estimate D2E/DX2                !
 ! D53   D(69,3,12,13)         122.8134         estimate D2E/DX2                !
 ! D54   D(69,3,12,14)         -86.4273         estimate D2E/DX2                !
 ! D55   D(1,4,5,3)            -12.4368         estimate D2E/DX2                !
 ! D56   D(1,4,5,15)           150.9376         estimate D2E/DX2                !
 ! D57   D(6,4,5,3)           -124.5585         estimate D2E/DX2                !
 ! D58   D(6,4,5,15)            38.8159         estimate D2E/DX2                !
 ! D59   D(71,4,5,3)           114.863          estimate D2E/DX2                !
 ! D60   D(71,4,5,15)          -81.7626         estimate D2E/DX2                !
 ! D61   D(1,4,6,8)              8.746          estimate D2E/DX2                !
 ! D62   D(1,4,6,17)          -152.1543         estimate D2E/DX2                !
 ! D63   D(5,4,6,8)            121.2804         estimate D2E/DX2                !
 ! D64   D(5,4,6,17)           -39.6199         estimate D2E/DX2                !
 ! D65   D(71,4,6,8)          -118.1249         estimate D2E/DX2                !
 ! D66   D(71,4,6,17)           80.9748         estimate D2E/DX2                !
 ! D67   D(3,5,15,16)            2.7257         estimate D2E/DX2                !
 ! D68   D(3,5,15,18)          158.8527         estimate D2E/DX2                !
 ! D69   D(4,5,15,16)         -158.9804         estimate D2E/DX2                !
 ! D70   D(4,5,15,18)           -2.8534         estimate D2E/DX2                !
 ! D71   D(4,6,8,7)             -5.5629         estimate D2E/DX2                !
 ! D72   D(4,6,8,20)          -170.6791         estimate D2E/DX2                !
 ! D73   D(17,6,8,7)           155.6717         estimate D2E/DX2                !
 ! D74   D(17,6,8,20)           -9.4445         estimate D2E/DX2                !
 ! D75   D(4,6,17,18)            4.7765         estimate D2E/DX2                !
 ! D76   D(4,6,17,19)          171.4357         estimate D2E/DX2                !
 ! D77   D(8,6,17,18)         -154.31           estimate D2E/DX2                !
 ! D78   D(8,6,17,19)           12.3493         estimate D2E/DX2                !
 ! D79   D(1,7,8,6)             -0.0111         estimate D2E/DX2                !
 ! D80   D(1,7,8,20)           163.7741         estimate D2E/DX2                !
 ! D81   D(9,7,8,6)           -126.8184         estimate D2E/DX2                !
 ! D82   D(9,7,8,20)            36.9668         estimate D2E/DX2                !
 ! D83   D(73,7,8,6)           119.8868         estimate D2E/DX2                !
 ! D84   D(73,7,8,20)          -76.328          estimate D2E/DX2                !
 ! D85   D(1,7,9,11)            -4.6014         estimate D2E/DX2                !
 ! D86   D(1,7,9,22)          -161.3862         estimate D2E/DX2                !
 ! D87   D(8,7,9,11)           111.3758         estimate D2E/DX2                !
 ! D88   D(8,7,9,22)           -45.409          estimate D2E/DX2                !
 ! D89   D(73,7,9,11)         -133.6587         estimate D2E/DX2                !
 ! D90   D(73,7,9,22)           69.5565         estimate D2E/DX2                !
 ! D91   D(6,8,20,21)            1.5154         estimate D2E/DX2                !
 ! D92   D(6,8,20,23)          167.6365         estimate D2E/DX2                !
 ! D93   D(7,8,20,21)         -161.02           estimate D2E/DX2                !
 ! D94   D(7,8,20,23)            5.1011         estimate D2E/DX2                !
 ! D95   D(7,9,11,10)          -10.6155         estimate D2E/DX2                !
 ! D96   D(7,9,11,25)         -160.0544         estimate D2E/DX2                !
 ! D97   D(22,9,11,10)         146.1265         estimate D2E/DX2                !
 ! D98   D(22,9,11,25)          -3.3124         estimate D2E/DX2                !
 ! D99   D(7,9,22,23)           16.013          estimate D2E/DX2                !
 ! D100  D(7,9,22,24)          167.0013         estimate D2E/DX2                !
 ! D101  D(11,9,22,23)        -141.3329         estimate D2E/DX2                !
 ! D102  D(11,9,22,24)           9.6555         estimate D2E/DX2                !
 ! D103  D(2,10,11,9)           28.035          estimate D2E/DX2                !
 ! D104  D(2,10,11,25)         178.5973         estimate D2E/DX2                !
 ! D105  D(13,10,11,9)        -128.2795         estimate D2E/DX2                !
 ! D106  D(13,10,11,25)         22.2828         estimate D2E/DX2                !
 ! D107  D(2,10,13,12)         -17.759          estimate D2E/DX2                !
 ! D108  D(2,10,13,27)        -172.6401         estimate D2E/DX2                !
 ! D109  D(11,10,13,12)        141.7141         estimate D2E/DX2                !
 ! D110  D(11,10,13,27)        -13.167          estimate D2E/DX2                !
 ! D111  D(9,11,25,26)          -6.6681         estimate D2E/DX2                !
 ! D112  D(9,11,25,28)         136.8546         estimate D2E/DX2                !
 ! D113  D(10,11,25,26)       -156.7952         estimate D2E/DX2                !
 ! D114  D(10,11,25,28)        -13.2725         estimate D2E/DX2                !
 ! D115  D(3,12,13,10)          13.5945         estimate D2E/DX2                !
 ! D116  D(3,12,13,27)         169.5766         estimate D2E/DX2                !
 ! D117  D(14,12,13,10)       -139.2052         estimate D2E/DX2                !
 ! D118  D(14,12,13,27)         16.7769         estimate D2E/DX2                !
 ! D119  D(3,12,14,16)          -2.6774         estimate D2E/DX2                !
 ! D120  D(3,12,14,29)        -165.8272         estimate D2E/DX2                !
 ! D121  D(13,12,14,16)        145.0838         estimate D2E/DX2                !
 ! D122  D(13,12,14,29)        -18.066          estimate D2E/DX2                !
 ! D123  D(10,13,27,28)         -6.6652         estimate D2E/DX2                !
 ! D124  D(10,13,27,30)        147.5022         estimate D2E/DX2                !
 ! D125  D(12,13,27,28)       -158.5312         estimate D2E/DX2                !
 ! D126  D(12,13,27,30)         -4.3637         estimate D2E/DX2                !
 ! D127  D(12,14,16,15)        -30.4306         estimate D2E/DX2                !
 ! D128  D(12,14,16,32)       -141.1399         estimate D2E/DX2                !
 ! D129  D(12,14,16,70)         92.8044         estimate D2E/DX2                !
 ! D130  D(29,14,16,15)        132.5605         estimate D2E/DX2                !
 ! D131  D(29,14,16,32)         21.8512         estimate D2E/DX2                !
 ! D132  D(29,14,16,70)       -104.2044         estimate D2E/DX2                !
 ! D133  D(12,14,29,30)          7.5814         estimate D2E/DX2                !
 ! D134  D(12,14,29,31)        161.9576         estimate D2E/DX2                !
 ! D135  D(16,14,29,30)       -154.8815         estimate D2E/DX2                !
 ! D136  D(16,14,29,31)         -0.5053         estimate D2E/DX2                !
 ! D137  D(5,15,16,14)          31.6081         estimate D2E/DX2                !
 ! D138  D(5,15,16,32)         149.4976         estimate D2E/DX2                !
 ! D139  D(5,15,16,70)         -89.7047         estimate D2E/DX2                !
 ! D140  D(18,15,16,14)       -126.2857         estimate D2E/DX2                !
 ! D141  D(18,15,16,32)         -8.3962         estimate D2E/DX2                !
 ! D142  D(18,15,16,70)        112.4015         estimate D2E/DX2                !
 ! D143  D(5,15,18,17)         -34.311          estimate D2E/DX2                !
 ! D144  D(5,15,18,33)        -149.6184         estimate D2E/DX2                !
 ! D145  D(5,15,18,72)          89.0008         estimate D2E/DX2                !
 ! D146  D(16,15,18,17)        123.7688         estimate D2E/DX2                !
 ! D147  D(16,15,18,33)          8.4614         estimate D2E/DX2                !
 ! D148  D(16,15,18,72)       -112.9194         estimate D2E/DX2                !
 ! D149  D(14,16,32,33)        121.0616         estimate D2E/DX2                !
 ! D150  D(14,16,32,34)        -30.1999         estimate D2E/DX2                !
 ! D151  D(15,16,32,33)          5.017          estimate D2E/DX2                !
 ! D152  D(15,16,32,34)       -146.2445         estimate D2E/DX2                !
 ! D153  D(70,16,32,33)       -115.1517         estimate D2E/DX2                !
 ! D154  D(70,16,32,34)         93.5869         estimate D2E/DX2                !
 ! D155  D(6,17,18,15)          32.4853         estimate D2E/DX2                !
 ! D156  D(6,17,18,33)         142.2897         estimate D2E/DX2                !
 ! D157  D(6,17,18,72)         -93.3452         estimate D2E/DX2                !
 ! D158  D(19,17,18,15)       -133.6161         estimate D2E/DX2                !
 ! D159  D(19,17,18,33)        -23.8117         estimate D2E/DX2                !
 ! D160  D(19,17,18,72)        100.5534         estimate D2E/DX2                !
 ! D161  D(6,17,19,21)          -7.4657         estimate D2E/DX2                !
 ! D162  D(6,17,19,35)        -176.6162         estimate D2E/DX2                !
 ! D163  D(18,17,19,21)        158.5931         estimate D2E/DX2                !
 ! D164  D(18,17,19,35)        -10.5575         estimate D2E/DX2                !
 ! D165  D(15,18,33,32)         -4.9844         estimate D2E/DX2                !
 ! D166  D(15,18,33,36)        146.7958         estimate D2E/DX2                !
 ! D167  D(17,18,33,32)       -118.4419         estimate D2E/DX2                !
 ! D168  D(17,18,33,36)         33.3383         estimate D2E/DX2                !
 ! D169  D(72,18,33,32)        118.1396         estimate D2E/DX2                !
 ! D170  D(72,18,33,36)        -90.0802         estimate D2E/DX2                !
 ! D171  D(17,19,21,20)          0.0114         estimate D2E/DX2                !
 ! D172  D(17,19,21,38)       -163.5969         estimate D2E/DX2                !
 ! D173  D(35,19,21,20)        169.0048         estimate D2E/DX2                !
 ! D174  D(35,19,21,38)          5.3964         estimate D2E/DX2                !
 ! D175  D(17,19,35,36)         35.1186         estimate D2E/DX2                !
 ! D176  D(17,19,35,37)        146.2315         estimate D2E/DX2                !
 ! D177  D(17,19,35,75)        -88.2254         estimate D2E/DX2                !
 ! D178  D(21,19,35,36)       -133.9718         estimate D2E/DX2                !
 ! D179  D(21,19,35,37)        -22.859          estimate D2E/DX2                !
 ! D180  D(21,19,35,75)        102.6842         estimate D2E/DX2                !
 ! D181  D(8,20,21,19)           3.0435         estimate D2E/DX2                !
 ! D182  D(8,20,21,38)         166.6993         estimate D2E/DX2                !
 ! D183  D(23,20,21,19)       -162.196          estimate D2E/DX2                !
 ! D184  D(23,20,21,38)          1.4598         estimate D2E/DX2                !
 ! D185  D(8,20,23,22)         -37.2569         estimate D2E/DX2                !
 ! D186  D(8,20,23,40)        -147.6621         estimate D2E/DX2                !
 ! D187  D(8,20,23,74)          87.619          estimate D2E/DX2                !
 ! D188  D(21,20,23,22)        128.5312         estimate D2E/DX2                !
 ! D189  D(21,20,23,40)         18.126          estimate D2E/DX2                !
 ! D190  D(21,20,23,74)       -106.5929         estimate D2E/DX2                !
 ! D191  D(19,21,38,39)         11.7989         estimate D2E/DX2                !
 ! D192  D(19,21,38,42)        147.702          estimate D2E/DX2                !
 ! D193  D(20,21,38,39)       -151.8033         estimate D2E/DX2                !
 ! D194  D(20,21,38,42)        -15.9001         estimate D2E/DX2                !
 ! D195  D(9,22,23,20)          28.4392         estimate D2E/DX2                !
 ! D196  D(9,22,23,40)         145.9244         estimate D2E/DX2                !
 ! D197  D(9,22,23,74)         -93.8702         estimate D2E/DX2                !
 ! D198  D(24,22,23,20)       -125.7159         estimate D2E/DX2                !
 ! D199  D(24,22,23,40)         -8.2307         estimate D2E/DX2                !
 ! D200  D(24,22,23,74)        111.9747         estimate D2E/DX2                !
 ! D201  D(9,22,24,26)          -6.2893         estimate D2E/DX2                !
 ! D202  D(9,22,24,41)        -151.6137         estimate D2E/DX2                !
 ! D203  D(23,22,24,26)        148.9882         estimate D2E/DX2                !
 ! D204  D(23,22,24,41)          3.6637         estimate D2E/DX2                !
 ! D205  D(20,23,40,41)        123.3999         estimate D2E/DX2                !
 ! D206  D(20,23,40,42)        -25.1056         estimate D2E/DX2                !
 ! D207  D(22,23,40,41)         10.4491         estimate D2E/DX2                !
 ! D208  D(22,23,40,42)       -138.0565         estimate D2E/DX2                !
 ! D209  D(74,23,40,41)       -112.194          estimate D2E/DX2                !
 ! D210  D(74,23,40,42)         99.3005         estimate D2E/DX2                !
 ! D211  D(22,24,26,25)         -3.6432         estimate D2E/DX2                !
 ! D212  D(22,24,26,44)       -141.3042         estimate D2E/DX2                !
 ! D213  D(41,24,26,25)        138.6909         estimate D2E/DX2                !
 ! D214  D(41,24,26,44)          1.0299         estimate D2E/DX2                !
 ! D215  D(22,24,41,40)          2.9566         estimate D2E/DX2                !
 ! D216  D(22,24,41,43)        147.0171         estimate D2E/DX2                !
 ! D217  D(26,24,41,40)       -143.1477         estimate D2E/DX2                !
 ! D218  D(26,24,41,43)          0.9128         estimate D2E/DX2                !
 ! D219  D(11,25,26,24)         10.0402         estimate D2E/DX2                !
 ! D220  D(11,25,26,44)        152.4646         estimate D2E/DX2                !
 ! D221  D(28,25,26,24)       -138.3724         estimate D2E/DX2                !
 ! D222  D(28,25,26,44)          4.0521         estimate D2E/DX2                !
 ! D223  D(11,25,28,27)         -6.654          estimate D2E/DX2                !
 ! D224  D(11,25,28,45)       -152.1484         estimate D2E/DX2                !
 ! D225  D(26,25,28,27)        141.5102         estimate D2E/DX2                !
 ! D226  D(26,25,28,45)         -3.9842         estimate D2E/DX2                !
 ! D227  D(24,26,44,45)        138.1091         estimate D2E/DX2                !
 ! D228  D(24,26,44,46)         -1.9855         estimate D2E/DX2                !
 ! D229  D(25,26,44,45)         -2.6204         estimate D2E/DX2                !
 ! D230  D(25,26,44,46)       -142.715          estimate D2E/DX2                !
 ! D231  D(13,27,28,25)         16.098          estimate D2E/DX2                !
 ! D232  D(13,27,28,45)        157.6817         estimate D2E/DX2                !
 ! D233  D(30,27,28,25)       -137.3166         estimate D2E/DX2                !
 ! D234  D(30,27,28,45)          4.267          estimate D2E/DX2                !
 ! D235  D(13,27,30,29)         -6.0308         estimate D2E/DX2                !
 ! D236  D(13,27,30,47)       -160.139          estimate D2E/DX2                !
 ! D237  D(28,27,30,29)        146.254          estimate D2E/DX2                !
 ! D238  D(28,27,30,47)         -7.8541         estimate D2E/DX2                !
 ! D239  D(25,28,45,44)          2.3875         estimate D2E/DX2                !
 ! D240  D(25,28,45,48)        146.1038         estimate D2E/DX2                !
 ! D241  D(27,28,45,44)       -142.7275         estimate D2E/DX2                !
 ! D242  D(27,28,45,48)          0.9889         estimate D2E/DX2                !
 ! D243  D(14,29,30,27)          4.5997         estimate D2E/DX2                !
 ! D244  D(14,29,30,47)        157.9326         estimate D2E/DX2                !
 ! D245  D(31,29,30,27)       -149.8929         estimate D2E/DX2                !
 ! D246  D(31,29,30,47)          3.4401         estimate D2E/DX2                !
 ! D247  D(14,29,31,34)        -14.7826         estimate D2E/DX2                !
 ! D248  D(14,29,31,49)       -153.0986         estimate D2E/DX2                !
 ! D249  D(30,29,31,34)        139.7897         estimate D2E/DX2                !
 ! D250  D(30,29,31,49)          1.4736         estimate D2E/DX2                !
 ! D251  D(27,30,47,48)          6.5665         estimate D2E/DX2                !
 ! D252  D(27,30,47,50)        148.5374         estimate D2E/DX2                !
 ! D253  D(29,30,47,48)       -147.499          estimate D2E/DX2                !
 ! D254  D(29,30,47,50)         -5.528          estimate D2E/DX2                !
 ! D255  D(29,31,34,32)          6.8863         estimate D2E/DX2                !
 ! D256  D(29,31,34,51)       -137.0764         estimate D2E/DX2                !
 ! D257  D(49,31,34,32)        150.888          estimate D2E/DX2                !
 ! D258  D(49,31,34,51)          6.9253         estimate D2E/DX2                !
 ! D259  D(29,31,49,50)         -4.5198         estimate D2E/DX2                !
 ! D260  D(29,31,49,54)        138.0502         estimate D2E/DX2                !
 ! D261  D(34,31,49,50)       -147.4067         estimate D2E/DX2                !
 ! D262  D(34,31,49,54)         -4.8366         estimate D2E/DX2                !
 ! D263  D(16,32,33,18)         -0.0366         estimate D2E/DX2                !
 ! D264  D(16,32,33,36)       -151.9305         estimate D2E/DX2                !
 ! D265  D(34,32,33,18)        151.3618         estimate D2E/DX2                !
 ! D266  D(34,32,33,36)         -0.5321         estimate D2E/DX2                !
 ! D267  D(16,32,34,31)         17.3206         estimate D2E/DX2                !
 ! D268  D(16,32,34,51)        157.6363         estimate D2E/DX2                !
 ! D269  D(33,32,34,31)       -131.8279         estimate D2E/DX2                !
 ! D270  D(33,32,34,51)          8.4878         estimate D2E/DX2                !
 ! D271  D(18,33,36,35)         -8.0109         estimate D2E/DX2                !
 ! D272  D(18,33,36,52)       -155.945          estimate D2E/DX2                !
 ! D273  D(32,33,36,35)        141.0203         estimate D2E/DX2                !
 ! D274  D(32,33,36,52)         -6.9138         estimate D2E/DX2                !
 ! D275  D(31,34,51,52)        135.8783         estimate D2E/DX2                !
 ! D276  D(31,34,51,54)         -6.3301         estimate D2E/DX2                !
 ! D277  D(32,34,51,52)         -9.0549         estimate D2E/DX2                !
 ! D278  D(32,34,51,54)       -151.2633         estimate D2E/DX2                !
 ! D279  D(19,35,36,33)        -26.7103         estimate D2E/DX2                !
 ! D280  D(19,35,36,52)        123.5349         estimate D2E/DX2                !
 ! D281  D(37,35,36,33)       -145.4853         estimate D2E/DX2                !
 ! D282  D(37,35,36,52)          4.7599         estimate D2E/DX2                !
 ! D283  D(75,35,36,33)         93.7559         estimate D2E/DX2                !
 ! D284  D(75,35,36,52)       -115.999          estimate D2E/DX2                !
 ! D285  D(19,35,37,39)         25.3835         estimate D2E/DX2                !
 ! D286  D(19,35,37,53)       -122.4412         estimate D2E/DX2                !
 ! D287  D(36,35,37,39)        141.6125         estimate D2E/DX2                !
 ! D288  D(36,35,37,53)         -6.2122         estimate D2E/DX2                !
 ! D289  D(75,35,37,39)        -97.5751         estimate D2E/DX2                !
 ! D290  D(75,35,37,53)        114.6002         estimate D2E/DX2                !
 ! D291  D(33,36,52,51)          6.2332         estimate D2E/DX2                !
 ! D292  D(33,36,52,53)        149.5611         estimate D2E/DX2                !
 ! D293  D(35,36,52,51)       -145.1057         estimate D2E/DX2                !
 ! D294  D(35,36,52,53)         -1.7778         estimate D2E/DX2                !
 ! D295  D(35,37,39,38)         -9.9414         estimate D2E/DX2                !
 ! D296  D(35,37,39,57)       -149.5318         estimate D2E/DX2                !
 ! D297  D(53,37,39,38)        135.4627         estimate D2E/DX2                !
 ! D298  D(53,37,39,57)         -4.1276         estimate D2E/DX2                !
 ! D299  D(35,37,53,52)          5.5799         estimate D2E/DX2                !
 ! D300  D(35,37,53,55)        148.8506         estimate D2E/DX2                !
 ! D301  D(39,37,53,52)       -142.9806         estimate D2E/DX2                !
 ! D302  D(39,37,53,55)          0.2901         estimate D2E/DX2                !
 ! D303  D(21,38,39,37)         -9.7633         estimate D2E/DX2                !
 ! D304  D(21,38,39,57)        134.2001         estimate D2E/DX2                !
 ! D305  D(42,38,39,37)       -149.1192         estimate D2E/DX2                !
 ! D306  D(42,38,39,57)         -5.1557         estimate D2E/DX2                !
 ! D307  D(21,38,42,40)          9.091          estimate D2E/DX2                !
 ! D308  D(21,38,42,58)       -134.7317         estimate D2E/DX2                !
 ! D309  D(39,38,42,40)        148.9093         estimate D2E/DX2                !
 ! D310  D(39,38,42,58)          5.0866         estimate D2E/DX2                !
 ! D311  D(37,39,57,58)        147.8986         estimate D2E/DX2                !
 ! D312  D(37,39,57,60)          5.4481         estimate D2E/DX2                !
 ! D313  D(38,39,57,58)          3.1971         estimate D2E/DX2                !
 ! D314  D(38,39,57,60)       -139.2534         estimate D2E/DX2                !
 ! D315  D(23,40,41,24)         -8.6838         estimate D2E/DX2                !
 ! D316  D(23,40,41,43)       -152.2081         estimate D2E/DX2                !
 ! D317  D(42,40,41,24)        140.4201         estimate D2E/DX2                !
 ! D318  D(42,40,41,43)         -3.1042         estimate D2E/DX2                !
 ! D319  D(23,40,42,38)         12.4551         estimate D2E/DX2                !
 ! D320  D(23,40,42,58)        151.7609         estimate D2E/DX2                !
 ! D321  D(41,40,42,38)       -133.7709         estimate D2E/DX2                !
 ! D322  D(41,40,42,58)          5.5349         estimate D2E/DX2                !
 ! D323  D(24,41,43,46)         -1.9205         estimate D2E/DX2                !
 ! D324  D(24,41,43,59)       -138.6627         estimate D2E/DX2                !
 ! D325  D(40,41,43,46)        136.9122         estimate D2E/DX2                !
 ! D326  D(40,41,43,59)          0.1701         estimate D2E/DX2                !
 ! D327  D(38,42,58,57)         -3.0352         estimate D2E/DX2                !
 ! D328  D(38,42,58,59)        139.4225         estimate D2E/DX2                !
 ! D329  D(40,42,58,57)       -147.6584         estimate D2E/DX2                !
 ! D330  D(40,42,58,59)         -5.2007         estimate D2E/DX2                !
 ! D331  D(41,43,46,44)          0.9674         estimate D2E/DX2                !
 ! D332  D(41,43,46,61)       -141.7434         estimate D2E/DX2                !
 ! D333  D(59,43,46,44)        142.1902         estimate D2E/DX2                !
 ! D334  D(59,43,46,61)         -0.5207         estimate D2E/DX2                !
 ! D335  D(41,43,59,58)          0.2193         estimate D2E/DX2                !
 ! D336  D(41,43,59,65)        143.3934         estimate D2E/DX2                !
 ! D337  D(46,43,59,58)       -141.2757         estimate D2E/DX2                !
 ! D338  D(46,43,59,65)          1.8984         estimate D2E/DX2                !
 ! D339  D(26,44,45,28)          0.14           estimate D2E/DX2                !
 ! D340  D(26,44,45,48)       -142.5665         estimate D2E/DX2                !
 ! D341  D(46,44,45,28)        140.6554         estimate D2E/DX2                !
 ! D342  D(46,44,45,48)         -2.0512         estimate D2E/DX2                !
 ! D343  D(26,44,46,43)          0.9537         estimate D2E/DX2                !
 ! D344  D(26,44,46,61)        139.6623         estimate D2E/DX2                !
 ! D345  D(45,44,46,43)       -134.4909         estimate D2E/DX2                !
 ! D346  D(45,44,46,61)          4.2178         estimate D2E/DX2                !
 ! D347  D(28,45,48,47)         -2.2769         estimate D2E/DX2                !
 ! D348  D(28,45,48,62)       -140.8911         estimate D2E/DX2                !
 ! D349  D(44,45,48,47)        136.1629         estimate D2E/DX2                !
 ! D350  D(44,45,48,62)         -2.4513         estimate D2E/DX2                !
 ! D351  D(43,46,61,62)        140.6964         estimate D2E/DX2                !
 ! D352  D(43,46,61,65)         -1.061          estimate D2E/DX2                !
 ! D353  D(44,46,61,62)         -1.9369         estimate D2E/DX2                !
 ! D354  D(44,46,61,65)       -143.6943         estimate D2E/DX2                !
 ! D355  D(30,47,48,45)         -1.6822         estimate D2E/DX2                !
 ! D356  D(30,47,48,62)        140.7352         estimate D2E/DX2                !
 ! D357  D(50,47,48,45)       -148.3233         estimate D2E/DX2                !
 ! D358  D(50,47,48,62)         -5.906          estimate D2E/DX2                !
 ! D359  D(30,47,50,49)          2.5323         estimate D2E/DX2                !
 ! D360  D(30,47,50,63)       -140.7204         estimate D2E/DX2                !
 ! D361  D(48,47,50,49)        149.2547         estimate D2E/DX2                !
 ! D362  D(48,47,50,63)          6.002          estimate D2E/DX2                !
 ! D363  D(45,48,62,61)          4.7335         estimate D2E/DX2                !
 ! D364  D(45,48,62,63)        146.3536         estimate D2E/DX2                !
 ! D365  D(47,48,62,61)       -138.1063         estimate D2E/DX2                !
 ! D366  D(47,48,62,63)          3.5138         estimate D2E/DX2                !
 ! D367  D(31,49,50,47)          2.4419         estimate D2E/DX2                !
 ! D368  D(31,49,50,63)        141.0351         estimate D2E/DX2                !
 ! D369  D(54,49,50,47)       -136.0783         estimate D2E/DX2                !
 ! D370  D(54,49,50,63)          2.5149         estimate D2E/DX2                !
 ! D371  D(31,49,54,51)          1.0344         estimate D2E/DX2                !
 ! D372  D(31,49,54,56)       -140.6545         estimate D2E/DX2                !
 ! D373  D(50,49,54,51)        143.8612         estimate D2E/DX2                !
 ! D374  D(50,49,54,56)          2.1724         estimate D2E/DX2                !
 ! D375  D(47,50,63,62)         -3.8876         estimate D2E/DX2                !
 ! D376  D(47,50,63,64)        137.3916         estimate D2E/DX2                !
 ! D377  D(49,50,63,62)       -146.2064         estimate D2E/DX2                !
 ! D378  D(49,50,63,64)         -4.9272         estimate D2E/DX2                !
 ! D379  D(34,51,52,36)          1.684          estimate D2E/DX2                !
 ! D380  D(34,51,52,53)       -137.2044         estimate D2E/DX2                !
 ! D381  D(54,51,52,36)        139.1893         estimate D2E/DX2                !
 ! D382  D(54,51,52,53)          0.3009         estimate D2E/DX2                !
 ! D383  D(34,51,54,49)          3.3001         estimate D2E/DX2                !
 ! D384  D(34,51,54,56)        144.8851         estimate D2E/DX2                !
 ! D385  D(52,51,54,49)       -138.7175         estimate D2E/DX2                !
 ! D386  D(52,51,54,56)          2.8674         estimate D2E/DX2                !
 ! D387  D(36,52,53,37)         -2.293          estimate D2E/DX2                !
 ! D388  D(36,52,53,55)       -146.7599         estimate D2E/DX2                !
 ! D389  D(51,52,53,37)        140.7802         estimate D2E/DX2                !
 ! D390  D(51,52,53,55)         -3.6867         estimate D2E/DX2                !
 ! D391  D(37,53,55,56)       -135.575          estimate D2E/DX2                !
 ! D392  D(37,53,55,60)          2.3288         estimate D2E/DX2                !
 ! D393  D(52,53,55,56)          3.9396         estimate D2E/DX2                !
 ! D394  D(52,53,55,60)        141.8434         estimate D2E/DX2                !
 ! D395  D(49,54,56,55)        134.6684         estimate D2E/DX2                !
 ! D396  D(49,54,56,64)         -4.4671         estimate D2E/DX2                !
 ! D397  D(51,54,56,55)         -2.6172         estimate D2E/DX2                !
 ! D398  D(51,54,56,64)       -141.7527         estimate D2E/DX2                !
 ! D399  D(53,55,56,54)         -0.8185         estimate D2E/DX2                !
 ! D400  D(53,55,56,64)        142.8541         estimate D2E/DX2                !
 ! D401  D(60,55,56,54)       -142.7091         estimate D2E/DX2                !
 ! D402  D(60,55,56,64)          0.9634         estimate D2E/DX2                !
 ! D403  D(53,55,60,57)         -1.0031         estimate D2E/DX2                !
 ! D404  D(53,55,60,66)       -144.823          estimate D2E/DX2                !
 ! D405  D(56,55,60,57)        141.5297         estimate D2E/DX2                !
 ! D406  D(56,55,60,66)         -2.2903         estimate D2E/DX2                !
 ! D407  D(54,56,64,63)          2.0606         estimate D2E/DX2                !
 ! D408  D(54,56,64,66)        144.2327         estimate D2E/DX2                !
 ! D409  D(55,56,64,63)       -141.4376         estimate D2E/DX2                !
 ! D410  D(55,56,64,66)          0.7345         estimate D2E/DX2                !
 ! D411  D(39,57,58,42)         -0.0889         estimate D2E/DX2                !
 ! D412  D(39,57,58,59)       -142.814          estimate D2E/DX2                !
 ! D413  D(60,57,58,42)        142.4685         estimate D2E/DX2                !
 ! D414  D(60,57,58,59)         -0.2567         estimate D2E/DX2                !
 ! D415  D(39,57,60,55)         -2.7957         estimate D2E/DX2                !
 ! D416  D(39,57,60,66)        136.3741         estimate D2E/DX2                !
 ! D417  D(58,57,60,55)       -140.8057         estimate D2E/DX2                !
 ! D418  D(58,57,60,66)         -1.6358         estimate D2E/DX2                !
 ! D419  D(42,58,59,43)          2.2329         estimate D2E/DX2                !
 ! D420  D(42,58,59,65)       -136.3196         estimate D2E/DX2                !
 ! D421  D(57,58,59,43)        140.5101         estimate D2E/DX2                !
 ! D422  D(57,58,59,65)          1.9576         estimate D2E/DX2                !
 ! D423  D(43,59,65,61)         -2.5785         estimate D2E/DX2                !
 ! D424  D(43,59,65,66)       -144.4087         estimate D2E/DX2                !
 ! D425  D(58,59,65,61)        140.0571         estimate D2E/DX2                !
[...]
    13 C(13)  Bbb    -0.0020    -0.271    -0.097    -0.090  0.8139  0.4618 -0.3526
              Bcc     0.0042     0.561     0.200     0.187  0.4778 -0.1865  0.8584
 
              Baa    -0.0038    -0.513    -0.183    -0.171  0.8656 -0.4966 -0.0639
    14 C(13)  Bbb    -0.0029    -0.395    -0.141    -0.132 -0.2502 -0.5394  0.8040
              Bcc     0.0068     0.908     0.324     0.303  0.4337  0.6800  0.5912
 
              Baa    -0.0065    -0.875    -0.312    -0.292  0.3912 -0.3205  0.8627
    15 C(13)  Bbb    -0.0049    -0.661    -0.236    -0.220 -0.5813  0.6407  0.5016
              Bcc     0.0114     1.536     0.548     0.512  0.7135  0.6977 -0.0643
 
              Baa    -0.0010    -0.130    -0.046    -0.043  0.0387  0.8228 -0.5670
    16 C(13)  Bbb    -0.0002    -0.025    -0.009    -0.008  0.9233 -0.2464 -0.2946
              Bcc     0.0012     0.155     0.055     0.052  0.3821  0.5122  0.7692
 
              Baa    -0.0621    -8.331    -2.973    -2.779 -0.4454 -0.1314  0.8856
    17 C(13)  Bbb     0.0280     3.753     1.339     1.252  0.0406  0.9852  0.1666
              Bcc     0.0341     4.579     1.634     1.527  0.8944 -0.1102  0.4335
 
              Baa    -0.0011    -0.145    -0.052    -0.048 -0.1492 -0.0031  0.9888
    18 C(13)  Bbb    -0.0005    -0.068    -0.024    -0.023  0.7942 -0.5961  0.1180
              Bcc     0.0016     0.212     0.076     0.071  0.5891  0.8029  0.0914
 
              Baa    -0.0545    -7.315    -2.610    -2.440  0.2671  0.9519  0.1504
    19 C(13)  Bbb    -0.0519    -6.964    -2.485    -2.323  0.9187 -0.2987  0.2586
              Bcc     0.1064    14.278     5.095     4.763 -0.2911 -0.0691  0.9542
 
              Baa    -0.0803   -10.776    -3.845    -3.594 -0.3448  0.8011 -0.4892
    20 C(13)  Bbb    -0.0764   -10.249    -3.657    -3.419  0.8904  0.4442  0.0998
              Bcc     0.1567    21.024     7.502     7.013 -0.2972  0.4011  0.8665
 
              Baa    -0.0794   -10.649    -3.800    -3.552 -0.1973  0.1860  0.9625
    21 C(13)  Bbb     0.0329     4.408     1.573     1.470 -0.0701  0.9766 -0.2031
              Bcc     0.0465     6.241     2.227     2.082  0.9778  0.1076  0.1797
 
              Baa    -0.0066    -0.887    -0.317    -0.296  0.1066  0.7012  0.7050
    22 C(13)  Bbb    -0.0043    -0.579    -0.207    -0.193  0.8698  0.2778 -0.4078
              Bcc     0.0109     1.467     0.523     0.489 -0.4818  0.6566 -0.5803
 
              Baa    -0.0078    -1.042    -0.372    -0.348  0.0790  0.4595  0.8847
    23 C(13)  Bbb     0.0013     0.174     0.062     0.058  0.6485  0.6503 -0.3957
              Bcc     0.0065     0.868     0.310     0.289  0.7571 -0.6049  0.2466
 
              Baa    -0.0191    -2.565    -0.915    -0.856  0.9905  0.1029  0.0914
    24 C(13)  Bbb    -0.0167    -2.246    -0.802    -0.749 -0.0993  0.0740  0.9923
              Bcc     0.0359     4.811     1.717     1.605 -0.0953  0.9919 -0.0836
 
              Baa    -0.0026    -0.344    -0.123    -0.115 -0.4621  0.7012 -0.5429
    25 C(13)  Bbb     0.0006     0.076     0.027     0.025  0.7897  0.6039  0.1079
              Bcc     0.0020     0.269     0.096     0.090 -0.4035  0.3789  0.8328
 
              Baa    -0.0180    -2.414    -0.861    -0.805 -0.0506  0.9065 -0.4191
    26 C(13)  Bbb     0.0074     0.993     0.354     0.331  0.8815  0.2377  0.4079
              Bcc     0.0106     1.421     0.507     0.474 -0.4694  0.3488  0.8112
 
              Baa    -0.0068    -0.911    -0.325    -0.304  0.2354  0.0136  0.9718
    27 C(13)  Bbb     0.0028     0.370     0.132     0.123  0.9409  0.2473 -0.2314
              Bcc     0.0040     0.541     0.193     0.181 -0.2435  0.9688  0.0454
 
              Baa    -0.0084    -1.125    -0.401    -0.375  0.9640 -0.0667 -0.2575
    28 C(13)  Bbb    -0.0077    -1.038    -0.371    -0.346  0.1423  0.9472  0.2873
              Bcc     0.0161     2.163     0.772     0.722  0.2248 -0.3136  0.9226
 
              Baa    -0.0141    -1.898    -0.677    -0.633  0.1938  0.5460  0.8150
    29 C(13)  Bbb     0.0063     0.849     0.303     0.283  0.8652  0.2965 -0.4044
              Bcc     0.0078     1.048     0.374     0.350 -0.4625  0.7835 -0.4149
 
              Baa    -0.0184    -2.464    -0.879    -0.822  0.9460  0.1596 -0.2820
    30 C(13)  Bbb    -0.0173    -2.328    -0.831    -0.776 -0.2373  0.9339 -0.2674
              Bcc     0.0357     4.792     1.710     1.598  0.2207  0.3199  0.9214
 
              Baa    -0.0233    -3.127    -1.116    -1.043  0.9807 -0.1891  0.0490
    31 C(13)  Bbb    -0.0229    -3.070    -1.096    -1.024 -0.1652 -0.6690  0.7247
              Bcc     0.0462     6.198     2.211     2.067  0.1043  0.7188  0.6874
 
              Baa    -0.0031    -0.412    -0.147    -0.137  0.8704 -0.4922 -0.0163
    32 C(13)  Bbb    -0.0024    -0.324    -0.116    -0.108  0.0150 -0.0066  0.9999
              Bcc     0.0055     0.736     0.263     0.245  0.4922  0.8705 -0.0016
 
              Baa    -0.0016    -0.215    -0.077    -0.072  0.6960 -0.6314 -0.3420
    33 C(13)  Bbb    -0.0009    -0.122    -0.044    -0.041  0.0761 -0.4087  0.9095
              Bcc     0.0025     0.337     0.120     0.112  0.7140  0.6590  0.2364
 
              Baa    -0.0015    -0.206    -0.074    -0.069 -0.3690  0.8567  0.3605
    34 C(13)  Bbb    -0.0003    -0.039    -0.014    -0.013  0.8805  0.1980  0.4307
              Bcc     0.0018     0.246     0.088     0.082 -0.2976 -0.4764  0.8273
 
              Baa    -0.0069    -0.921    -0.329    -0.307  0.2502  0.0549  0.9666
    35 C(13)  Bbb     0.0002     0.027     0.010     0.009  0.7367 -0.6586 -0.1533
              Bcc     0.0067     0.894     0.319     0.298  0.6282  0.7504 -0.2053
 
              Baa    -0.0082    -1.094    -0.390    -0.365  0.9232 -0.1995  0.3284
    36 C(13)  Bbb    -0.0067    -0.902    -0.322    -0.301 -0.2710  0.2678  0.9246
              Bcc     0.0149     1.996     0.712     0.666  0.2724  0.9426 -0.1932
 
              Baa    -0.1113   -14.936    -5.330    -4.982  0.6478  0.7584  0.0726
    37 C(13)  Bbb    -0.1063   -14.264    -5.090    -4.758  0.7046 -0.5601 -0.4358
              Bcc     0.2176    29.200    10.419     9.740  0.2898 -0.3334  0.8971
 
              Baa    -0.2709   -36.359   -12.974   -12.128  0.9808  0.1948 -0.0121
    38 C(13)  Bbb    -0.2638   -35.401   -12.632   -11.808 -0.1917  0.9498 -0.2474
              Bcc     0.5348    71.759    25.606    23.936 -0.0367  0.2450  0.9688
 
              Baa    -0.0945   -12.684    -4.526    -4.231  0.2936  0.0453  0.9548
    39 C(13)  Bbb     0.0351     4.713     1.682     1.572  0.8118  0.5157 -0.2741
              Bcc     0.0594     7.970     2.844     2.659 -0.5048  0.8556  0.1146
 
              Baa    -0.1150   -15.435    -5.508    -5.149  0.7609 -0.4594  0.4581
    40 C(13)  Bbb    -0.1092   -14.655    -5.229    -4.889 -0.6367 -0.3928  0.6636
              Bcc     0.2242    30.091    10.737    10.037  0.1249  0.7966  0.5914
 
              Baa    -0.0482    -6.472    -2.309    -2.159  0.2269  0.9330  0.2793
    41 C(13)  Bbb     0.0187     2.509     0.895     0.837  0.8366 -0.3335  0.4346
              Bcc     0.0295     3.964     1.414     1.322 -0.4987 -0.1351  0.8562
 
              Baa    -0.0969   -13.001    -4.639    -4.337  0.2261  0.5075  0.8314
    42 C(13)  Bbb     0.0368     4.932     1.760     1.645  0.9435 -0.3264 -0.0574
              Bcc     0.0601     8.069     2.879     2.692  0.2422  0.7974 -0.5527
 
              Baa    -0.0547    -7.343    -2.620    -2.449  0.8416 -0.5362  0.0646
    43 C(13)  Bbb    -0.0517    -6.934    -2.474    -2.313 -0.0564  0.0318  0.9979
              Bcc     0.1064    14.278     5.095     4.762  0.5371  0.8435  0.0035
 
              Baa    -0.0295    -3.962    -1.414    -1.321  0.9690 -0.2077  0.1334
    44 C(13)  Bbb    -0.0277    -3.723    -1.328    -1.242  0.0435  0.6755  0.7361
              Bcc     0.0573     7.684     2.742     2.563  0.2430  0.7075 -0.6636
 
              Baa    -0.0155    -2.076    -0.741    -0.692 -0.1421 -0.4208  0.8960
    45 C(13)  Bbb     0.0068     0.909     0.324     0.303  0.9870 -0.1285  0.0962
              Bcc     0.0087     1.167     0.416     0.389  0.0746  0.8980  0.4336
 
              Baa    -0.0260    -3.492    -1.246    -1.165  0.5169  0.7660 -0.3822
    46 C(13)  Bbb     0.0108     1.443     0.515     0.481  0.7819 -0.6042 -0.1536
              Bcc     0.0153     2.048     0.731     0.683  0.3486  0.2195  0.9112
 
              Baa    -0.0184    -2.470    -0.881    -0.824 -0.0268  0.2512  0.9676
    47 C(13)  Bbb     0.0086     1.159     0.414     0.387 -0.4240  0.8737 -0.2386
              Bcc     0.0098     1.311     0.468     0.437  0.9053  0.4166 -0.0831
 
              Baa    -0.0122    -1.638    -0.584    -0.546  0.8446 -0.4741  0.2488
    48 C(13)  Bbb    -0.0116    -1.558    -0.556    -0.520  0.4318  0.8779  0.2072
              Bcc     0.0238     3.196     1.140     1.066 -0.3166 -0.0676  0.9461
 
              Baa    -0.0138    -1.850    -0.660    -0.617 -0.2651  0.7794  0.5676
    49 C(13)  Bbb     0.0064     0.855     0.305     0.285  0.6550  0.5776 -0.4872
              Bcc     0.0074     0.995     0.355     0.332  0.7076 -0.2426  0.6636
 
              Baa    -0.0078    -1.046    -0.373    -0.349  0.8781 -0.1295  0.4606
    50 C(13)  Bbb    -0.0076    -1.015    -0.362    -0.339  0.2913  0.9085 -0.2998
              Bcc     0.0154     2.061     0.735     0.688 -0.3796  0.3974  0.8354
 
              Baa    -0.0108    -1.455    -0.519    -0.485 -0.3259  0.9446  0.0383
    51 C(13)  Bbb     0.0038     0.516     0.184     0.172  0.8664  0.2822  0.4121
              Bcc     0.0070     0.939     0.335     0.313 -0.3784 -0.1674  0.9104
 
              Baa    -0.0165    -2.211    -0.789    -0.738  0.9510  0.3027  0.0622
    52 C(13)  Bbb    -0.0142    -1.901    -0.678    -0.634 -0.1757  0.3641  0.9146
              Bcc     0.0306     4.112     1.467     1.372 -0.2542  0.8808 -0.3994
 
              Baa    -0.0486    -6.523    -2.328    -2.176  0.4686 -0.5624  0.6813
    53 C(13)  Bbb     0.0189     2.539     0.906     0.847  0.6607  0.7350  0.1524
              Bcc     0.0297     3.983     1.421     1.329 -0.5865  0.3787  0.7160
 
              Baa    -0.0320    -4.298    -1.534    -1.434  0.8072  0.5664 -0.1663
    54 C(13)  Bbb    -0.0305    -4.091    -1.460    -1.365  0.2829 -0.1239  0.9511
              Bcc     0.0625     8.389     2.993     2.798 -0.5181  0.8148  0.2603
 
              Baa    -0.0534    -7.162    -2.555    -2.389  0.6400  0.6976 -0.3222
    55 C(13)  Bbb    -0.0502    -6.732    -2.402    -2.246 -0.0765  0.4751  0.8766
              Bcc     0.1035    13.894     4.958     4.634  0.7646 -0.5364  0.3574
 
              Baa    -0.0263    -3.526    -1.258    -1.176  0.7411 -0.6714  0.0022
    56 C(13)  Bbb     0.0110     1.470     0.525     0.491  0.5608  0.6172 -0.5519
              Bcc     0.0153     2.055     0.733     0.686  0.3692  0.4102  0.8339
 
              Baa    -0.0279    -3.740    -1.334    -1.247 -0.5212 -0.5008  0.6911
    57 C(13)  Bbb    -0.0260    -3.483    -1.243    -1.162 -0.3100  0.8655  0.3935
              Bcc     0.0538     7.223     2.577     2.409  0.7952  0.0091  0.6063
 
              Baa    -0.0253    -3.400    -1.213    -1.134  0.6847 -0.5335 -0.4965
    58 C(13)  Bbb    -0.0233    -3.129    -1.117    -1.044  0.0092 -0.6748  0.7379
              Bcc     0.0487     6.529     2.330     2.178  0.7288  0.5098  0.4571
 
              Baa    -0.0260    -3.490    -1.245    -1.164  0.6578  0.6960  0.2879
    59 C(13)  Bbb     0.0118     1.586     0.566     0.529 -0.5830  0.2285  0.7797
              Bcc     0.0142     1.904     0.679     0.635 -0.4769  0.6807 -0.5561
 
              Baa    -0.0285    -3.824    -1.364    -1.275  0.8235 -0.2211  0.5225
    60 C(13)  Bbb     0.0130     1.745     0.623     0.582 -0.5594 -0.1629  0.8127
              Bcc     0.0155     2.079     0.742     0.693  0.0946  0.9615  0.2579
 
              Baa    -0.0054    -0.728    -0.260    -0.243 -0.6126  0.6851 -0.3941
    61 C(13)  Bbb    -0.0052    -0.691    -0.247    -0.231  0.2631  0.6470  0.7156
              Bcc     0.0106     1.419     0.506     0.473  0.7453  0.3347 -0.5766
 
              Baa    -0.0124    -1.667    -0.595    -0.556 -0.6486 -0.1962  0.7354
    62 C(13)  Bbb     0.0060     0.799     0.285     0.266 -0.2966  0.9550 -0.0069
              Bcc     0.0065     0.868     0.310     0.290  0.7009  0.2226  0.6776
 
              Baa    -0.0112    -1.505    -0.537    -0.502  0.7392 -0.3208 -0.5922
    63 C(13)  Bbb     0.0055     0.739     0.264     0.247  0.0353  0.8965 -0.4416
              Bcc     0.0057     0.766     0.273     0.255  0.6726  0.3055  0.6740
 
              Baa    -0.0037    -0.497    -0.177    -0.166  0.3058  0.9417 -0.1403
    64 C(13)  Bbb    -0.0036    -0.484    -0.173    -0.162  0.4497 -0.0130  0.8931
              Bcc     0.0073     0.981     0.350     0.327  0.8392 -0.3362 -0.4274
 
              Baa    -0.0054    -0.720    -0.257    -0.240  0.8484  0.5277  0.0409
    65 C(13)  Bbb     0.0025     0.333     0.119     0.111 -0.1839  0.2213  0.9577
              Bcc     0.0029     0.387     0.138     0.129 -0.4963  0.8201 -0.2848
 
              Baa    -0.0050    -0.667    -0.238    -0.222  0.9597 -0.1503  0.2373
    66 C(13)  Bbb     0.0024     0.318     0.113     0.106 -0.2169  0.1401  0.9661
              Bcc     0.0026     0.349     0.124     0.116  0.1784  0.9787 -0.1018
 
              Baa    -0.0028    -0.145    -0.052    -0.048  0.7205  0.3794 -0.5805
    67 Cl(35) Bbb    -0.0015    -0.076    -0.027    -0.025  0.3021  0.5817  0.7552
              Bcc     0.0042     0.221     0.079     0.074 -0.6242  0.7194 -0.3045
 
              Baa    -0.0073    -0.383    -0.137    -0.128  0.9759 -0.0888  0.1996
    68 Cl(35) Bbb     0.0034     0.178     0.063     0.059  0.0576  0.9859  0.1573
              Bcc     0.0039     0.205     0.073     0.068 -0.2107 -0.1420  0.9672
 
              Baa    -0.0043    -0.227    -0.081    -0.076  0.8982  0.0797  0.4322
    69 Cl(35) Bbb     0.0012     0.064     0.023     0.021 -0.4388  0.2178  0.8718
              Bcc     0.0031     0.162     0.058     0.054  0.0247  0.9727 -0.2306
 
              Baa    -0.0124    -0.650    -0.232    -0.217  0.7789 -0.5815  0.2350
    70 Cl(35) Bbb    -0.0106    -0.554    -0.198    -0.185 -0.4357 -0.2321  0.8697
              Bcc     0.0230     1.205     0.430     0.402  0.4511  0.7798  0.4341
 
              Baa    -0.0587    -3.073    -1.096    -1.025  0.1484 -0.0362  0.9883
    71 Cl(35) Bbb    -0.0489    -2.560    -0.914    -0.854 -0.2665  0.9609  0.0752
              Bcc     0.1076     5.633     2.010     1.879  0.9524  0.2745 -0.1329
 
              Baa    -0.0295    -1.543    -0.551    -0.515  0.4831  0.8560 -0.1838
    72 Cl(35) Bbb     0.0107     0.561     0.200     0.187  0.8482 -0.4055  0.3408
              Bcc     0.0188     0.983     0.351     0.328 -0.2172  0.3206  0.9220
 
              Baa    -0.0273    -1.427    -0.509    -0.476 -0.5436  0.8366 -0.0683
    73 Cl(35) Bbb     0.0094     0.490     0.175     0.163  0.7752  0.4691 -0.4232
              Bcc     0.0179     0.937     0.334     0.313  0.3220  0.2830  0.9035
 
              Baa    -0.1426    -7.465    -2.664    -2.490  0.5192 -0.2346  0.8218
    74 Cl(35) Bbb    -0.1228    -6.427    -2.293    -2.144  0.7384  0.6073 -0.2931
              Bcc     0.2654    13.892     4.957     4.634 -0.4303  0.7591  0.4885
 
              Baa    -0.0958    -5.013    -1.789    -1.672  0.2824  0.7584  0.5874
    75 Cl(35) Bbb    -0.0809    -4.235    -1.511    -1.413  0.9128 -0.4008  0.0787
              Bcc     0.1767     9.249     3.300     3.085 -0.2951 -0.5139  0.8055
 

 ---------------------------------------------------------------------------------

 No NMR shielding tensors so no spin-rotation constants.
 Leave Link  601 at Sat Jul 16 18:56:10 2022, MaxMem=  1342177280 cpu:             129.8 elap:               3.0
 (Enter /home/mkliu/g16/l9999.exe)
 1\1\GINC-NODE03\FOpt\UB3LYP\6-311G(d,p)\C66Cl9(2)\MKLIU\16-Jul-2022\0\
 \#P opt b3lyp/6-311G(d, p) empiricaldispersion=GD3\\force\\0,2\C,-1.35
 42176818,1.932309989,-4.058490474\C,0.2147968383,2.2145744132,-3.95568
 83538\C,0.9795386668,0.8591979843,-4.2767759292\C,-1.4630948248,0.3427
 013402,-4.1812011505\C,-0.0690969149,-0.1932037943,-4.1718384082\C,-2.
 1212929244,-0.120421744,-2.92010957\C,-2.1948039372,2.2818696227,-2.70
 36448817\C,-2.5972015337,0.9204648324,-2.1527358603\C,-1.4633364713,2.
 9766342017,-1.5482686992\C,0.7102546089,2.5389982611,-2.5871900876\C,-
 0.0360048353,3.1821959842,-1.5797815674\C,1.9458852086,0.681798291,-3.
 1134032711\C,1.877431036,1.8391843415,-2.2771035462\C,2.2974851886,-0.
 5234091033,-2.5806262423\C,0.209440074,-1.3916041888,-3.674218604\C,1.
 5994221694,-1.7592109592,-3.1661065411\C,-1.9212147286,-1.4003824388,-
 2.3831872781\C,-0.8709045927,-2.2826271785,-3.0743954199\C,-2.39812239
 88,-1.6731698344,-1.0991606508\C,-3.0278687313,0.7018369365,-0.8433952
 362\C,-2.9890180034,-0.6195884876,-0.3134958929\C,-2.0812720113,2.9346
 699274,-0.3135737757\C,-3.187318297,1.9252311603,0.0429484566\C,-1.380
 6682003,3.2684803204,0.8910105531\C,0.6650658812,3.4357004192,-0.37803
 22086\C,-0.0261617309,3.5796475551,0.8677201951\C,2.4618616146,1.86725
 48448,-0.9850726417\C,1.9414532548,2.8339490825,-0.1034878543\C,2.9296
 986812,-0.5707551235,-1.2566256832\C,3.0814437783,0.658960259,-0.48015
 73454\C,2.9518989782,-1.7931392716,-0.5578210303\C,1.2738428762,-2.758
 7731833,-2.0971641909\C,-0.1036633805,-3.0587535385,-2.0495301389\C,2.
 0468385567,-2.8764670959,-0.964025461\C,-2.0692694952,-3.0247709381,-0
 .4580883794\C,-0.6874773294,-3.4913275461,-0.8847866419\C,-1.910201648
 1,-2.9346295904,1.0462921031\C,-3.1302601117,-0.800779293,1.1173856086
 \C,-2.5017826807,-1.9238593285,1.7719842571\C,-2.8875737101,1.61838262
 18,1.4886476462\C,-1.9126489272,2.5138088885,2.0058467408\C,-2.9921226
 954,0.3403928953,1.9931404158\C,-1.0890073969,2.1362858982,3.072970804
 3\C,0.8421232285,3.13694382,1.9387783741\C,2.0678406445,2.6793153287,1
 .3213735413\C,0.3243390444,2.4484665363,3.0305971439\C,3.2816117017,0.
 5767176458,0.9236111306\C,2.744312663,1.5826658191,1.8243446931\C,3.04
 26007243,-1.8422742998,0.8695476011\C,3.2343554096,-0.677701975,1.6061
 686399\C,1.4951289808,-3.460944274,0.2134494636\C,0.1196204158,-3.7391
 334561,0.2510169975\C,-0.6408945484,-3.4452145257,1.448476411\C,2.1352
 190869,-2.8638827096,1.364759586\C,0.0021669619,-2.9565400264,2.589390
 8476\C,1.4207130825,-2.6486891232,2.5361043928\C,-1.8863579511,-1.4554
 030453,2.999230934\C,-2.1885983874,-0.0514572687,3.1352049074\C,-1.241
 0590287,0.8257710917,3.658470229\C,-0.6434389367,-1.9489011065,3.39165
 00298\C,1.0497923096,1.3238413571,3.5907250703\C,2.2559055261,0.915031
 7572,3.0141096618\C,2.5566637478,-0.4908083162,2.8771698268\C,1.644832
 4233,-1.4467526798,3.3212855799\C,0.0810055247,0.3294086343,4.00618940
 01\C,0.3733714086,-1.0264924144,3.8730096736\Cl,-2.0185530242,2.739929
 4667,-5.5026059876\Cl,0.793984665,3.6301003431,-4.9448449617\Cl,1.8225
 228079,0.7870262777,-5.8782938019\Cl,2.6290806926,-2.5497364276,-4.492
 5959937\Cl,-2.3994856102,-0.2731668481,-5.6219249761\Cl,-1.6320338393,
 -3.4239956665,-4.3026940948\Cl,-3.6782849685,3.2855453006,-3.073485819
 5\Cl,-4.9232309382,2.5883900344,-0.0246934364\Cl,-3.4051388808,-4.2327
 960994,-0.9064697521\\Version=ES64L-G16RevA.03\State=2-A\HF=-6657.4418
 585\S2=0.783009\S2-1=0.\S2A=0.751043\RMSD=9.200e-09\RMSF=1.530e-05\Dip
 ole=1.0883378,0.3239378,2.1672521\Quadrupole=-1.14569,0.3283749,0.8173
 151,1.7266493,2.3771638,-2.3550892\PG=C01 [X(C66Cl9)]\\@


 I WANT IT ALL - RICH, THIN, AND CHOCOLATE.
 Job cpu time:       5 days 18 hours 36 minutes 35.9 seconds.
 Elapsed time:       0 days  2 hours 53 minutes 33.2 seconds.
 File lengths (MBytes):  RWF=   2194 Int=      0 D2E=      0 Chk=    198 Scr=      1
 Normal termination of Gaussian 16 at Sat Jul 16 18:56:13 2022.
