 Entering Gaussian System, Link 0=g16
 Input=drgjrdmc7zim8_addon_9.gjf
 Output=drgjrdmc7zim8_addon_9.log
 Initial command:
 /home/mkliu/g16/l1.exe "/data/scratch/Gau-143242.inp" -scrdir="/data/scratch/"
 Entering Link 1 = /home/mkliu/g16/l1.exe PID=    143243.
  
 Copyright (c) 1988,1990,1992,1993,1995,1998,2003,2009,2016,
            Gaussian, Inc.  All Rights Reserved.
  
 This is part of the Gaussian(R) 16 program.  It is based on
 the Gaussian(R) 09 system (copyright 2009, Gaussian, Inc.),
 the Gaussian(R) 03 system (copyright 2003, Gaussian, Inc.),
 the Gaussian(R) 98 system (copyright 1998, Gaussian, Inc.),
 the Gaussian(R) 94 system (copyright 1995, Gaussian, Inc.),
 the Gaussian 92(TM) system (copyright 1992, Gaussian, Inc.),
 the Gaussian 90(TM) system (copyright 1990, Gaussian, Inc.),
 the Gaussian 88(TM) system (copyright 1988, Gaussian, Inc.),
 the Gaussian 86(TM) system (copyright 1986, Carnegie Mellon
 University), and the Gaussian 82(TM) system (copyright 1983,
 Carnegie Mellon University). Gaussian is a federally registered
 trademark of Gaussian, Inc.
  
 This software contains proprietary and confidential information,
 including trade secrets, belonging to Gaussian, Inc.
  
 This software is provided under written license and may be
 used, copied, transmitted, or stored only in accord with that
 written license.
  
 The following legend is applicable only to US Government
 contracts under FAR:
  
                    RESTRICTED RIGHTS LEGEND
  
 Use, reproduction and disclosure by the US Government is
 subject to restrictions as set forth in subparagraphs (a)
 and (c) of the Commercial Computer Software - Restricted
 Rights clause in FAR 52.227-19.
  
 Gaussian, Inc.
 340 Quinnipiac St., Bldg. 40, Wallingford CT 06492
  
  
 ---------------------------------------------------------------
 Warning -- This program may not be used in any manner that
 competes with the business of Gaussian, Inc. or will provide
 assistance to any competitor of Gaussian, Inc.  The licensee
 of this program is prohibited from giving any competitor of
 Gaussian, Inc. access to this program.  By using this program,
 the user acknowledges that Gaussian, Inc. is engaged in the
 business of creating and licensing software in the field of
 computational chemistry and represents and warrants to the
 licensee that it is not a competitor of Gaussian, Inc. and that
 it will not use this program in any manner prohibited above.
 ---------------------------------------------------------------
  

 Cite this work as:
 Gaussian 16, Revision A.03,
 M. J. Frisch, G. W. Trucks, H. B. Schlegel, G. E. Scuseria, 
 M. A. Robb, J. R. Cheeseman, G. Scalmani, V. Barone, 
 G. A. Petersson, H. Nakatsuji, X. Li, M. Caricato, A. V. Marenich, 
 J. Bloino, B. G. Janesko, R. Gomperts, B. Mennucci, H. P. Hratchian, 
 J. V. Ortiz, A. F. Izmaylov, J. L. Sonnenberg, D. Williams-Young, 
 F. Ding, F. Lipparini, F. Egidi, J. Goings, B. Peng, A. Petrone, 
 T. Henderson, D. Ranasinghe, V. G. Zakrzewski, J. Gao, N. Rega, 
 G. Zheng, W. Liang, M. Hada, M. Ehara, K. Toyota, R. Fukuda, 
 J. Hasegawa, M. Ishida, T. Nakajima, Y. Honda, O. Kitao, H. Nakai, 
 T. Vreven, K. Throssell, J. A. Montgomery, Jr., J. E. Peralta, 
 F. Ogliaro, M. J. Bearpark, J. J. Heyd, E. N. Brothers, K. N. Kudin, 
 V. N. Staroverov, T. A. Keith, R. Kobayashi, J. Normand, 
 K. Raghavachari, A. P. Rendell, J. C. Burant, S. S. Iyengar, 
 J. Tomasi, M. Cossi, J. M. Millam, M. Klene, C. Adamo, R. Cammi, 
 J. W. Ochterski, R. L. Martin, K. Morokuma, O. Farkas, 
 J. B. Foresman, and D. J. Fox, Gaussian, Inc., Wallingford CT, 2016.
 
 ******************************************
 Gaussian 16:  ES64L-G16RevA.03 25-Dec-2016
                14-Jul-2022 
 ******************************************
 %mem=10GB
 %chk=drgjrdmc7zim8_addon_9.chk
 %nprocshared=48
 Will use up to   48 processors via shared memory.
 -------------------------------------------------
 #P opt b3lyp/6-311G(d, p) empiricaldispersion=GD3
 -------------------------------------------------
 1/18=20,19=15,26=3,38=1/1,3;
 2/9=110,12=2,17=6,18=5,40=1/2;
 3/5=4,6=6,7=101,11=2,25=1,30=1,71=1,74=-5,124=31/1,2,3;
 4//1;
 5/5=2,38=5/2;
 6/7=2,8=2,9=2,10=2,28=1/1;
 7//1,2,3,16;
 1/18=20,19=15,26=3/3(2);
 2/9=110/2;
 99//99;
 2/9=110/2;
 3/5=4,6=6,7=101,11=2,25=1,30=1,71=1,74=-5,124=31/1,2,3;
 4/5=5,16=3,69=1/1;
 5/5=2,38=5/2;
 7//1,2,3,16;
 1/18=20,19=15,26=3/3(-5);
 2/9=110/2;
 6/7=2,8=2,9=2,10=2,19=2,28=1/1;
 99/9=1/99;
 Leave Link    1 at Thu Jul 14 12:41:34 2022, MaxMem=  1342177280 cpu:               2.1 elap:               0.1
 (Enter /home/mkliu/g16/l101.exe)
 -----
 force
 -----
 Symbolic Z-matrix:
 Charge =  0 Multiplicity = 2
 C                    -1.35272   1.8757   -3.93359 
 C                     0.17262   2.27533  -4.07308 
 C                     0.9294    0.90661  -4.25764 
 C                    -1.29002   0.39546  -3.82828 
 C                    -0.09128  -0.16416  -4.12896 
 C                    -2.15201  -0.13776  -2.86796 
 C                    -2.1594    2.25156  -2.66772 
 C                    -2.69773   0.9219   -2.14063 
 C                    -1.35455   2.8394   -1.53555 
 C                     0.84344   2.88809  -2.79657 
 C                    -0.00081   3.17928  -1.57871 
 C                     1.73082   0.69321  -3.00731 
 C                     1.76828   1.83314  -2.24396 
 C                     2.12774  -0.53605  -2.48929 
 C                     0.19174  -1.41183  -3.59228 
 C                     1.58441  -1.80201  -3.15302 
 C                    -1.94137  -1.42819  -2.35048 
 C                    -0.76754  -2.07461  -2.81279 
 C                    -2.49951  -1.74098  -1.0663 
 C                    -3.11016   0.68205  -0.82923 
 C                    -3.10264  -0.6765   -0.29994 
 C                    -2.00529   2.79941  -0.30541 
 C                    -2.96072   1.77161   0.05719 
 C                    -1.35901   3.21577   0.88391 
 C                     0.68581   3.41652  -0.39218 
 C                    -0.0044    3.48899   0.83729 
 C                     2.34863   1.81444  -0.99101 
 C                     2.12536   3.02712  -0.11774 
 C                     2.7591   -0.56608  -1.2404 
 C                     2.8848    0.62161  -0.49902 
 C                     3.11126  -1.91717  -0.62681 
 C                     1.28922  -2.81706  -2.09057 
 C                    -0.11586  -3.04421  -1.99895 
 C                     2.03534  -2.91639  -0.9616 
 C                    -1.95167  -2.85094  -0.38799 
 C                    -0.73081  -3.46179  -0.84715 
 C                    -1.95843  -2.92823   1.03753 
 C                    -3.16697  -0.81521   1.09457 
 C                    -2.5705   -1.9357    1.76996 
 C                    -2.91734   1.58462   1.45037 
 C                    -1.93055   2.50227   1.98595 
 C                    -3.05437   0.31058   1.98166 
 C                    -1.12862   2.09086   3.02453 
 C                     0.83495   3.05354   1.90886 
 C                     2.07275   2.6473    1.3301 
 C                     0.28282   2.38344   2.98124 
 C                     3.46001   0.59761   0.90997 
 C                     2.70943   1.5479    1.80184 
 C                     3.00328  -1.86794   0.87209 
 C                     3.18102  -0.72054   1.57381 
 C                     1.44051  -3.45444   0.21937 
 C                     0.09054  -3.76465   0.27895 
 C                    -0.68671  -3.47304   1.44651 
 C                     2.06713  -2.84289   1.34511 
 C                    -0.06753  -2.95401   2.56374 
 C                     1.33444  -2.63887   2.49905 
 C                    -1.97606  -1.47644   2.99484 
 C                    -2.2717   -0.07332   3.12044 
 C                    -1.31016   0.78829   3.61867 
 C                    -0.73184  -1.95482   3.35593 
 C                     0.97869   1.26376   3.51976 
 C                     2.1673    0.86375   2.93374 
 C                     2.45785  -0.52432   2.79436 
 C                     1.54445  -1.45251   3.25347 
 C                     0.00058   0.29866   3.94013 
 C                     0.28562  -1.04796   3.81261 
 Cl                   -2.27156   2.27527  -5.42776 
 Cl                    0.38984   3.32105  -5.48898 
 Cl                    1.94506   0.76967  -5.70402 
 Cl                    2.69808  -2.3822   -4.42781 
 Cl                    4.75769  -2.37205  -1.21163 
 Cl                    5.21769   0.9877    0.75832 
 Cl                    3.39995   4.25843  -0.41102 
 Cl                    1.77521   4.37191  -3.19483 
 Cl                   -3.50889   3.40531  -2.9773 
 
 ITRead=  0  0  0  0  0  0  0  0  0  0  0  0  0  0  0  0  0  0  0  0
 ITRead=  0  0  0  0  0  0  0  0  0  0  0  0  0  0  0  0  0  0  0  0
 ITRead=  0  0  0  0  0  0  0  0  0  0  0  0  0  0  0  0  0  0  0  0
 ITRead=  0  0  0  0  0  0  0  0  0  0  0  0  0  0  0
 MicOpt= -1 -1 -1 -1 -1 -1 -1 -1 -1 -1 -1 -1 -1 -1 -1 -1 -1 -1 -1 -1
 MicOpt= -1 -1 -1 -1 -1 -1 -1 -1 -1 -1 -1 -1 -1 -1 -1 -1 -1 -1 -1 -1
 MicOpt= -1 -1 -1 -1 -1 -1 -1 -1 -1 -1 -1 -1 -1 -1 -1 -1 -1 -1 -1 -1
 MicOpt= -1 -1 -1 -1 -1 -1 -1 -1 -1 -1 -1 -1 -1 -1 -1
 NAtoms=     75 NQM=       75 NQMF=       0 NMMI=      0 NMMIF=      0
                NMic=       0 NMicF=      0.
                    Isotopes and Nuclear Properties:
 (Nuclear quadrupole moments (NQMom) in fm**2, nuclear magnetic moments (NMagM)
  in nuclear magnetons)

  Atom         1           2           3           4           5           6           7           8           9          10
 IAtWgt=          12          12          12          12          12          12          12          12          12          12
 AtmWgt=  12.0000000  12.0000000  12.0000000  12.0000000  12.0000000  12.0000000  12.0000000  12.0000000  12.0000000  12.0000000
 NucSpn=           0           0           0           0           0           0           0           0           0           0
 AtZEff=  -0.0000000  -0.0000000  -0.0000000  -0.0000000  -0.0000000  -0.0000000  -0.0000000  -0.0000000  -0.0000000  -0.0000000
 NQMom=    0.0000000   0.0000000   0.0000000   0.0000000   0.0000000   0.0000000   0.0000000   0.0000000   0.0000000   0.0000000
 NMagM=    0.0000000   0.0000000   0.0000000   0.0000000   0.0000000   0.0000000   0.0000000   0.0000000   0.0000000   0.0000000
 AtZNuc=   6.0000000   6.0000000   6.0000000   6.0000000   6.0000000   6.0000000   6.0000000   6.0000000   6.0000000   6.0000000

  Atom        11          12          13          14          15          16          17          18          19          20
 IAtWgt=          12          12          12          12          12          12          12          12          12          12
 AtmWgt=  12.0000000  12.0000000  12.0000000  12.0000000  12.0000000  12.0000000  12.0000000  12.0000000  12.0000000  12.0000000
 NucSpn=           0           0           0           0           0           0           0           0           0           0
 AtZEff=  -0.0000000  -0.0000000  -0.0000000  -0.0000000  -0.0000000  -0.0000000  -0.0000000  -0.0000000  -0.0000000  -0.0000000
 NQMom=    0.0000000   0.0000000   0.0000000   0.0000000   0.0000000   0.0000000   0.0000000   0.0000000   0.0000000   0.0000000
 NMagM=    0.0000000   0.0000000   0.0000000   0.0000000   0.0000000   0.0000000   0.0000000   0.0000000   0.0000000   0.0000000
 AtZNuc=   6.0000000   6.0000000   6.0000000   6.0000000   6.0000000   6.0000000   6.0000000   6.0000000   6.0000000   6.0000000

  Atom        21          22          23          24          25          26          27          28          29          30
 IAtWgt=          12          12          12          12          12          12          12          12          12          12
 AtmWgt=  12.0000000  12.0000000  12.0000000  12.0000000  12.0000000  12.0000000  12.0000000  12.0000000  12.0000000  12.0000000
 NucSpn=           0           0           0           0           0           0           0           0           0           0
 AtZEff=  -0.0000000  -0.0000000  -0.0000000  -0.0000000  -0.0000000  -0.0000000  -0.0000000  -0.0000000  -0.0000000  -0.0000000
 NQMom=    0.0000000   0.0000000   0.0000000   0.0000000   0.0000000   0.0000000   0.0000000   0.0000000   0.0000000   0.0000000
 NMagM=    0.0000000   0.0000000   0.0000000   0.0000000   0.0000000   0.0000000   0.0000000   0.0000000   0.0000000   0.0000000
 AtZNuc=   6.0000000   6.0000000   6.0000000   6.0000000   6.0000000   6.0000000   6.0000000   6.0000000   6.0000000   6.0000000

  Atom        31          32          33          34          35          36          37          38          39          40
 IAtWgt=          12          12          12          12          12          12          12          12          12          12
 AtmWgt=  12.0000000  12.0000000  12.0000000  12.0000000  12.0000000  12.0000000  12.0000000  12.0000000  12.0000000  12.0000000
 NucSpn=           0           0           0           0           0           0           0           0           0           0
 AtZEff=  -0.0000000  -0.0000000  -0.0000000  -0.0000000  -0.0000000  -0.0000000  -0.0000000  -0.0000000  -0.0000000  -0.0000000
 NQMom=    0.0000000   0.0000000   0.0000000   0.0000000   0.0000000   0.0000000   0.0000000   0.0000000   0.0000000   0.0000000
 NMagM=    0.0000000   0.0000000   0.0000000   0.0000000   0.0000000   0.0000000   0.0000000   0.0000000   0.0000000   0.0000000
 AtZNuc=   6.0000000   6.0000000   6.0000000   6.0000000   6.0000000   6.0000000   6.0000000   6.0000000   6.0000000   6.0000000

  Atom        41          42          43          44          45          46          47          48          49          50
 IAtWgt=          12          12          12          12          12          12          12          12          12          12
 AtmWgt=  12.0000000  12.0000000  12.0000000  12.0000000  12.0000000  12.0000000  12.0000000  12.0000000  12.0000000  12.0000000
 NucSpn=           0           0           0           0           0           0           0           0           0           0
 AtZEff=  -0.0000000  -0.0000000  -0.0000000  -0.0000000  -0.0000000  -0.0000000  -0.0000000  -0.0000000  -0.0000000  -0.0000000
 NQMom=    0.0000000   0.0000000   0.0000000   0.0000000   0.0000000   0.0000000   0.0000000   0.0000000   0.0000000   0.0000000
 NMagM=    0.0000000   0.0000000   0.0000000   0.0000000   0.0000000   0.0000000   0.0000000   0.0000000   0.0000000   0.0000000
 AtZNuc=   6.0000000   6.0000000   6.0000000   6.0000000   6.0000000   6.0000000   6.0000000   6.0000000   6.0000000   6.0000000

  Atom        51          52          53          54          55          56          57          58          59          60
 IAtWgt=          12          12          12          12          12          12          12          12          12          12
 AtmWgt=  12.0000000  12.0000000  12.0000000  12.0000000  12.0000000  12.0000000  12.0000000  12.0000000  12.0000000  12.0000000
 NucSpn=           0           0           0           0           0           0           0           0           0           0
 AtZEff=  -0.0000000  -0.0000000  -0.0000000  -0.0000000  -0.0000000  -0.0000000  -0.0000000  -0.0000000  -0.0000000  -0.0000000
 NQMom=    0.0000000   0.0000000   0.0000000   0.0000000   0.0000000   0.0000000   0.0000000   0.0000000   0.0000000   0.0000000
 NMagM=    0.0000000   0.0000000   0.0000000   0.0000000   0.0000000   0.0000000   0.0000000   0.0000000   0.0000000   0.0000000
 AtZNuc=   6.0000000   6.0000000   6.0000000   6.0000000   6.0000000   6.0000000   6.0000000   6.0000000   6.0000000   6.0000000

  Atom        61          62          63          64          65          66          67          68          69          70
 IAtWgt=          12          12          12          12          12          12          35          35          35          35
 AtmWgt=  12.0000000  12.0000000  12.0000000  12.0000000  12.0000000  12.0000000  34.9688527  34.9688527  34.9688527  34.9688527
 NucSpn=           0           0           0           0           0           0           3           3           3           3
 AtZEff=  -0.0000000  -0.0000000  -0.0000000  -0.0000000  -0.0000000  -0.0000000  -0.0000000  -0.0000000  -0.0000000  -0.0000000
 NQMom=    0.0000000   0.0000000   0.0000000   0.0000000   0.0000000   0.0000000  -8.1650000  -8.1650000  -8.1650000  -8.1650000
 NMagM=    0.0000000   0.0000000   0.0000000   0.0000000   0.0000000   0.0000000   0.8218740   0.8218740   0.8218740   0.8218740
 AtZNuc=   6.0000000   6.0000000   6.0000000   6.0000000   6.0000000   6.0000000  17.0000000  17.0000000  17.0000000  17.0000000

  Atom        71          72          73          74          75
 IAtWgt=          35          35          35          35          35
 AtmWgt=  34.9688527  34.9688527  34.9688527  34.9688527  34.9688527
 NucSpn=           3           3           3           3           3
 AtZEff=  -0.0000000  -0.0000000  -0.0000000  -0.0000000  -0.0000000
 NQMom=   -8.1650000  -8.1650000  -8.1650000  -8.1650000  -8.1650000
 NMagM=    0.8218740   0.8218740   0.8218740   0.8218740   0.8218740
 AtZNuc=  17.0000000  17.0000000  17.0000000  17.0000000  17.0000000
 Leave Link  101 at Thu Jul 14 12:41:35 2022, MaxMem=  1342177280 cpu:              13.8 elap:               0.3
 (Enter /home/mkliu/g16/l103.exe)

 GradGradGradGradGradGradGradGradGradGradGradGradGradGradGradGradGradGrad
 Berny optimization.
 Initialization pass.
                           ----------------------------
                           !    Initial Parameters    !
                           ! (Angstroms and Degrees)  !
 --------------------------                            --------------------------
 ! Name  Definition              Value          Derivative Info.                !
 --------------------------------------------------------------------------------
 ! R1    R(1,2)                  1.583          estimate D2E/DX2                !
 ! R2    R(1,4)                  1.4853         estimate D2E/DX2                !
 ! R3    R(1,7)                  1.5474         estimate D2E/DX2                !
 ! R4    R(1,67)                 1.799          estimate D2E/DX2                !
 ! R5    R(2,3)                  1.5749         estimate D2E/DX2                !
 ! R6    R(2,10)                 1.5668         estimate D2E/DX2                !
 ! R7    R(2,68)                 1.7736         estimate D2E/DX2                !
 ! R8    R(3,5)                  1.4849         estimate D2E/DX2                !
 ! R9    R(3,12)                 1.5004         estimate D2E/DX2                !
 ! R10   R(3,69)                 1.7727         estimate D2E/DX2                !
 ! R11   R(4,5)                  1.3567         estimate D2E/DX2                !
 ! R12   R(4,6)                  1.3963         estimate D2E/DX2                !
 ! R13   R(5,15)                 1.3874         estimate D2E/DX2                !
 ! R14   R(6,8)                  1.3963         estimate D2E/DX2                !
 ! R15   R(6,17)                 1.4062         estimate D2E/DX2                !
 ! R16   R(7,8)                  1.5283         estimate D2E/DX2                !
 ! R17   R(7,9)                  1.5084         estimate D2E/DX2                !
 ! R18   R(7,75)                 1.8023         estimate D2E/DX2                !
 ! R19   R(8,20)                 1.3955         estimate D2E/DX2                !
 ! R20   R(9,11)                 1.3964         estimate D2E/DX2                !
 ! R21   R(9,22)                 1.3922         estimate D2E/DX2                !
 ! R22   R(10,11)                1.5102         estimate D2E/DX2                !
 ! R23   R(10,13)                1.5079         estimate D2E/DX2                !
 ! R24   R(10,74)                1.7968         estimate D2E/DX2                !
 ! R25   R(11,25)                1.3912         estimate D2E/DX2                !
 ! R26   R(12,13)                1.3724         estimate D2E/DX2                !
 ! R27   R(12,14)                1.3918         estimate D2E/DX2                !
 ! R28   R(13,27)                1.381          estimate D2E/DX2                !
 ! R29   R(14,16)                1.5292         estimate D2E/DX2                !
 ! R30   R(14,29)                1.3997         estimate D2E/DX2                !
 ! R31   R(15,16)                1.5115         estimate D2E/DX2                !
 ! R32   R(15,18)                1.4025         estimate D2E/DX2                !
 ! R33   R(16,32)                1.4988         estimate D2E/DX2                !
 ! R34   R(16,70)                1.7894         estimate D2E/DX2                !
 ! R35   R(17,18)                1.4176         estimate D2E/DX2                !
 ! R36   R(17,19)                1.4347         estimate D2E/DX2                !
 ! R37   R(18,33)                1.4238         estimate D2E/DX2                !
 ! R38   R(19,21)                1.4437         estimate D2E/DX2                !
 ! R39   R(19,35)                1.4115         estimate D2E/DX2                !
 ! R40   R(20,21)                1.458          estimate D2E/DX2                !
 ! R41   R(20,23)                1.4125         estimate D2E/DX2                !
 ! R42   R(21,38)                1.4029         estimate D2E/DX2                !
 ! R43   R(22,23)                1.4494         estimate D2E/DX2                !
 ! R44   R(22,24)                1.4162         estimate D2E/DX2                !
 ! R45   R(23,40)                1.4063         estimate D2E/DX2                !
 ! R46   R(24,26)                1.3827         estimate D2E/DX2                !
 ! R47   R(24,41)                1.4319         estimate D2E/DX2                !
 ! R48   R(25,26)                1.4118         estimate D2E/DX2                !
 ! R49   R(25,28)                1.5163         estimate D2E/DX2                !
 ! R50   R(26,44)                1.4291         estimate D2E/DX2                !
 ! R51   R(27,28)                1.511          estimate D2E/DX2                !
 ! R52   R(27,30)                1.3973         estimate D2E/DX2                !
 ! R53   R(28,45)                1.4977         estimate D2E/DX2                !
 ! R54   R(28,73)                1.7963         estimate D2E/DX2                !
 ! R55   R(29,30)                1.4057         estimate D2E/DX2                !
 ! R56   R(29,31)                1.5251         estimate D2E/DX2                !
 ! R57   R(30,47)                1.5221         estimate D2E/DX2                !
 ! R58   R(31,34)                1.506          estimate D2E/DX2                !
 ! R59   R(31,49)                1.5036         estimate D2E/DX2                !
 ! R60   R(31,71)                1.8055         estimate D2E/DX2                !
 ! R61   R(32,33)                1.4263         estimate D2E/DX2                !
 ! R62   R(32,34)                1.3569         estimate D2E/DX2                !
 ! R63   R(33,36)                1.3708         estimate D2E/DX2                !
 ! R64   R(34,51)                1.4276         estimate D2E/DX2                !
 ! R65   R(35,36)                1.4403         estimate D2E/DX2                !
 ! R66   R(35,37)                1.4276         estimate D2E/DX2                !
 ! R67   R(36,52)                1.4263         estimate D2E/DX2                !
 ! R68   R(37,39)                1.377          estimate D2E/DX2                !
 ! R69   R(37,53)                1.4427         estimate D2E/DX2                !
 ! R70   R(38,39)                1.4378         estimate D2E/DX2                !
 ! R71   R(38,42)                1.4377         estimate D2E/DX2                !
 ! R72   R(39,57)                1.4369         estimate D2E/DX2                !
 ! R73   R(40,41)                1.4501         estimate D2E/DX2                !
 ! R74   R(40,42)                1.3872         estimate D2E/DX2                !
 ! R75   R(41,43)                1.3751         estimate D2E/DX2                !
 ! R76   R(42,58)                1.4341         estimate D2E/DX2                !
 ! R77   R(43,46)                1.4421         estimate D2E/DX2                !
 ! R78   R(43,59)                1.4431         estimate D2E/DX2                !
 ! R79   R(44,45)                1.4255         estimate D2E/DX2                !
 ! R80   R(44,46)                1.3798         estimate D2E/DX2                !
 ! R81   R(45,48)                1.3552         estimate D2E/DX2                !
 ! R82   R(46,61)                1.424          estimate D2E/DX2                !
 ! R83   R(47,48)                1.5039         estimate D2E/DX2                !
 ! R84   R(47,50)                1.502          estimate D2E/DX2                !
 ! R85   R(47,72)                1.8068         estimate D2E/DX2                !
 ! R86   R(48,62)                1.4294         estimate D2E/DX2                !
 ! R87   R(49,50)                1.3567         estimate D2E/DX2                !
 ! R88   R(49,54)                1.432          estimate D2E/DX2                !
 ! R89   R(50,63)                1.4322         estimate D2E/DX2                !
 ! R90   R(51,52)                1.3864         estimate D2E/DX2                !
 ! R91   R(51,54)                1.4262         estimate D2E/DX2                !
 ! R92   R(52,53)                1.4326         estimate D2E/DX2                !
 ! R93   R(53,55)                1.3788         estimate D2E/DX2                !
 ! R94   R(54,56)                1.382          estimate D2E/DX2                !
 ! R95   R(55,56)                1.4384         estimate D2E/DX2                !
 ! R96   R(55,60)                1.4378         estimate D2E/DX2                !
 ! R97   R(56,64)                1.4215         estimate D2E/DX2                !
 ! R98   R(57,58)                1.4394         estimate D2E/DX2                !
 ! R99   R(57,60)                1.3811         estimate D2E/DX2                !
 ! R100  R(58,59)                1.3839         estimate D2E/DX2                !
 ! R101  R(59,65)                1.4357         estimate D2E/DX2                !
 ! R102  R(60,66)                1.4374         estimate D2E/DX2                !
 ! R103  R(61,62)                1.3843         estimate D2E/DX2                !
 ! R104  R(61,65)                1.4369         estimate D2E/DX2                !
 ! R105  R(62,63)                1.425          estimate D2E/DX2                !
 ! R106  R(63,64)                1.3808         estimate D2E/DX2                !
 ! R107  R(64,66)                1.4356         estimate D2E/DX2                !
 ! R108  R(65,66)                1.3824         estimate D2E/DX2                !
 ! A1    A(2,1,4)              102.5426         estimate D2E/DX2                !
 ! A2    A(2,1,7)              120.8705         estimate D2E/DX2                !
 ! A3    A(2,1,67)             111.2777         estimate D2E/DX2                !
 ! A4    A(4,1,7)              101.8923         estimate D2E/DX2                !
 ! A5    A(4,1,67)             107.5653         estimate D2E/DX2                !
 ! A6    A(7,1,67)             111.0533         estimate D2E/DX2                !
 ! A7    A(1,2,3)              104.7118         estimate D2E/DX2                !
 ! A8    A(1,2,10)             116.071          estimate D2E/DX2                !
 ! A9    A(1,2,68)             109.7075         estimate D2E/DX2                !
 ! A10   A(3,2,10)             103.2757         estimate D2E/DX2                !
 ! A11   A(3,2,68)             111.102          estimate D2E/DX2                !
 ! A12   A(10,2,68)            111.5548         estimate D2E/DX2                !
 ! A13   A(2,3,5)              106.6343         estimate D2E/DX2                !
 ! A14   A(2,3,12)             106.4171         estimate D2E/DX2                !
 ! A15   A(2,3,69)             115.982          estimate D2E/DX2                !
 ! A16   A(5,3,12)             101.0911         estimate D2E/DX2                !
 ! A17   A(5,3,69)             114.1323         estimate D2E/DX2                !
 ! A18   A(12,3,69)            111.2798         estimate D2E/DX2                !
 ! A19   A(1,4,5)              115.6373         estimate D2E/DX2                !
 ! A20   A(1,4,6)              113.7841         estimate D2E/DX2                !
 ! A21   A(5,4,6)              122.7102         estimate D2E/DX2                !
 ! A22   A(3,5,4)              109.2146         estimate D2E/DX2                !
 ! A23   A(3,5,15)             122.8068         estimate D2E/DX2                !
 ! A24   A(4,5,15)             117.7408         estimate D2E/DX2                !
 ! A25   A(4,6,8)              108.0425         estimate D2E/DX2                !
 ! A26   A(4,6,17)             120.7357         estimate D2E/DX2                !
 ! A27   A(8,6,17)             124.2825         estimate D2E/DX2                !
 ! A28   A(1,7,8)              104.7408         estimate D2E/DX2                !
 ! A29   A(1,7,9)              115.5011         estimate D2E/DX2                !
 ! A30   A(1,7,75)             113.9112         estimate D2E/DX2                !
 ! A31   A(8,7,9)              105.5547         estimate D2E/DX2                !
 ! A32   A(8,7,75)             110.638          estimate D2E/DX2                !
 ! A33   A(9,7,75)             106.2001         estimate D2E/DX2                !
 ! A34   A(6,8,7)              110.0567         estimate D2E/DX2                !
 ! A35   A(6,8,20)             118.3319         estimate D2E/DX2                !
 ! A36   A(7,8,20)             125.2927         estimate D2E/DX2                !
 ! A37   A(7,9,11)             126.0823         estimate D2E/DX2                !
 ! A38   A(7,9,22)             113.7409         estimate D2E/DX2                !
 ! A39   A(11,9,22)            119.1712         estimate D2E/DX2                !
 ! A40   A(2,10,11)            119.542          estimate D2E/DX2                !
 ! A41   A(2,10,13)            106.712          estimate D2E/DX2                !
 ! A42   A(2,10,74)            111.3704         estimate D2E/DX2                !
 ! A43   A(11,10,13)           100.5001         estimate D2E/DX2                !
 ! A44   A(11,10,74)           108.0237         estimate D2E/DX2                !
 ! A45   A(13,10,74)           109.934          estimate D2E/DX2                !
 ! A46   A(9,11,10)            121.3279         estimate D2E/DX2                !
 ! A47   A(9,11,25)            119.5768         estimate D2E/DX2                !
 ! A48   A(10,11,25)           116.4065         estimate D2E/DX2                !
 ! A49   A(3,12,13)            111.0972         estimate D2E/DX2                !
 ! A50   A(3,12,14)            126.0246         estimate D2E/DX2                !
 ! A51   A(13,12,14)           121.2532         estimate D2E/DX2                !
 ! A52   A(10,13,12)           111.1331         estimate D2E/DX2                !
 ! A53   A(10,13,27)           126.852          estimate D2E/DX2                !
 ! A54   A(12,13,27)           120.3227         estimate D2E/DX2                !
 ! A55   A(12,14,16)           117.9259         estimate D2E/DX2                !
 ! A56   A(12,14,29)           118.6645         estimate D2E/DX2                !
 ! A57   A(16,14,29)           121.9901         estimate D2E/DX2                !
 ! A58   A(5,15,16)            122.1751         estimate D2E/DX2                !
 ! A59   A(5,15,18)            120.0294         estimate D2E/DX2                !
 ! A60   A(16,15,18)           110.2845         estimate D2E/DX2                !
 ! A61   A(14,16,15)           103.8749         estimate D2E/DX2                !
 ! A62   A(14,16,32)           108.8428         estimate D2E/DX2                !
 ! A63   A(14,16,70)           110.886          estimate D2E/DX2                !
 ! A64   A(15,16,32)           101.4994         estimate D2E/DX2                !
 ! A65   A(15,16,70)           116.7499         estimate D2E/DX2                !
 ! A66   A(32,16,70)           114.0799         estimate D2E/DX2                !
 ! A67   A(6,17,18)            114.9924         estimate D2E/DX2                !
 ! A68   A(6,17,19)            118.111          estimate D2E/DX2                !
 ! A69   A(18,17,19)           120.9722         estimate D2E/DX2                !
 ! A70   A(15,18,17)           122.149          estimate D2E/DX2                !
 ! A71   A(15,18,33)           109.0529         estimate D2E/DX2                !
 ! A72   A(17,18,33)           120.2084         estimate D2E/DX2                !
 ! A73   A(17,19,21)           118.4832         estimate D2E/DX2                !
 ! A74   A(17,19,35)           116.7815         estimate D2E/DX2                !
 ! A75   A(21,19,35)           119.1365         estimate D2E/DX2                !
 ! A76   A(8,20,21)            119.9842         estimate D2E/DX2                !
 ! A77   A(8,20,23)            115.2067         estimate D2E/DX2                !
 ! A78   A(21,20,23)           119.365          estimate D2E/DX2                !
 ! A79   A(19,21,20)           119.7681         estimate D2E/DX2                !
 ! A80   A(19,21,38)           118.289          estimate D2E/DX2                !
 ! A81   A(20,21,38)           116.9202         estimate D2E/DX2                !
 ! A82   A(9,22,23)            123.3354         estimate D2E/DX2                !
 ! A83   A(9,22,24)            121.3516         estimate D2E/DX2                !
 ! A84   A(23,22,24)           107.4106         estimate D2E/DX2                !
 ! A85   A(20,23,22)           117.3702         estimate D2E/DX2                !
 ! A86   A(20,23,40)           121.4919         estimate D2E/DX2                !
 ! A87   A(22,23,40)           108.7713         estimate D2E/DX2                !
 ! A88   A(22,24,26)           118.4812         estimate D2E/DX2                !
 ! A89   A(22,24,41)           108.5241         estimate D2E/DX2                !
 ! A90   A(26,24,41)           121.0294         estimate D2E/DX2                !
 ! A91   A(11,25,26)           120.6754         estimate D2E/DX2                !
 ! A92   A(11,25,28)           125.3876         estimate D2E/DX2                !
 ! A93   A(26,25,28)           108.6445         estimate D2E/DX2                !
 ! A94   A(24,26,25)           119.8798         estimate D2E/DX2                !
 ! A95   A(24,26,44)           119.3343         estimate D2E/DX2                !
 ! A96   A(25,26,44)           110.4992         estimate D2E/DX2                !
 ! A97   A(13,27,28)           116.8345         estimate D2E/DX2                !
 ! A98   A(13,27,30)           119.4913         estimate D2E/DX2                !
 ! A99   A(28,27,30)           122.5713         estimate D2E/DX2                !
 ! A100  A(25,28,27)           103.9918         estimate D2E/DX2                !
 ! A101  A(25,28,45)           101.9311         estimate D2E/DX2                !
 ! A102  A(25,28,73)           117.9081         estimate D2E/DX2                !
 ! A103  A(27,28,45)           111.1219         estimate D2E/DX2                !
 ! A104  A(27,28,73)           110.5442         estimate D2E/DX2                !
 ! A105  A(45,28,73)           110.8905         estimate D2E/DX2                !
 ! A106  A(14,29,30)           119.5229         estimate D2E/DX2                !
 ! A107  A(14,29,31)           118.8243         estimate D2E/DX2                !
 ! A108  A(30,29,31)           121.0419         estimate D2E/DX2                !
 ! A109  A(27,30,29)           120.0836         estimate D2E/DX2                !
 ! A110  A(27,30,47)           118.9747         estimate D2E/DX2                !
 ! A111  A(29,30,47)           120.5763         estimate D2E/DX2                !
 ! A112  A(29,31,34)           109.4739         estimate D2E/DX2                !
 ! A113  A(29,31,49)           110.8229         estimate D2E/DX2                !
 ! A114  A(29,31,71)           107.665          estimate D2E/DX2                !
 ! A115  A(34,31,49)           101.0712         estimate D2E/DX2                !
 ! A116  A(34,31,71)           114.35           estimate D2E/DX2                !
 ! A117  A(49,31,71)           113.3686         estimate D2E/DX2                !
 ! A118  A(16,32,33)           110.3304         estimate D2E/DX2                !
 ! A119  A(16,32,34)           122.0794         estimate D2E/DX2                !
 ! A120  A(33,32,34)           118.4643         estimate D2E/DX2                !
 ! A121  A(18,33,32)           107.8025         estimate D2E/DX2                !
 ! A122  A(18,33,36)           118.8415         estimate D2E/DX2                !
 ! A123  A(32,33,36)           122.9848         estimate D2E/DX2                !
 ! A124  A(31,34,32)           121.9533         estimate D2E/DX2                !
 ! A125  A(31,34,51)           111.3356         estimate D2E/DX2                !
 ! A126  A(32,34,51)           119.1283         estimate D2E/DX2                !
 ! A127  A(19,35,36)           120.6184         estimate D2E/DX2                !
 ! A128  A(19,35,37)           121.3718         estimate D2E/DX2                !
 ! A129  A(36,35,37)           107.4196         estimate D2E/DX2                !
 ! A130  A(33,36,35)           121.2593         estimate D2E/DX2                !
 ! A131  A(33,36,52)           118.0159         estimate D2E/DX2                !
 ! A132  A(35,36,52)           109.0553         estimate D2E/DX2                !
 ! A133  A(35,37,39)           119.6162         estimate D2E/DX2                !
 ! A134  A(35,37,53)           107.4177         estimate D2E/DX2                !
 ! A135  A(39,37,53)           120.8793         estimate D2E/DX2                !
 ! A136  A(21,38,39)           121.6653         estimate D2E/DX2                !
 ! A137  A(21,38,42)           122.1623         estimate D2E/DX2                !
 ! A138  A(39,38,42)           106.7321         estimate D2E/DX2                !
 ! A139  A(37,39,38)           119.7514         estimate D2E/DX2                !
 ! A140  A(37,39,57)           119.9936         estimate D2E/DX2                !
 ! A141  A(38,39,57)           108.8421         estimate D2E/DX2                !
 ! A142  A(23,40,41)           107.6221         estimate D2E/DX2                !
 ! A143  A(23,40,42)           119.9002         estimate D2E/DX2                !
 ! A144  A(41,40,42)           120.464          estimate D2E/DX2                !
 ! A145  A(24,41,40)           107.6205         estimate D2E/DX2                !
 ! A146  A(24,41,43)           119.8405         estimate D2E/DX2                !
 ! A147  A(40,41,43)           119.1088         estimate D2E/DX2                !
 ! A148  A(38,42,40)           119.3803         estimate D2E/DX2                !
 ! A149  A(38,42,58)           108.8488         estimate D2E/DX2                !
 ! A150  A(40,42,58)           119.74           estimate D2E/DX2                !
 ! A151  A(41,43,46)           119.1701         estimate D2E/DX2                !
 ! A152  A(41,43,59)           120.505          estimate D2E/DX2                !
 ! A153  A(46,43,59)           108.5785         estimate D2E/DX2                !
 ! A154  A(26,44,45)           107.0006         estimate D2E/DX2                !
 ! A155  A(26,44,46)           119.7165         estimate D2E/DX2                !
 ! A156  A(45,44,46)           121.6408         estimate D2E/DX2                !
 ! A157  A(28,45,44)           110.5301         estimate D2E/DX2                !
 ! A158  A(28,45,48)           121.7168         estimate D2E/DX2                !
 ! A159  A(44,45,48)           119.8539         estimate D2E/DX2                !
 ! A160  A(43,46,44)           120.8971         estimate D2E/DX2                !
 ! A161  A(43,46,61)           107.9024         estimate D2E/DX2                !
 ! A162  A(44,46,61)           118.6996         estimate D2E/DX2                !
 ! A163  A(30,47,48)           110.5117         estimate D2E/DX2                !
 ! A164  A(30,47,50)           110.6572         estimate D2E/DX2                !
 ! A165  A(30,47,72)           106.6504         estimate D2E/DX2                !
 ! A166  A(48,47,50)           101.5209         estimate D2E/DX2                !
 ! A167  A(48,47,72)           113.5065         estimate D2E/DX2                !
 ! A168  A(50,47,72)           114.0324         estimate D2E/DX2                !
 ! A169  A(45,48,47)           122.7266         estimate D2E/DX2                !
 ! A170  A(45,48,62)           119.0617         estimate D2E/DX2                !
 ! A171  A(47,48,62)           110.8824         estimate D2E/DX2                !
 ! A172  A(31,49,50)           122.27           estimate D2E/DX2                !
 ! A173  A(31,49,54)           110.7288         estimate D2E/DX2                !
 ! A174  A(50,49,54)           119.38           estimate D2E/DX2                !
 ! A175  A(47,50,49)           122.5447         estimate D2E/DX2                !
 ! A176  A(47,50,63)           110.4997         estimate D2E/DX2                !
 ! A177  A(49,50,63)           119.3751         estimate D2E/DX2                !
 ! A178  A(34,51,52)           121.7077         estimate D2E/DX2                !
 ! A179  A(34,51,54)           107.957          estimate D2E/DX2                !
 ! A180  A(52,51,54)           119.3303         estimate D2E/DX2                !
 ! A181  A(36,52,51)           118.6374         estimate D2E/DX2                !
 ! A182  A(36,52,53)           106.7264         estimate D2E/DX2                !
 ! A183  A(51,52,53)           121.1816         estimate D2E/DX2                !
 ! A184  A(37,53,52)           108.9098         estimate D2E/DX2                !
 ! A185  A(37,53,55)           118.9083         estimate D2E/DX2                !
 ! A186  A(52,53,55)           119.5631         estimate D2E/DX2                !
 ! A187  A(49,54,51)           108.5685         estimate D2E/DX2                !
 ! A188  A(49,54,56)           121.4582         estimate D2E/DX2                !
 ! A189  A(51,54,56)           119.3033         estimate D2E/DX2                !
 ! A190  A(53,55,56)           118.9296         estimate D2E/DX2                !
 ! A191  A(53,55,60)           120.0384         estimate D2E/DX2                !
 ! A192  A(56,55,60)           108.8359         estimate D2E/DX2                !
 ! A193  A(54,56,55)           121.4623         estimate D2E/DX2                !
 ! A194  A(54,56,64)           119.2092         estimate D2E/DX2                !
 ! A195  A(55,56,64)           107.6361         estimate D2E/DX2                !
 ! A196  A(39,57,58)           107.5162         estimate D2E/DX2                !
 ! A197  A(39,57,60)           119.0048         estimate D2E/DX2                !
 ! A198  A(58,57,60)           119.992          estimate D2E/DX2                !
 ! A199  A(42,58,57)           107.6823         estimate D2E/DX2                !
 ! A200  A(42,58,59)           119.894          estimate D2E/DX2                !
 ! A201  A(57,58,59)           119.7098         estimate D2E/DX2                !
 ! A202  A(43,59,58)           120.0755         estimate D2E/DX2                !
 ! A203  A(43,59,65)           106.5686         estimate D2E/DX2                !
 ! A204  A(58,59,65)           120.174          estimate D2E/DX2                !
 ! A205  A(55,60,57)           120.8587         estimate D2E/DX2                !
 ! A206  A(55,60,66)           106.6447         estimate D2E/DX2                !
 ! A207  A(57,60,66)           120.1483         estimate D2E/DX2                !
 ! A208  A(46,61,62)           119.1237         estimate D2E/DX2                !
 ! A209  A(46,61,65)           107.8237         estimate D2E/DX2                !
 ! A210  A(62,61,65)           120.9461         estimate D2E/DX2                !
 ! A211  A(48,62,61)           121.5059         estimate D2E/DX2                !
 ! A212  A(48,62,63)           108.1464         estimate D2E/DX2                !
 ! A213  A(61,62,63)           119.8655         estimate D2E/DX2                !
 ! A214  A(50,63,62)           108.6489         estimate D2E/DX2                !
 ! A215  A(50,63,64)           121.6865         estimate D2E/DX2                !
 ! A216  A(62,63,64)           119.1698         estimate D2E/DX2                !
 ! A217  A(56,64,63)           118.8343         estimate D2E/DX2                !
 ! A218  A(56,64,66)           108.1999         estimate D2E/DX2                !
 ! A219  A(63,64,66)           121.3402         estimate D2E/DX2                !
 ! A220  A(59,65,61)           109.0802         estimate D2E/DX2                !
 ! A221  A(59,65,66)           119.989          estimate D2E/DX2                !
 ! A222  A(61,65,66)           119.139          estimate D2E/DX2                !
 ! A223  A(60,66,64)           108.6123         estimate D2E/DX2                !
 ! A224  A(60,66,65)           119.8637         estimate D2E/DX2                !
 ! A225  A(64,66,65)           119.4228         estimate D2E/DX2                !
 ! D1    D(4,1,2,3)              8.6994         estimate D2E/DX2                !
 ! D2    D(4,1,2,10)          -104.4281         estimate D2E/DX2                !
 ! D3    D(4,1,2,68)           128.0033         estimate D2E/DX2                !
 ! D4    D(7,1,2,3)            120.9679         estimate D2E/DX2                !
 ! D5    D(7,1,2,10)             7.8404         estimate D2E/DX2                !
 ! D6    D(7,1,2,68)          -119.7281         estimate D2E/DX2                !
 ! D7    D(67,1,2,3)          -106.036          estimate D2E/DX2                !
 ! D8    D(67,1,2,10)          140.8365         estimate D2E/DX2                !
 ! D9    D(67,1,2,68)           13.2679         estimate D2E/DX2                !
 ! D10   D(2,1,4,5)            -12.0104         estimate D2E/DX2                !
 ! D11   D(2,1,4,6)            138.0487         estimate D2E/DX2                !
 ! D12   D(7,1,4,5)           -137.7445         estimate D2E/DX2                !
 ! D13   D(7,1,4,6)             12.3146         estimate D2E/DX2                !
 ! D14   D(67,1,4,5)           105.4004         estimate D2E/DX2                !
 ! D15   D(67,1,4,6)          -104.5405         estimate D2E/DX2                !
 ! D16   D(2,1,7,8)           -123.5622         estimate D2E/DX2                !
 ! D17   D(2,1,7,9)             -7.9221         estimate D2E/DX2                !
 ! D18   D(2,1,7,75)           115.4185         estimate D2E/DX2                !
 ! D19   D(4,1,7,8)            -10.9527         estimate D2E/DX2                !
 ! D20   D(4,1,7,9)            104.6874         estimate D2E/DX2                !
 ! D21   D(4,1,7,75)          -131.972          estimate D2E/DX2                !
 ! D22   D(67,1,7,8)           103.3488         estimate D2E/DX2                !
 ! D23   D(67,1,7,9)          -141.0112         estimate D2E/DX2                !
 ! D24   D(67,1,7,75)          -17.6706         estimate D2E/DX2                !
 ! D25   D(1,2,3,5)             -3.7747         estimate D2E/DX2                !
 ! D26   D(1,2,3,12)          -111.0722         estimate D2E/DX2                !
 ! D27   D(1,2,3,69)           124.5618         estimate D2E/DX2                !
 ! D28   D(10,2,3,5)           118.1503         estimate D2E/DX2                !
 ! D29   D(10,2,3,12)           10.8528         estimate D2E/DX2                !
 ! D30   D(10,2,3,69)         -113.5133         estimate D2E/DX2                !
 ! D31   D(68,2,3,5)          -122.1363         estimate D2E/DX2                !
 ! D32   D(68,2,3,12)          130.5662         estimate D2E/DX2                !
 ! D33   D(68,2,3,69)            6.2002         estimate D2E/DX2                !
 ! D34   D(1,2,10,11)           -5.5923         estimate D2E/DX2                !
 ! D35   D(1,2,10,13)          107.2917         estimate D2E/DX2                !
 ! D36   D(1,2,10,74)         -132.7255         estimate D2E/DX2                !
 ! D37   D(3,2,10,11)         -119.5415         estimate D2E/DX2                !
 ! D38   D(3,2,10,13)           -6.6575         estimate D2E/DX2                !
 ! D39   D(3,2,10,74)          113.3253         estimate D2E/DX2                !
 ! D40   D(68,2,10,11)         121.0569         estimate D2E/DX2                !
 ! D41   D(68,2,10,13)        -126.0592         estimate D2E/DX2                !
 ! D42   D(68,2,10,74)          -6.0764         estimate D2E/DX2                !
 ! D43   D(2,3,5,4)             -3.29           estimate D2E/DX2                !
 ! D44   D(2,3,5,15)          -147.4973         estimate D2E/DX2                !
 ! D45   D(12,3,5,4)           107.7582         estimate D2E/DX2                !
 ! D46   D(12,3,5,15)          -36.4491         estimate D2E/DX2                !
 ! D47   D(69,3,5,4)          -132.6993         estimate D2E/DX2                !
 ! D48   D(69,3,5,15)           83.0934         estimate D2E/DX2                !
 ! D49   D(2,3,12,13)          -11.9066         estimate D2E/DX2                !
 ! D50   D(2,3,12,14)          153.5933         estimate D2E/DX2                !
 ! D51   D(5,3,12,13)         -123.1216         estimate D2E/DX2                !
 ! D52   D(5,3,12,14)           42.3784         estimate D2E/DX2                !
 ! D53   D(69,3,12,13)         115.3138         estimate D2E/DX2                !
 ! D54   D(69,3,12,14)         -79.1863         estimate D2E/DX2                !
 ! D55   D(1,4,5,3)             10.0826         estimate D2E/DX2                !
 ! D56   D(1,4,5,15)           156.3438         estimate D2E/DX2                !
 ! D57   D(6,4,5,3)           -137.0431         estimate D2E/DX2                !
 ! D58   D(6,4,5,15)             9.2181         estimate D2E/DX2                !
 ! D59   D(1,4,6,8)             -8.3815         estimate D2E/DX2                !
 ! D60   D(1,4,6,17)          -160.3758         estimate D2E/DX2                !
 ! D61   D(5,4,6,8)            139.2897         estimate D2E/DX2                !
 ! D62   D(5,4,6,17)           -12.7046         estimate D2E/DX2                !
 ! D63   D(3,5,15,16)           -2.9019         estimate D2E/DX2                !
 ! D64   D(3,5,15,18)          143.8959         estimate D2E/DX2                !
 ! D65   D(4,5,15,16)         -144.2936         estimate D2E/DX2                !
 ! D66   D(4,5,15,18)            2.5042         estimate D2E/DX2                !
 ! D67   D(4,6,8,7)              0.324          estimate D2E/DX2                !
 ! D68   D(4,6,8,20)          -153.2616         estimate D2E/DX2                !
 ! D69   D(17,6,8,7)           151.0844         estimate D2E/DX2                !
 ! D70   D(17,6,8,20)           -2.5012         estimate D2E/DX2                !
 ! D71   D(4,6,17,18)            3.8462         estimate D2E/DX2                !
 ! D72   D(4,6,17,19)          157.0655         estimate D2E/DX2                !
 ! D73   D(8,6,17,18)         -143.4467         estimate D2E/DX2                !
 ! D74   D(8,6,17,19)            9.7726         estimate D2E/DX2                !
 ! D75   D(1,7,8,6)              7.1025         estimate D2E/DX2                !
 ! D76   D(1,7,8,20)           158.4339         estimate D2E/DX2                !
 ! D77   D(9,7,8,6)           -115.2646         estimate D2E/DX2                !
 ! D78   D(9,7,8,20)            36.0668         estimate D2E/DX2                !
 ! D79   D(75,7,8,6)           130.2604         estimate D2E/DX2                !
 ! D80   D(75,7,8,20)          -78.4081         estimate D2E/DX2                !
 ! D81   D(1,7,9,11)             6.2519         estimate D2E/DX2                !
 ! D82   D(1,7,9,22)          -162.0946         estimate D2E/DX2                !
 ! D83   D(8,7,9,11)           121.428          estimate D2E/DX2                !
 ! D84   D(8,7,9,22)           -46.9184         estimate D2E/DX2                !
 ! D85   D(75,7,9,11)         -121.0648         estimate D2E/DX2                !
 ! D86   D(75,7,9,22)           70.5887         estimate D2E/DX2                !
 ! D87   D(6,8,20,21)           -6.6903         estimate D2E/DX2                !
 ! D88   D(6,8,20,23)          147.1171         estimate D2E/DX2                !
 ! D89   D(7,8,20,21)         -155.8948         estimate D2E/DX2                !
 ! D90   D(7,8,20,23)           -2.0874         estimate D2E/DX2                !
 ! D91   D(7,9,11,10)           -4.353          estimate D2E/DX2                !
 ! D92   D(7,9,11,25)         -165.1051         estimate D2E/DX2                !
 ! D93   D(22,9,11,10)         163.4217         estimate D2E/DX2                !
 ! D94   D(22,9,11,25)           2.6695         estimate D2E/DX2                !
 ! D95   D(7,9,22,23)           30.1099         estimate D2E/DX2                !
 ! D96   D(7,9,22,24)          175.206          estimate D2E/DX2                !
 ! D97   D(11,9,22,23)        -139.1148         estimate D2E/DX2                !
 ! D98   D(11,9,22,24)           5.9813         estimate D2E/DX2                !
 ! D99   D(2,10,11,9)            3.915          estimate D2E/DX2                !
 ! D100  D(2,10,11,25)         165.2462         estimate D2E/DX2                !
 ! D101  D(13,10,11,9)        -112.2656         estimate D2E/DX2                !
 ! D102  D(13,10,11,25)         49.0656         estimate D2E/DX2                !
 ! D103  D(74,10,11,9)         132.5875         estimate D2E/DX2                !
 ! D104  D(74,10,11,25)        -66.0814         estimate D2E/DX2                !
 ! D105  D(2,10,13,12)          -0.2676         estimate D2E/DX2                !
 ! D106  D(2,10,13,27)        -165.3157         estimate D2E/DX2                !
 ! D107  D(11,10,13,12)        125.1281         estimate D2E/DX2                !
 ! D108  D(11,10,13,27)        -39.92           estimate D2E/DX2                !
 ! D109  D(74,10,13,12)       -121.1716         estimate D2E/DX2                !
 ! D110  D(74,10,13,27)         73.7803         estimate D2E/DX2                !
 ! D111  D(9,11,25,26)          -8.296          estimate D2E/DX2                !
 ! D112  D(9,11,25,28)         143.0218         estimate D2E/DX2                !
 ! D113  D(10,11,25,26)       -169.9716         estimate D2E/DX2                !
 ! D114  D(10,11,25,28)        -18.6538         estimate D2E/DX2                !
 ! D115  D(3,12,13,10)           7.7335         estimate D2E/DX2                !
 ! D116  D(3,12,13,27)         173.8957         estimate D2E/DX2                !
 ! D117  D(14,12,13,10)       -158.5644         estimate D2E/DX2                !
 ! D118  D(14,12,13,27)          7.5978         estimate D2E/DX2                !
 ! D119  D(3,12,14,16)          -7.0509         estimate D2E/DX2                !
 ! D120  D(3,12,14,29)        -173.7334         estimate D2E/DX2                !
 ! D121  D(13,12,14,16)        157.0912         estimate D2E/DX2                !
 ! D122  D(13,12,14,29)         -9.5912         estimate D2E/DX2                !
 ! D123  D(10,13,27,28)         -5.2088         estimate D2E/DX2                !
 ! D124  D(10,13,27,30)        163.097          estimate D2E/DX2                !
 ! D125  D(12,13,27,28)       -169.0204         estimate D2E/DX2                !
 ! D126  D(12,13,27,30)         -0.7146         estimate D2E/DX2                !
 ! D127  D(12,14,16,15)        -33.9868         estimate D2E/DX2                !
 ! D128  D(12,14,16,32)       -141.5209         estimate D2E/DX2                !
 ! D129  D(12,14,16,70)         92.2047         estimate D2E/DX2                !
 ! D130  D(29,14,16,15)        132.2266         estimate D2E/DX2                !
 ! D131  D(29,14,16,32)         24.6925         estimate D2E/DX2                !
 ! D132  D(29,14,16,70)       -101.5819         estimate D2E/DX2                !
 ! D133  D(12,14,29,30)          4.8069         estimate D2E/DX2                !
 ! D134  D(12,14,29,31)        175.9423         estimate D2E/DX2                !
 ! D135  D(16,14,29,30)       -161.3086         estimate D2E/DX2                !
 ! D136  D(16,14,29,31)          9.8269         estimate D2E/DX2                !
 ! D137  D(5,15,16,14)          39.7454         estimate D2E/DX2                !
 ! D138  D(5,15,16,32)         152.6841         estimate D2E/DX2                !
 ! D139  D(5,15,16,70)         -82.6486         estimate D2E/DX2                !
 ! D140  D(18,15,16,14)       -109.8943         estimate D2E/DX2                !
 ! D141  D(18,15,16,32)          3.0445         estimate D2E/DX2                !
 ! D142  D(18,15,16,70)        127.7118         estimate D2E/DX2                !
 ! D143  D(5,15,18,17)         -11.1608         estimate D2E/DX2                !
 ! D144  D(5,15,18,33)        -158.9148         estimate D2E/DX2                !
 ! D145  D(16,15,18,17)        139.2259         estimate D2E/DX2                !
 ! D146  D(16,15,18,33)         -8.5281         estimate D2E/DX2                !
 ! D147  D(14,16,32,33)        112.6522         estimate D2E/DX2                !
 ! D148  D(14,16,32,34)        -33.6631         estimate D2E/DX2                !
 ! D149  D(15,16,32,33)          3.5049         estimate D2E/DX2                !
 ! D150  D(15,16,32,34)       -142.8105         estimate D2E/DX2                !
 ! D151  D(70,16,32,33)       -122.9376         estimate D2E/DX2                !
 ! D152  D(70,16,32,34)         90.747          estimate D2E/DX2                !
 ! D153  D(6,17,18,15)           7.6536         estimate D2E/DX2                !
 ! D154  D(6,17,18,33)         151.9513         estimate D2E/DX2                !
 ! D155  D(19,17,18,15)       -144.7323         estimate D2E/DX2                !
 ! D156  D(19,17,18,33)         -0.4346         estimate D2E/DX2                !
 ! D157  D(6,17,19,21)          -7.5324         estimate D2E/DX2                !
 ! D158  D(6,17,19,35)        -160.9586         estimate D2E/DX2                !
 ! D159  D(18,17,19,21)        144.0237         estimate D2E/DX2                !
 ! D160  D(18,17,19,35)         -9.4025         estimate D2E/DX2                !
 ! D161  D(15,18,33,32)         10.6116         estimate D2E/DX2                !
 ! D162  D(15,18,33,36)        156.6697         estimate D2E/DX2                !
 ! D163  D(17,18,33,32)       -137.8728         estimate D2E/DX2                !
 ! D164  D(17,18,33,36)          8.1852         estimate D2E/DX2                !
 ! D165  D(17,19,21,20)         -1.1125         estimate D2E/DX2                !
 ! D166  D(17,19,21,38)       -155.2898         estimate D2E/DX2                !
 ! D167  D(35,19,21,20)        151.6796         estimate D2E/DX2                !
 ! D168  D(35,19,21,38)         -2.4977         estimate D2E/DX2                !
 ! D169  D(17,19,35,36)         11.7688         estimate D2E/DX2                !
 ! D170  D(17,19,35,37)        151.9692         estimate D2E/DX2                !
 ! D171  D(21,19,35,36)       -141.4769         estimate D2E/DX2                !
 ! D172  D(21,19,35,37)         -1.2765         estimate D2E/DX2                !
 ! D173  D(8,20,21,19)           8.4443         estimate D2E/DX2                !
 ! D174  D(8,20,21,38)         162.9654         estimate D2E/DX2                !
 ! D175  D(23,20,21,19)       -144.2822         estimate D2E/DX2                !
 ! D176  D(23,20,21,38)         10.2388         estimate D2E/DX2                !
 ! D177  D(8,20,23,22)         -21.4954         estimate D2E/DX2                !
 ! D178  D(8,20,23,40)        -159.4046         estimate D2E/DX2                !
 ! D179  D(21,20,23,22)        132.4848         estimate D2E/DX2                !
 ! D180  D(21,20,23,40)         -5.4244         estimate D2E/DX2                !
 ! D181  D(19,21,38,39)          4.3199         estimate D2E/DX2                !
 ! D182  D(19,21,38,42)        146.2639         estimate D2E/DX2                !
 ! D183  D(20,21,38,39)       -150.5889         estimate D2E/DX2                !
 ! D184  D(20,21,38,42)         -8.6449         estimate D2E/DX2                !
 ! D185  D(9,22,23,20)           7.5453         estimate D2E/DX2                !
 ! D186  D(9,22,23,40)         150.4106         estimate D2E/DX2                !
 ! D187  D(24,22,23,20)       -141.6497         estimate D2E/DX2                !
 ! D188  D(24,22,23,40)          1.2156         estimate D2E/DX2                !
 ! D189  D(9,22,24,26)          -8.9444         estimate D2E/DX2                !
 ! D190  D(9,22,24,41)        -152.1014         estimate D2E/DX2                !
 ! D191  D(23,22,24,26)        140.9887         estimate D2E/DX2                !
 ! D192  D(23,22,24,41)         -2.1682         estimate D2E/DX2                !
 ! D193  D(20,23,40,41)        141.2468         estimate D2E/DX2                !
 ! D194  D(20,23,40,42)         -1.5307         estimate D2E/DX2                !
 ! D195  D(22,23,40,41)          0.2018         estimate D2E/DX2                !
 ! D196  D(22,23,40,42)       -142.5757         estimate D2E/DX2                !
 ! D197  D(22,24,26,25)          3.2575         estimate D2E/DX2                !
 ! D198  D(22,24,26,44)       -138.5711         estimate D2E/DX2                !
 ! D199  D(41,24,26,25)        141.6899         estimate D2E/DX2                !
 ! D200  D(41,24,26,44)         -0.1387         estimate D2E/DX2                !
 ! D201  D(22,24,41,40)          2.3016         estimate D2E/DX2                !
 ! D202  D(22,24,41,43)        142.7123         estimate D2E/DX2                !
 ! D203  D(26,24,41,40)       -139.7414         estimate D2E/DX2                !
 ! D204  D(26,24,41,43)          0.6693         estimate D2E/DX2                !
 ! D205  D(11,25,26,24)          5.2615         estimate D2E/DX2                !
 ! D206  D(11,25,26,44)        150.1482         estimate D2E/DX2                !
 ! D207  D(28,25,26,24)       -150.348          estimate D2E/DX2                !
 ! D208  D(28,25,26,44)         -5.4613         estimate D2E/DX2                !
 ! D209  D(11,25,28,27)        -28.2476         estimate D2E/DX2                !
 ! D210  D(11,25,28,45)       -143.8563         estimate D2E/DX2                !
 ! D211  D(11,25,28,73)         94.52           estimate D2E/DX2                !
 ! D212  D(26,25,28,27)        125.9254         estimate D2E/DX2                !
 ! D213  D(26,25,28,45)         10.3167         estimate D2E/DX2                !
 ! D214  D(26,25,28,73)       -111.307          estimate D2E/DX2                !
 ! D215  D(24,26,44,45)        142.8877         estimate D2E/DX2                !
 ! D216  D(24,26,44,46)         -0.8325         estimate D2E/DX2                !
 ! D217  D(25,26,44,45)         -2.2161         estimate D2E/DX2                !
 ! D218  D(25,26,44,46)       -145.9363         estimate D2E/DX2                !
 ! D219  D(13,27,28,25)         38.6914         estimate D2E/DX2                !
 ! D220  D(13,27,28,45)        147.6364         estimate D2E/DX2                !
 ! D221  D(13,27,28,73)        -88.7904         estimate D2E/DX2                !
 ! D222  D(30,27,28,25)       -129.2243         estimate D2E/DX2                !
 ! D223  D(30,27,28,45)        -20.2793         estimate D2E/DX2                !
 ! D224  D(30,27,28,73)        103.294          estimate D2E/DX2                !
 ! D225  D(13,27,30,29)         -3.9209         estimate D2E/DX2                !
 ! D226  D(13,27,30,47)       -177.023          estimate D2E/DX2                !
 ! D227  D(28,27,30,29)        163.6862         estimate D2E/DX2                !
 ! D228  D(28,27,30,47)         -9.4159         estimate D2E/DX2                !
 ! D229  D(25,28,45,44)        -11.9073         estimate D2E/DX2                !
 ! D230  D(25,28,45,48)        136.9971         estimate D2E/DX2                !
 ! D231  D(27,28,45,44)       -122.1836         estimate D2E/DX2                !
 ! D232  D(27,28,45,48)         26.7208         estimate D2E/DX2                !
 ! D233  D(73,28,45,44)        114.4413         estimate D2E/DX2                !
 ! D234  D(73,28,45,48)        -96.6543         estimate D2E/DX2                !
 ! D235  D(14,29,30,27)          1.8102         estimate D2E/DX2                !
 ! D236  D(14,29,30,47)        174.8006         estimate D2E/DX2                !
 ! D237  D(31,29,30,27)       -169.1238         estimate D2E/DX2                !
 ! D238  D(31,29,30,47)          3.8666         estimate D2E/DX2                !
 ! D239  D(14,29,31,34)        -36.136          estimate D2E/DX2                !
 ! D240  D(14,29,31,49)       -146.7701         estimate D2E/DX2                !
 ! D241  D(14,29,31,71)         88.7246         estimate D2E/DX2                !
 ! D242  D(30,29,31,34)        134.8601         estimate D2E/DX2                !
 ! D243  D(30,29,31,49)         24.2259         estimate D2E/DX2                !
 ! D244  D(30,29,31,71)       -100.2794         estimate D2E/DX2                !
 ! D245  D(27,30,47,48)         32.395          estimate D2E/DX2                !
 ! D246  D(27,30,47,50)        144.0456         estimate D2E/DX2                !
 ! D247  D(27,30,47,72)        -91.4105         estimate D2E/DX2                !
 ! D248  D(29,30,47,48)       -140.6721         estimate D2E/DX2                !
 ! D249  D(29,30,47,50)        -29.0215         estimate D2E/DX2                !
 ! D250  D(29,30,47,72)         95.5223         estimate D2E/DX2                !
 ! D251  D(29,31,34,32)         28.4994         estimate D2E/DX2                !
 ! D252  D(29,31,34,51)       -120.7649         estimate D2E/DX2                !
 ! D253  D(49,31,34,32)        145.4609         estimate D2E/DX2                !
 ! D254  D(49,31,34,51)         -3.8034         estimate D2E/DX2                !
 ! D255  D(71,31,34,32)        -92.386          estimate D2E/DX2                !
 ! D256  D(71,31,34,51)        118.3497         estimate D2E/DX2                !
 ! D257  D(29,31,49,50)        -27.5498         estimate D2E/DX2                !
 ! D258  D(29,31,49,54)        121.6931         estimate D2E/DX2                !
 ! D259  D(34,31,49,50)       -143.517          estimate D2E/DX2                !
 ! D260  D(34,31,49,54)          5.7259         estimate D2E/DX2                !
 ! D261  D(71,31,49,50)         93.6483         estimate D2E/DX2                !
 ! D262  D(71,31,49,54)       -117.1088         estimate D2E/DX2                !
 ! D263  D(16,32,33,18)         -8.7162         estimate D2E/DX2                !
 ! D264  D(16,32,33,36)       -153.049          estimate D2E/DX2                !
 ! D265  D(34,32,33,18)        138.9699         estimate D2E/DX2                !
 ! D266  D(34,32,33,36)         -5.3629         estimate D2E/DX2                !
 ! D267  D(16,32,34,31)          7.0199         estimate D2E/DX2                !
 ! D268  D(16,32,34,51)        153.997          estimate D2E/DX2                !
 ! D269  D(33,32,34,31)       -136.7105         estimate D2E/DX2                !
 ! D270  D(33,32,34,51)         10.2666         estimate D2E/DX2                !
 ! D271  D(18,33,36,35)         -5.8456         estimate D2E/DX2                !
 ! D272  D(18,33,36,52)       -144.924          estimate D2E/DX2                !
 ! D273  D(32,33,36,35)        134.8255         estimate D2E/DX2                !
 ! D274  D(32,33,36,52)         -4.2529         estimate D2E/DX2                !
 ! D275  D(31,34,51,52)        144.2712         estimate D2E/DX2                !
 ! D276  D(31,34,51,54)          0.6134         estimate D2E/DX2                !
 ! D277  D(32,34,51,52)         -5.9653         estimate D2E/DX2                !
 ! D278  D(32,34,51,54)       -149.6231         estimate D2E/DX2                !
 ! D279  D(19,35,36,33)         -4.3736         estimate D2E/DX2                !
 ! D280  D(19,35,36,52)        137.9071         estimate D2E/DX2                !
 ! D281  D(37,35,36,33)       -149.4283         estimate D2E/DX2                !
 ! D282  D(37,35,36,52)         -7.1475         estimate D2E/DX2                !
 ! D283  D(19,35,37,39)          3.3465         estimate D2E/DX2                !
 ! D284  D(19,35,37,53)       -139.5041         estimate D2E/DX2                !
 ! D285  D(36,35,37,39)        148.083          estimate D2E/DX2                !
 ! D286  D(36,35,37,53)          5.2324         estimate D2E/DX2                !
 ! D287  D(33,36,52,51)          8.5665         estimate D2E/DX2                !
 ! D288  D(33,36,52,53)        149.8343         estimate D2E/DX2                !
 ! D289  D(35,36,52,51)       -135.1063         estimate D2E/DX2                !
 ! D290  D(35,36,52,53)          6.1615         estimate D2E/DX2                !
 ! D291  D(35,37,39,38)         -1.5567         estimate D2E/DX2                !
 ! D292  D(35,37,39,57)       -140.9707         estimate D2E/DX2                !
 ! D293  D(53,37,39,38)        136.2703         estimate D2E/DX2                !
 ! D294  D(53,37,39,57)         -3.1437         estimate D2E/DX2                !
 ! D295  D(35,37,53,52)         -1.4933         estimate D2E/DX2                !
 ! D296  D(35,37,53,55)        140.2215         estimate D2E/DX2                !
 ! D297  D(39,37,53,52)       -143.7801         estimate D2E/DX2                !
 ! D298  D(39,37,53,55)         -2.0653         estimate D2E/DX2                !
 ! D299  D(21,38,39,37)         -2.3184         estimate D2E/DX2                !
 ! D300  D(21,38,39,57)        141.1427         estimate D2E/DX2                !
 ! D301  D(42,38,39,37)       -149.3002         estimate D2E/DX2                !
 ! D302  D(42,38,39,57)         -5.839          estimate D2E/DX2                !
 ! D303  D(21,38,42,40)          1.9695         estimate D2E/DX2                !
 ! D304  D(21,38,42,58)       -140.5673         estimate D2E/DX2                !
 ! D305  D(39,38,42,40)        148.7493         estimate D2E/DX2                !
 ! D306  D(39,38,42,58)          6.2125         estimate D2E/DX2                !
 ! D307  D(37,39,57,58)        146.6412         estimate D2E/DX2                !
 ! D308  D(37,39,57,60)          5.8964         estimate D2E/DX2                !
 ! D309  D(38,39,57,58)          3.2833         estimate D2E/DX2                !
 ! D310  D(38,39,57,60)       -137.4615         estimate D2E/DX2                !
 ! D311  D(23,40,41,24)         -1.5302         estimate D2E/DX2                !
 ! D312  D(23,40,41,43)       -142.2808         estimate D2E/DX2                !
 ! D313  D(42,40,41,24)        140.997          estimate D2E/DX2                !
 ! D314  D(42,40,41,43)          0.2464         estimate D2E/DX2                !
 ! D315  D(23,40,42,38)          3.3543         estimate D2E/DX2                !
 ! D316  D(23,40,42,58)        141.8288         estimate D2E/DX2                !
 ! D317  D(41,40,42,38)       -134.6662         estimate D2E/DX2                !
 ! D318  D(41,40,42,58)          3.8083         estimate D2E/DX2                !
 ! D319  D(24,41,43,46)         -0.2312         estimate D2E/DX2                !
 ! D320  D(24,41,43,59)       -139.0269         estimate D2E/DX2                !
 ! D321  D(40,41,43,46)        135.7269         estimate D2E/DX2                !
 ! D322  D(40,41,43,59)         -3.0688         estimate D2E/DX2                !
 ! D323  D(38,42,58,57)         -4.2535         estimate D2E/DX2                !
 ! D324  D(38,42,58,59)        137.3093         estimate D2E/DX2                !
 ! D325  D(40,42,58,57)       -146.6336         estimate D2E/DX2                !
 ! D326  D(40,42,58,59)         -5.0708         estimate D2E/DX2                !
 ! D327  D(41,43,46,44)         -0.7465         estimate D2E/DX2                !
 ! D328  D(41,43,46,61)       -142.1375         estimate D2E/DX2                !
 ! D329  D(59,43,46,44)        142.4717         estimate D2E/DX2                !
 ! D330  D(59,43,46,61)          1.0807         estimate D2E/DX2                !
 ! D331  D(41,43,59,58)          1.8156         estimate D2E/DX2                !
 ! D332  D(41,43,59,65)        142.9191         estimate D2E/DX2                !
 ! D333  D(46,43,59,58)       -140.8242         estimate D2E/DX2                !
 ! D334  D(46,43,59,65)          0.2793         estimate D2E/DX2                !
 ! D335  D(26,44,45,28)          9.2185         estimate D2E/DX2                !
 ! D336  D(26,44,45,48)       -140.3467         estimate D2E/DX2                !
 ! D337  D(46,44,45,28)        152.0876         estimate D2E/DX2                !
 ! D338  D(46,44,45,48)          2.5224         estimate D2E/DX2                !
 ! D339  D(26,44,46,43)          1.2787         estimate D2E/DX2                !
 ! D340  D(26,44,46,61)        138.6727         estimate D2E/DX2                !
 ! D341  D(45,44,46,43)       -137.0641         estimate D2E/DX2                !
 ! D342  D(45,44,46,61)          0.3298         estimate D2E/DX2                !
 ! D343  D(28,45,48,47)         -2.797          estimate D2E/DX2                !
 ! D344  D(28,45,48,62)       -150.135          estimate D2E/DX2                !
 ! D345  D(44,45,48,47)        143.3082         estimate D2E/DX2                !
 ! D346  D(44,45,48,62)         -4.0298         estimate D2E/DX2                !
 ! D347  D(43,46,61,62)        140.8738         estimate D2E/DX2                !
 ! D348  D(43,46,61,65)         -2.0148         estimate D2E/DX2                !
 ! D349  D(44,46,61,62)         -1.5045         estimate D2E/DX2                !
 ! D350  D(44,46,61,65)       -144.3932         estimate D2E/DX2                !
 ! D351  D(30,47,48,45)        -27.0059         estimate D2E/DX2                !
 ! D352  D(30,47,48,62)        122.6695         estimate D2E/DX2                !
 ! D353  D(50,47,48,45)       -144.4355         estimate D2E/DX2                !
 ! D354  D(50,47,48,62)          5.2399         estimate D2E/DX2                !
 ! D355  D(72,47,48,45)         92.7518         estimate D2E/DX2                !
 ! D356  D(72,47,48,62)       -117.5729         estimate D2E/DX2                !
 ! D357  D(30,47,50,49)         26.6846         estimate D2E/DX2                !
 ! D358  D(30,47,50,63)       -122.6136         estimate D2E/DX2                !
 ! D359  D(48,47,50,49)        144.0087         estimate D2E/DX2                !
 ! D360  D(48,47,50,63)         -5.2896         estimate D2E/DX2                !
 ! D361  D(72,47,50,49)        -93.5403         estimate D2E/DX2                !
 ! D362  D(72,47,50,63)        117.1615         estimate D2E/DX2                !
 ! D363  D(45,48,62,61)          2.8791         estimate D2E/DX2                !
 ! D364  D(45,48,62,63)        147.5183         estimate D2E/DX2                !
 ! D365  D(47,48,62,61)       -148.0473         estimate D2E/DX2                !
 ! D366  D(47,48,62,63)         -3.4082         estimate D2E/DX2                !
 ! D367  D(31,49,50,47)          1.8083         estimate D2E/DX2                !
 ! D368  D(31,49,50,63)        148.5238         estimate D2E/DX2                !
 ! D369  D(54,49,50,47)       -144.9008         estimate D2E/DX2                !
 ! D370  D(54,49,50,63)          1.8147         estimate D2E/DX2                !
 ! D371  D(31,49,54,51)         -5.7722         estimate D2E/DX2                !
 ! D372  D(31,49,54,56)       -149.9455         estimate D2E/DX2                !
 ! D373  D(50,49,54,51)        144.4767         estimate D2E/DX2                !
 ! D374  D(50,49,54,56)          0.3035         estimate D2E/DX2                !
 ! D375  D(47,50,63,62)          3.606          estimate D2E/DX2                !
 ! D376  D(47,50,63,64)        147.981          estimate D2E/DX2                !
 ! D377  D(49,50,63,62)       -146.7969         estimate D2E/DX2                !
 ! D378  D(49,50,63,64)         -2.4219         estimate D2E/DX2                !
 ! D379  D(34,51,52,36)         -3.7139         estimate D2E/DX2                !
 ! D380  D(34,51,52,53)       -139.2552         estimate D2E/DX2                !
 ! D381  D(54,51,52,36)        135.998          estimate D2E/DX2                !
 ! D382  D(54,51,52,53)          0.4566         estimate D2E/DX2                !
 ! D383  D(34,51,54,49)          3.1352         estimate D2E/DX2                !
 ! D384  D(34,51,54,56)        148.2056         estimate D2E/DX2                !
 ! D385  D(52,51,54,49)       -141.5347         estimate D2E/DX2                !
 ! D386  D(52,51,54,56)          3.5356         estimate D2E/DX2                !
 ! D387  D(36,52,53,37)         -2.8697         estimate D2E/DX2                !
 ! D388  D(36,52,53,55)       -144.2937         estimate D2E/DX2                !
 ! D389  D(51,52,53,37)        137.1987         estimate D2E/DX2                !
 ! D390  D(51,52,53,55)         -4.2253         estimate D2E/DX2                !
 ! D391  D(37,53,55,56)       -133.7523         estimate D2E/DX2                !
 ! D392  D(37,53,55,60)          4.4688         estimate D2E/DX2                !
 ! D393  D(52,53,55,56)          3.8815         estimate D2E/DX2                !
 ! D394  D(52,53,55,60)        142.1026         estimate D2E/DX2                !
 ! D395  D(49,54,56,55)        136.6158         estimate D2E/DX2                !
 ! D396  D(49,54,56,64)         -1.8914         estimate D2E/DX2                !
 ! D397  D(51,54,56,55)         -3.8689         estimate D2E/DX2                !
 ! D398  D(51,54,56,64)       -142.3762         estimate D2E/DX2                !
 ! D399  D(53,55,56,54)          0.1179         estimate D2E/DX2                !
 ! D400  D(53,55,56,64)        142.7594         estimate D2E/DX2                !
 ! D401  D(60,55,56,54)       -142.3354         estimate D2E/DX2                !
 ! D402  D(60,55,56,64)          0.3061         estimate D2E/DX2                !
 ! D403  D(53,55,60,57)         -1.6963         estimate D2E/DX2                !
 ! D404  D(53,55,60,66)       -143.815          estimate D2E/DX2                !
 ! D405  D(56,55,60,57)        140.2708         estimate D2E/DX2                !
 ! D406  D(56,55,60,66)         -1.8478         estimate D2E/DX2                !
 ! D407  D(54,56,64,63)          1.2962         estimate D2E/DX2                !
 ! D408  D(54,56,64,66)        145.0034         estimate D2E/DX2                !
 ! D409  D(55,56,64,63)       -142.3341         estimate D2E/DX2                !
 ! D410  D(55,56,64,66)          1.3731         estimate D2E/DX2                !
 ! D411  D(39,57,58,42)          0.5926         estimate D2E/DX2                !
 ! D412  D(39,57,58,59)       -141.0538         estimate D2E/DX2                !
 ! D413  D(60,57,58,42)        140.8773         estimate D2E/DX2                !
 ! D414  D(60,57,58,59)         -0.7691         estimate D2E/DX2                !
 ! D415  D(39,57,60,55)         -3.5046         estimate D2E/DX2                !
 ! D416  D(39,57,60,66)        133.6259         estimate D2E/DX2                !
 ! D417  D(58,57,60,55)       -139.3394         estimate D2E/DX2                !
 ! D418  D(58,57,60,66)         -2.2088         estimate D2E/DX2                !
 ! D419  D(42,58,59,43)          2.2809         estimate D2E/DX2                !
 ! D420  D(42,58,59,65)       -133.5983         estimate D2E/DX2                !
 ! D421  D(57,58,59,43)        139.2864         estimate D2E/DX2                !
 ! D422  D(57,58,59,65)          3.4072         estimate D2E/DX2                !
 ! D423  D(43,59,65,61)         -1.5338         estimate D2E/DX2                !
 ! D424  D(43,59,65,66)       -144.141          estimate D2E/DX2                !
 ! D425  D(58,59,65,61)        139.5236         estimate D2E/DX2                !
[...]
    13 C(13)  Bbb    -0.0003    -0.037    -0.013    -0.013  0.1696  0.9797 -0.1066
              Bcc     0.0016     0.221     0.079     0.074  0.3414  0.0430  0.9389
 
              Baa    -0.0054    -0.720    -0.257    -0.240 -0.6256  0.7603 -0.1747
    14 C(13)  Bbb    -0.0034    -0.454    -0.162    -0.151  0.7575  0.5385 -0.3690
              Bcc     0.0088     1.174     0.419     0.392  0.1864  0.3632  0.9129
 
              Baa    -0.1247   -16.734    -5.971    -5.582  0.8010 -0.0920 -0.5915
    15 C(13)  Bbb    -0.1183   -15.870    -5.663    -5.294  0.3496  0.8740  0.3375
              Bcc     0.2430    32.603    11.634    10.875  0.4859 -0.4771  0.7323
 
              Baa    -0.0036    -0.483    -0.172    -0.161  0.9297 -0.2863  0.2318
    16 C(13)  Bbb    -0.0016    -0.218    -0.078    -0.073 -0.2975 -0.2125  0.9308
              Bcc     0.0052     0.701     0.250     0.234  0.2172  0.9343  0.2828
 
              Baa    -0.0486    -6.527    -2.329    -2.177 -0.5174  0.8552 -0.0315
    17 C(13)  Bbb    -0.0470    -6.302    -2.249    -2.102  0.8109  0.4782 -0.3373
              Bcc     0.0956    12.829     4.578     4.279  0.2734  0.2001  0.9409
 
              Baa    -0.0703    -9.434    -3.366    -3.147  0.4362 -0.1291  0.8905
    18 C(13)  Bbb     0.0311     4.180     1.492     1.394  0.6768  0.6992 -0.2302
              Bcc     0.0392     5.254     1.875     1.753 -0.5929  0.7032  0.3924
 
              Baa    -0.0542    -7.272    -2.595    -2.426  0.1718  0.4376  0.8826
    19 C(13)  Bbb     0.0235     3.152     1.125     1.051 -0.4740  0.8221 -0.3154
              Bcc     0.0307     4.120     1.470     1.374  0.8636  0.3642 -0.3487
 
              Baa    -0.1116   -14.977    -5.344    -4.996  0.3228  0.8232  0.4670
    20 C(13)  Bbb     0.0483     6.487     2.315     2.164 -0.5849 -0.2144  0.7822
              Bcc     0.0633     8.490     3.029     2.832  0.7441 -0.5256  0.4123
 
              Baa    -0.0233    -3.124    -1.115    -1.042 -0.4727  0.6962 -0.5402
    21 C(13)  Bbb    -0.0201    -2.701    -0.964    -0.901  0.8572  0.2211 -0.4652
              Bcc     0.0434     5.825     2.079     1.943  0.2044  0.6829  0.7013
 
              Baa    -0.0525    -7.049    -2.515    -2.351  0.5161  0.8485 -0.1166
    22 C(13)  Bbb     0.0195     2.618     0.934     0.873  0.7597 -0.3907  0.5198
              Bcc     0.0330     4.430     1.581     1.478 -0.3955  0.3568  0.8463
 
              Baa    -0.1634   -21.929    -7.825    -7.315 -0.0636 -0.1337  0.9890
    23 C(13)  Bbb    -0.1576   -21.142    -7.544    -7.052  0.9132 -0.4076  0.0036
              Bcc     0.3210    43.071    15.369    14.367  0.4026  0.9033  0.1480
 
              Baa    -0.0284    -3.808    -1.359    -1.270  0.9363 -0.2469  0.2497
    24 C(13)  Bbb    -0.0272    -3.648    -1.302    -1.217  0.0014  0.7137  0.7004
              Bcc     0.0556     7.456     2.660     2.487 -0.3512 -0.6554  0.6686
 
              Baa    -0.0496    -6.656    -2.375    -2.220  0.8098 -0.4425  0.3852
    25 C(13)  Bbb    -0.0468    -6.284    -2.242    -2.096  0.2998  0.8765  0.3766
              Bcc     0.0964    12.940     4.617     4.316 -0.5043 -0.1895  0.8425
 
              Baa    -0.0244    -3.271    -1.167    -1.091 -0.3543 -0.4538  0.8176
    26 C(13)  Bbb     0.0104     1.402     0.500     0.468  0.7770  0.3436  0.5274
              Bcc     0.0139     1.870     0.667     0.624 -0.5203  0.8222  0.2309
 
              Baa    -0.0051    -0.689    -0.246    -0.230  0.9753  0.1701  0.1411
    27 C(13)  Bbb    -0.0032    -0.428    -0.153    -0.143 -0.0865 -0.2938  0.9519
              Bcc     0.0083     1.117     0.399     0.373 -0.2034  0.9406  0.2719
 
              Baa    -0.0019    -0.249    -0.089    -0.083  0.8801  0.1228 -0.4586
    28 C(13)  Bbb    -0.0003    -0.040    -0.014    -0.013  0.4332 -0.6028  0.6700
              Bcc     0.0022     0.289     0.103     0.096  0.1942  0.7884  0.5838
 
              Baa    -0.0040    -0.537    -0.192    -0.179  0.0641 -0.3851  0.9206
    29 C(13)  Bbb    -0.0030    -0.406    -0.145    -0.135  0.7852  0.5888  0.1916
              Bcc     0.0070     0.943     0.337     0.315 -0.6159  0.7106  0.3402
 
              Baa    -0.0012    -0.156    -0.056    -0.052 -0.3068  0.7590  0.5743
    30 C(13)  Bbb     0.0003     0.046     0.016     0.015  0.9416  0.1540  0.2995
              Bcc     0.0008     0.110     0.039     0.037 -0.1388 -0.6327  0.7619
 
              Baa    -0.0006    -0.083    -0.030    -0.028  0.2848 -0.5903  0.7553
    31 C(13)  Bbb    -0.0002    -0.025    -0.009    -0.008  0.7303 -0.3768 -0.5698
              Bcc     0.0008     0.108     0.039     0.036  0.6210  0.7138  0.3238
 
              Baa    -0.0184    -2.474    -0.883    -0.825 -0.0764  0.7168 -0.6931
    32 C(13)  Bbb     0.0068     0.915     0.326     0.305 -0.4702  0.5871  0.6590
              Bcc     0.0116     1.559     0.556     0.520  0.8793  0.3762  0.2922
 
              Baa    -0.0264    -3.546    -1.265    -1.183  0.4059  0.8633  0.2998
    33 C(13)  Bbb    -0.0248    -3.327    -1.187    -1.110  0.9005 -0.3218 -0.2926
              Bcc     0.0512     6.873     2.452     2.293  0.1561 -0.3888  0.9080
 
              Baa    -0.0136    -1.824    -0.651    -0.608  0.9315 -0.3259 -0.1614
    34 C(13)  Bbb    -0.0129    -1.731    -0.618    -0.577  0.2558  0.2717  0.9278
              Bcc     0.0265     3.555     1.268     1.186  0.2586  0.9055 -0.3364
 
              Baa    -0.0625    -8.384    -2.992    -2.797  0.6978  0.7003 -0.1501
    35 C(13)  Bbb    -0.0608    -8.153    -2.909    -2.720  0.7159 -0.6758  0.1754
              Bcc     0.1232    16.537     5.901     5.516 -0.0214  0.2299  0.9730
 
              Baa    -0.0336    -4.511    -1.610    -1.505 -0.0983 -0.1689  0.9807
    36 C(13)  Bbb     0.0150     2.018     0.720     0.673  0.9664  0.2190  0.1346
              Bcc     0.0186     2.493     0.890     0.832 -0.2375  0.9610  0.1417
 
              Baa    -0.0373    -5.011    -1.788    -1.672 -0.3146  0.3200  0.8937
    37 C(13)  Bbb     0.0158     2.126     0.758     0.709  0.6392  0.7675 -0.0498
              Bcc     0.0215     2.886     1.030     0.963  0.7018 -0.5555  0.4460
 
              Baa    -0.0688    -9.234    -3.295    -3.080 -0.0622  0.7783  0.6248
    38 C(13)  Bbb     0.0332     4.451     1.588     1.485  0.9706 -0.0988  0.2196
              Bcc     0.0356     4.783     1.707     1.595 -0.2326 -0.6201  0.7492
 
              Baa    -0.0437    -5.870    -2.095    -1.958  0.6586  0.7203 -0.2175
    39 C(13)  Bbb    -0.0412    -5.524    -1.971    -1.843  0.6371 -0.3801  0.6705
              Bcc     0.0849    11.394     4.066     3.800 -0.4004  0.5802  0.7093
 
              Baa    -0.0728    -9.768    -3.486    -3.258  0.0723  0.9971  0.0245
    40 C(13)  Bbb     0.0281     3.770     1.345     1.258  0.0288 -0.0267  0.9992
              Bcc     0.0447     5.998     2.140     2.001  0.9970 -0.0716 -0.0307
 
              Baa    -0.0145    -1.946    -0.694    -0.649  0.1122  0.4323  0.8947
    41 C(13)  Bbb    -0.0124    -1.667    -0.595    -0.556  0.9651  0.1669 -0.2016
              Bcc     0.0269     3.613     1.289     1.205 -0.2365  0.8862 -0.3985
 
              Baa    -0.0886   -11.886    -4.241    -3.965 -0.1274 -0.3248  0.9372
    42 C(13)  Bbb    -0.0829   -11.130    -3.972    -3.713  0.9753  0.1306  0.1779
              Bcc     0.1715    23.017     8.213     7.678 -0.1802  0.9367  0.3001
 
              Baa    -0.0080    -1.080    -0.385    -0.360 -0.4884  0.8653 -0.1126
    43 C(13)  Bbb     0.0023     0.310     0.111     0.103  0.6916  0.4625  0.5547
              Bcc     0.0057     0.769     0.274     0.257 -0.5321 -0.1931  0.8244
 
              Baa    -0.0021    -0.280    -0.100    -0.093 -0.6390 -0.3491  0.6854
    44 C(13)  Bbb     0.0001     0.014     0.005     0.005 -0.2380  0.9371  0.2554
              Bcc     0.0020     0.266     0.095     0.089  0.7314 -0.0001  0.6819
 
              Baa    -0.0016    -0.210    -0.075    -0.070 -0.2306  0.9428 -0.2408
    45 C(13)  Bbb     0.0003     0.039     0.014     0.013  0.9448  0.1577 -0.2874
              Bcc     0.0013     0.171     0.061     0.057  0.2329  0.2938  0.9271
 
              Baa    -0.0050    -0.673    -0.240    -0.224  0.3706 -0.5726  0.7313
    46 C(13)  Bbb     0.0024     0.325     0.116     0.108  0.6658 -0.3853 -0.6390
              Bcc     0.0026     0.348     0.124     0.116  0.6476  0.7237  0.2384
 
              Baa    -0.0005    -0.061    -0.022    -0.020 -0.6150  0.7442 -0.2606
    47 C(13)  Bbb    -0.0004    -0.051    -0.018    -0.017 -0.5548 -0.1735  0.8137
              Bcc     0.0008     0.112     0.040     0.037  0.5603  0.6450  0.5196
 
              Baa    -0.0044    -0.596    -0.213    -0.199  0.1178  0.3491  0.9296
    48 C(13)  Bbb     0.0019     0.251     0.089     0.084 -0.2543  0.9155 -0.3116
              Bcc     0.0026     0.346     0.123     0.115  0.9599  0.1997 -0.1967
 
              Baa    -0.0050    -0.666    -0.238    -0.222 -0.4077  0.0715  0.9103
    49 C(13)  Bbb    -0.0039    -0.523    -0.187    -0.174  0.7747 -0.5005  0.3863
              Bcc     0.0089     1.189     0.424     0.397  0.4833  0.8628  0.1487
 
              Baa    -0.0075    -1.012    -0.361    -0.338  0.4882  0.7402  0.4623
    50 C(13)  Bbb     0.0035     0.465     0.166     0.155  0.7589 -0.0985 -0.6437
              Bcc     0.0041     0.547     0.195     0.182 -0.4309  0.6651 -0.6098
 
              Baa    -0.0141    -1.891    -0.675    -0.631  0.4259  0.7252 -0.5410
    51 C(13)  Bbb     0.0066     0.891     0.318     0.297  0.6332  0.1881  0.7508
              Bcc     0.0075     1.000     0.357     0.334 -0.6462  0.6623  0.3791
 
              Baa    -0.0094    -1.256    -0.448    -0.419  0.4344  0.5478  0.7150
    52 C(13)  Bbb    -0.0084    -1.126    -0.402    -0.375  0.7419 -0.6678  0.0609
              Bcc     0.0177     2.382     0.850     0.794 -0.5108 -0.5039  0.6965
 
              Baa    -0.0026    -0.343    -0.122    -0.114  0.4047  0.6212  0.6711
    53 C(13)  Bbb    -0.0010    -0.135    -0.048    -0.045 -0.3379  0.7835 -0.5215
              Bcc     0.0036     0.478     0.170     0.159  0.8498  0.0157 -0.5269
 
              Baa    -0.0055    -0.742    -0.265    -0.248  0.6303  0.7596 -0.1604
    54 C(13)  Bbb     0.0024     0.323     0.115     0.108  0.1440  0.0887  0.9856
              Bcc     0.0031     0.420     0.150     0.140  0.7629 -0.6443 -0.0535
 
              Baa    -0.0121    -1.621    -0.579    -0.541  0.8978 -0.0074 -0.4403
    55 C(13)  Bbb     0.0058     0.778     0.278     0.259  0.4203 -0.2837  0.8619
              Bcc     0.0063     0.844     0.301     0.281  0.1313  0.9589  0.2516
 
              Baa    -0.0029    -0.384    -0.137    -0.128 -0.2957  0.6513  0.6988
    56 C(13)  Bbb    -0.0025    -0.337    -0.120    -0.112  0.4875 -0.5262  0.6967
              Bcc     0.0054     0.721     0.257     0.241  0.8215  0.5467 -0.1619
 
              Baa    -0.0064    -0.854    -0.305    -0.285 -0.1025 -0.2003  0.9744
    57 C(13)  Bbb    -0.0050    -0.668    -0.238    -0.223  0.5077  0.8318  0.2244
              Bcc     0.0113     1.522     0.543     0.508  0.8554 -0.5177 -0.0164
 
              Baa    -0.0158    -2.117    -0.755    -0.706 -0.2286  0.9624  0.1464
    58 C(13)  Bbb     0.0031     0.410     0.146     0.137 -0.3549 -0.2224  0.9081
              Bcc     0.0127     1.707     0.609     0.569  0.9065  0.1556  0.3924
 
              Baa    -0.0325    -4.357    -1.555    -1.453 -0.4543 -0.0473  0.8896
    59 C(13)  Bbb    -0.0305    -4.092    -1.460    -1.365  0.6069  0.7147  0.3478
              Bcc     0.0630     8.449     3.015     2.818 -0.6522  0.6979 -0.2960
 
              Baa    -0.0038    -0.512    -0.183    -0.171 -0.1520  0.8018 -0.5780
    60 C(13)  Bbb    -0.0015    -0.203    -0.072    -0.068  0.4722  0.5726  0.6702
              Bcc     0.0053     0.715     0.255     0.238  0.8683 -0.1710 -0.4656
 
              Baa    -0.0041    -0.555    -0.198    -0.185 -0.6151 -0.4211  0.6665
    61 C(13)  Bbb    -0.0034    -0.451    -0.161    -0.150 -0.2851  0.9070  0.3099
              Bcc     0.0075     1.006     0.359     0.336  0.7351 -0.0006  0.6780
 
              Baa    -0.0031    -0.417    -0.149    -0.139  0.5145  0.1538  0.8436
    62 C(13)  Bbb     0.0014     0.191     0.068     0.064  0.8099 -0.4105 -0.4190
              Bcc     0.0017     0.225     0.080     0.075  0.2819  0.8988 -0.3357
 
              Baa    -0.0043    -0.584    -0.208    -0.195 -0.6620  0.0801  0.7453
    63 C(13)  Bbb    -0.0040    -0.536    -0.191    -0.179 -0.3159  0.8719 -0.3743
              Bcc     0.0083     1.119     0.399     0.373  0.6797  0.4832  0.5518
 
              Baa    -0.0050    -0.667    -0.238    -0.222  0.9226  0.3323  0.1959
    64 C(13)  Bbb     0.0019     0.251     0.089     0.084 -0.1459 -0.1694  0.9747
              Bcc     0.0031     0.416     0.148     0.139 -0.3570  0.9278  0.1078
 
              Baa    -0.0083    -1.116    -0.398    -0.372  0.7990 -0.5206  0.3010
    65 C(13)  Bbb     0.0027     0.359     0.128     0.120 -0.3030  0.0839  0.9493
              Bcc     0.0056     0.756     0.270     0.252  0.5195  0.8497  0.0907
 
              Baa    -0.0134    -1.804    -0.644    -0.602 -0.2143 -0.2511  0.9439
    66 C(13)  Bbb    -0.0128    -1.718    -0.613    -0.573  0.0422  0.9631  0.2658
              Bcc     0.0262     3.522     1.257     1.175  0.9759 -0.0968  0.1958
 
              Baa    -0.0576    -3.014    -1.075    -1.005  0.2104 -0.0551  0.9761
    67 Cl(35) Bbb    -0.0520    -2.723    -0.972    -0.908 -0.4806  0.8636  0.1524
              Bcc     0.1096     5.737     2.047     1.914  0.8513  0.5012 -0.1553
 
              Baa    -0.0064    -0.334    -0.119    -0.111  0.6723  0.6727  0.3090
    68 Cl(35) Bbb    -0.0045    -0.234    -0.083    -0.078  0.2252 -0.5834  0.7803
              Bcc     0.0108     0.568     0.203     0.189  0.7052 -0.4550 -0.5437
 
              Baa    -0.0298    -1.559    -0.556    -0.520 -0.5936  0.6788  0.4322
    69 Cl(35) Bbb     0.0114     0.596     0.213     0.199  0.8008  0.5511  0.2345
              Bcc     0.0184     0.963     0.344     0.321  0.0790 -0.4853  0.8708
 
              Baa    -0.0513    -2.684    -0.958    -0.895  0.9238 -0.0272  0.3820
    70 Cl(35) Bbb    -0.0425    -2.224    -0.794    -0.742 -0.3830 -0.0594  0.9219
              Bcc     0.0938     4.907     1.751     1.637  0.0024  0.9979  0.0653
 
              Baa    -0.0096    -0.501    -0.179    -0.167 -0.4846 -0.5771  0.6573
    71 Cl(35) Bbb    -0.0090    -0.471    -0.168    -0.157  0.8229 -0.0460  0.5663
              Bcc     0.0186     0.972     0.347     0.324 -0.2966  0.8154  0.4972
 
              Baa    -0.0062    -0.326    -0.116    -0.109 -0.1977  0.7443  0.6379
    72 Cl(35) Bbb     0.0028     0.145     0.052     0.048  0.6511  0.5862 -0.4821
              Bcc     0.0035     0.181     0.064     0.060  0.7328 -0.3201  0.6005
 
              Baa    -0.0269    -1.410    -0.503    -0.470  0.6831  0.5851 -0.4370
    73 Cl(35) Bbb    -0.0237    -1.238    -0.442    -0.413  0.7073 -0.3810  0.5955
              Bcc     0.0506     2.649     0.945     0.883 -0.1820  0.7159  0.6741
 
              Baa    -0.0175    -0.916    -0.327    -0.305 -0.5725  0.4901  0.6573
    74 Cl(35) Bbb     0.0032     0.167     0.060     0.056  0.6943  0.7162  0.0707
              Bcc     0.0143     0.749     0.267     0.250  0.4361 -0.4969  0.7503
 
              Baa    -0.1192    -6.241    -2.227    -2.082  0.7121 -0.6682  0.2154
    75 Cl(35) Bbb    -0.1044    -5.465    -1.950    -1.823 -0.0209  0.2864  0.9579
              Bcc     0.2237    11.706     4.177     3.905  0.7018  0.6866 -0.1900
 

 ---------------------------------------------------------------------------------

 No NMR shielding tensors so no spin-rotation constants.
 Leave Link  601 at Thu Jul 14 15:23:51 2022, MaxMem=  1342177280 cpu:             117.5 elap:               2.7
 (Enter /home/mkliu/g16/l9999.exe)
 1\1\GINC-NODE06\FOpt\UB3LYP\6-311G(d,p)\C66Cl9(2)\MKLIU\14-Jul-2022\0\
 \#P opt b3lyp/6-311G(d, p) empiricaldispersion=GD3\\force\\0,2\C,-1.36
 91862094,1.8807345663,-3.972259493\C,0.1875539575,2.3032269223,-4.1159
 635971\C,0.9525335094,0.8798548758,-4.3026043753\C,-1.3074827245,0.402
 3915181,-3.8642284078\C,-0.1022592295,-0.1710270872,-4.1710272389\C,-2
 .1881505283,-0.1335886,-2.9182566211\C,-2.1992204917,2.2746697635,-2.6
 699246111\C,-2.7373772936,0.9190421339,-2.1630782521\C,-1.3990765461,2
 .8952205342,-1.5464850163\C,0.8703032173,2.9225152021,-2.7900708191\C,
 -0.0281782615,3.213367336,-1.5971049503\C,1.8034767863,0.7093050181,-3
 .0655646516\C,1.8358445636,1.8500093634,-2.2967318725\C,2.1751105041,-
 0.5354482714,-2.5269838445\C,0.177150339,-1.4234564158,-3.6488363007\C
 ,1.5770360549,-1.7992257323,-3.1714735211\C,-1.9716145556,-1.434429253
 9,-2.390503559\C,-0.7913089161,-2.0874831488,-2.8586913306\C,-2.505629
 7378,-1.7479797381,-1.0802532046\C,-3.1395643171,0.6909494857,-0.83759
 60082\C,-3.1204042866,-0.6745967599,-0.2958551878\C,-2.0477707254,2.84
 60717121,-0.299314806\C,-3.0012148323,1.7910716293,0.0518806058\C,-1.3
 971021974,3.2470892893,0.8888054701\C,0.6566558746,3.4713924167,-0.395
 7235916\C,-0.0270806424,3.5213278245,0.8323708612\C,2.3913592249,1.830
 9848631,-1.0111491685\C,2.107418462,3.0326454402,-0.1279496189\C,2.783
 9935785,-0.5713089073,-1.2594903227\C,2.9257090596,0.6294217005,-0.509
 8748988\C,3.1119372123,-1.9340894387,-0.6240416971\C,1.2789848191,-2.8
 258235137,-2.1035799152\C,-0.1311460973,-3.0575053377,-2.0317259365\C,
 2.0295028478,-2.9466184486,-0.9746274552\C,-1.9583300926,-2.8649103822
 ,-0.3993717596\C,-0.7325885192,-3.4883675181,-0.8651579061\C,-1.951214
 805,-2.9425575088,1.0320956469\C,-3.1743985074,-0.8235335012,1.1104167
 406\C,-2.5611635394,-1.944307407,1.7766153071\C,-2.9295022357,1.595979
 9109,1.4624725206\C,-1.9467008574,2.5102963779,2.009708178\C,-3.054740
 089,0.316600577,1.9967742678\C,-1.1317803937,2.1157793432,3.0571367748
 \C,0.8296127239,3.0759657148,1.9137234662\C,2.0574547881,2.6481336054,
 1.3304424311\C,0.2938378583,2.4140990248,3.01492756\C,3.4704814266,0.5
 938982013,0.9236295518\C,2.7129803989,1.5606519344,1.8217022416\C,3.00
 47231427,-1.8853524921,0.8891670522\C,3.1846788696,-0.735749697,1.5968
 587831\C,1.4449188738,-3.4792435977,0.2194026122\C,0.0826149138,-3.800
 3564018,0.2740055892\C,-0.6810862907,-3.5012873392,1.4633273106\C,2.07
 94933547,-2.8741331394,1.3623224818\C,-0.0535959602,-2.9916193751,2.59
 31215011\C,1.3632235467,-2.6799325551,2.5464980035\C,-1.9562274198,-1.
 4798836219,3.00947993\C,-2.258260868,-0.074125036,3.1407647714\C,-1.29
 43333067,0.8024226013,3.6517596745\C,-0.7071711682,-1.9722921487,3.393
 1544093\C,0.9977343172,1.2931025676,3.5680876395\C,2.1875950335,0.8750
 945919,2.9629007595\C,2.4797768706,-0.5304799071,2.828486777\C,1.57981
 72584,-1.4833592431,3.310037478\C,0.0205319236,0.3017963719,3.99072837
 34\C,0.3082792132,-1.0551945909,3.8673484488\Cl,-2.3348486877,2.189471
 9888,-5.4872429714\Cl,0.4093273877,3.3744405845,-5.5213888935\Cl,1.962
 7996395,0.7180007262,-5.7951627397\Cl,2.6675084441,-2.4989607553,-4.46
 82530151\Cl,4.7910477041,-2.4608068456,-1.1700779183\Cl,5.2783582915,0
 .9637127071,0.874517685\Cl,3.4129492203,4.3299608596,-0.2927255365\Cl,
 1.7833049914,4.4728335319,-3.1514492662\Cl,-3.5937441554,3.4397363206,
 -2.9924407925\\Version=ES64L-G16RevA.03\State=2-A\HF=-6657.4535959\S2=
 0.795449\S2-1=0.\S2A=0.751888\RMSD=7.062e-09\RMSF=3.594e-05\Dipole=-1.
 3196231,-1.0802967,1.6013593\Quadrupole=-4.9486716,2.0101455,2.9385261
 ,3.5415418,-1.6662679,2.1924848\PG=C01 [X(C66Cl9)]\\@


 I WANT IT ALL - RICH, THIN, AND CHOCOLATE.
 Job cpu time:       5 days  9 hours 13 minutes  2.9 seconds.
 Elapsed time:       0 days  2 hours 41 minutes 46.9 seconds.
 File lengths (MBytes):  RWF=   2194 Int=      0 D2E=      0 Chk=    198 Scr=      1
 Normal termination of Gaussian 16 at Thu Jul 14 15:23:53 2022.
