 Entering Gaussian System, Link 0=g16
 Input=dr1jeclijy03k_addon_9.gjf
 Output=dr1jeclijy03k_addon_9.log
 Initial command:
 /home/mkliu/g16/l1.exe "/data/scratch/Gau-6965.inp" -scrdir="/data/scratch/"
 Entering Link 1 = /home/mkliu/g16/l1.exe PID=      6966.
  
 Copyright (c) 1988,1990,1992,1993,1995,1998,2003,2009,2016,
            Gaussian, Inc.  All Rights Reserved.
  
 This is part of the Gaussian(R) 16 program.  It is based on
 the Gaussian(R) 09 system (copyright 2009, Gaussian, Inc.),
 the Gaussian(R) 03 system (copyright 2003, Gaussian, Inc.),
 the Gaussian(R) 98 system (copyright 1998, Gaussian, Inc.),
 the Gaussian(R) 94 system (copyright 1995, Gaussian, Inc.),
 the Gaussian 92(TM) system (copyright 1992, Gaussian, Inc.),
 the Gaussian 90(TM) system (copyright 1990, Gaussian, Inc.),
 the Gaussian 88(TM) system (copyright 1988, Gaussian, Inc.),
 the Gaussian 86(TM) system (copyright 1986, Carnegie Mellon
 University), and the Gaussian 82(TM) system (copyright 1983,
 Carnegie Mellon University). Gaussian is a federally registered
 trademark of Gaussian, Inc.
  
 This software contains proprietary and confidential information,
 including trade secrets, belonging to Gaussian, Inc.
  
 This software is provided under written license and may be
 used, copied, transmitted, or stored only in accord with that
 written license.
  
 The following legend is applicable only to US Government
 contracts under FAR:
  
                    RESTRICTED RIGHTS LEGEND
  
 Use, reproduction and disclosure by the US Government is
 subject to restrictions as set forth in subparagraphs (a)
 and (c) of the Commercial Computer Software - Restricted
 Rights clause in FAR 52.227-19.
  
 Gaussian, Inc.
 340 Quinnipiac St., Bldg. 40, Wallingford CT 06492
  
  
 ---------------------------------------------------------------
 Warning -- This program may not be used in any manner that
 competes with the business of Gaussian, Inc. or will provide
 assistance to any competitor of Gaussian, Inc.  The licensee
 of this program is prohibited from giving any competitor of
 Gaussian, Inc. access to this program.  By using this program,
 the user acknowledges that Gaussian, Inc. is engaged in the
 business of creating and licensing software in the field of
 computational chemistry and represents and warrants to the
 licensee that it is not a competitor of Gaussian, Inc. and that
 it will not use this program in any manner prohibited above.
 ---------------------------------------------------------------
  

 Cite this work as:
 Gaussian 16, Revision A.03,
 M. J. Frisch, G. W. Trucks, H. B. Schlegel, G. E. Scuseria, 
 M. A. Robb, J. R. Cheeseman, G. Scalmani, V. Barone, 
 G. A. Petersson, H. Nakatsuji, X. Li, M. Caricato, A. V. Marenich, 
 J. Bloino, B. G. Janesko, R. Gomperts, B. Mennucci, H. P. Hratchian, 
 J. V. Ortiz, A. F. Izmaylov, J. L. Sonnenberg, D. Williams-Young, 
 F. Ding, F. Lipparini, F. Egidi, J. Goings, B. Peng, A. Petrone, 
 T. Henderson, D. Ranasinghe, V. G. Zakrzewski, J. Gao, N. Rega, 
 G. Zheng, W. Liang, M. Hada, M. Ehara, K. Toyota, R. Fukuda, 
 J. Hasegawa, M. Ishida, T. Nakajima, Y. Honda, O. Kitao, H. Nakai, 
 T. Vreven, K. Throssell, J. A. Montgomery, Jr., J. E. Peralta, 
 F. Ogliaro, M. J. Bearpark, J. J. Heyd, E. N. Brothers, K. N. Kudin, 
 V. N. Staroverov, T. A. Keith, R. Kobayashi, J. Normand, 
 K. Raghavachari, A. P. Rendell, J. C. Burant, S. S. Iyengar, 
 J. Tomasi, M. Cossi, J. M. Millam, M. Klene, C. Adamo, R. Cammi, 
 J. W. Ochterski, R. L. Martin, K. Morokuma, O. Farkas, 
 J. B. Foresman, and D. J. Fox, Gaussian, Inc., Wallingford CT, 2016.
 
 ******************************************
 Gaussian 16:  ES64L-G16RevA.03 25-Dec-2016
                14-Jul-2022 
 ******************************************
 %mem=10GB
 %chk=dr1jeclijy03k_addon_9.chk
 %nprocshared=48
 Will use up to   48 processors via shared memory.
 -------------------------------------------------
 #P opt b3lyp/6-311G(d, p) empiricaldispersion=GD3
 -------------------------------------------------
 1/18=20,19=15,26=3,38=1/1,3;
 2/9=110,12=2,17=6,18=5,40=1/2;
 3/5=4,6=6,7=101,11=2,25=1,30=1,71=1,74=-5,124=31/1,2,3;
 4//1;
 5/5=2,38=5/2;
 6/7=2,8=2,9=2,10=2,28=1/1;
 7//1,2,3,16;
 1/18=20,19=15,26=3/3(2);
 2/9=110/2;
 99//99;
 2/9=110/2;
 3/5=4,6=6,7=101,11=2,25=1,30=1,71=1,74=-5,124=31/1,2,3;
 4/5=5,16=3,69=1/1;
 5/5=2,38=5/2;
 7//1,2,3,16;
 1/18=20,19=15,26=3/3(-5);
 2/9=110/2;
 6/7=2,8=2,9=2,10=2,19=2,28=1/1;
 99/9=1/99;
 Leave Link    1 at Thu Jul 14 20:00:34 2022, MaxMem=  1342177280 cpu:               2.1 elap:               0.1
 (Enter /home/mkliu/g16/l101.exe)
 -----
 force
 -----
 Symbolic Z-matrix:
 Charge =  0 Multiplicity = 2
 C                    -1.3001    1.89229  -3.95879 
 C                     0.2217    2.22883  -3.94676 
 C                     1.01675   0.91262  -4.33773 
 C                    -1.21869   0.42302  -3.86128 
 C                    -0.01183  -0.1377   -4.10787 
 C                    -2.04169  -0.12151  -2.83971 
 C                    -2.16677   2.26265  -2.71541 
 C                    -2.59711   0.92386  -2.11297 
 C                    -1.46895   2.89519  -1.5407 
 C                     0.71192   2.49297  -2.5819 
 C                    -0.05781   3.10514  -1.5605 
 C                     2.18906   0.77378  -3.29809 
 C                     1.86656   1.83127  -2.29036 
 C                     2.30397  -0.5495   -2.5771 
 C                     0.21667  -1.40545  -3.58647 
 C                     1.44223  -1.61229  -2.90498 
 C                    -1.87298  -1.38865  -2.30443 
 C                    -0.87222  -2.27666  -3.01043 
 C                    -2.38934  -1.6669   -1.03627 
 C                    -3.0233    0.69277  -0.82158 
 C                    -2.97     -0.6185   -0.30006 
 C                    -2.08741   2.84905  -0.31217 
 C                    -3.22114   1.91193   0.05199 
 C                    -1.38686   3.209     0.88281 
 C                     0.63318   3.33391  -0.3895 
 C                    -0.04107   3.49713   0.85059 
 C                     2.45828   1.83785  -1.00132 
 C                     1.9082    2.75353  -0.11992 
 C                     2.94956  -0.58258  -1.29569 
 C                     3.10106   0.64707  -0.51758 
 C                     2.91146  -1.78621  -0.56277 
 C                     1.25651  -2.73925  -2.03639 
 C                    -0.1281   -3.08844  -2.00194 
 C                     2.03704  -2.8623   -0.92459 
 C                    -2.09201  -3.03252  -0.43218 
 C                    -0.71313  -3.49019  -0.84737 
 C                    -1.92444  -2.91043   1.05345 
 C                    -3.3676   -0.84704   1.14598 
 C                    -2.51674  -1.92054   1.76602 
 C                    -2.91419   1.60416   1.48674 
 C                    -1.91497   2.4833    1.9948 
 C                    -3.00782   0.34605   1.98605 
 C                    -1.06952   2.10848   3.02491 
 C                     0.8379    3.09104   1.90345 
 C                     2.05429   2.63018   1.28652 
 C                     0.33504   2.41683   2.99163 
 C                     3.26991   0.56223   0.87235 
 C                     2.75039   1.55408   1.77961 
 C                     3.02835  -1.83438   0.85741 
 C                     3.22722  -0.68314   1.57615 
 C                     1.47657  -3.4571    0.25033 
 C                     0.11655  -3.7332    0.28689 
 C                    -0.6432   -3.41129   1.45112 
 C                     2.12999  -2.85233   1.36432 
 C                     0.01382  -2.9032    2.55596 
 C                     1.42269  -2.61706   2.52472 
 C                    -1.86179  -1.42819   2.93888 
 C                    -2.16239  -0.042     3.072 
 C                    -1.20929   0.81347   3.5948 
 C                    -0.62328  -1.89629   3.33007 
 C                     1.07817   1.31413   3.53941 
 C                     2.27552   0.9068    2.97031 
 C                     2.57533  -0.48596   2.84518 
 C                     1.6632   -1.42401   3.28922 
 C                     0.10481   0.33902   3.94311 
 C                     0.39418  -1.00449   3.8146 
 Cl                   -2.00694   2.40917  -5.51996 
 Cl                    0.62907   3.63244  -4.96066 
 Cl                    1.52203   0.9091   -6.03785 
 Cl                    3.78558   1.14934  -4.07202 
 Cl                   -3.59331   3.26246  -3.13869 
 Cl                   -4.89406   2.52546  -0.17258 
 Cl                   -5.13799  -1.22466   1.1682 
 Cl                   -3.41647  -4.15688  -0.92525 
 Cl                   -1.73459  -3.3471   -4.19643 
 
 ITRead=  0  0  0  0  0  0  0  0  0  0  0  0  0  0  0  0  0  0  0  0
 ITRead=  0  0  0  0  0  0  0  0  0  0  0  0  0  0  0  0  0  0  0  0
 ITRead=  0  0  0  0  0  0  0  0  0  0  0  0  0  0  0  0  0  0  0  0
 ITRead=  0  0  0  0  0  0  0  0  0  0  0  0  0  0  0
 MicOpt= -1 -1 -1 -1 -1 -1 -1 -1 -1 -1 -1 -1 -1 -1 -1 -1 -1 -1 -1 -1
 MicOpt= -1 -1 -1 -1 -1 -1 -1 -1 -1 -1 -1 -1 -1 -1 -1 -1 -1 -1 -1 -1
 MicOpt= -1 -1 -1 -1 -1 -1 -1 -1 -1 -1 -1 -1 -1 -1 -1 -1 -1 -1 -1 -1
 MicOpt= -1 -1 -1 -1 -1 -1 -1 -1 -1 -1 -1 -1 -1 -1 -1
 NAtoms=     75 NQM=       75 NQMF=       0 NMMI=      0 NMMIF=      0
                NMic=       0 NMicF=      0.
                    Isotopes and Nuclear Properties:
 (Nuclear quadrupole moments (NQMom) in fm**2, nuclear magnetic moments (NMagM)
  in nuclear magnetons)

  Atom         1           2           3           4           5           6           7           8           9          10
 IAtWgt=          12          12          12          12          12          12          12          12          12          12
 AtmWgt=  12.0000000  12.0000000  12.0000000  12.0000000  12.0000000  12.0000000  12.0000000  12.0000000  12.0000000  12.0000000
 NucSpn=           0           0           0           0           0           0           0           0           0           0
 AtZEff=  -0.0000000  -0.0000000  -0.0000000  -0.0000000  -0.0000000  -0.0000000  -0.0000000  -0.0000000  -0.0000000  -0.0000000
 NQMom=    0.0000000   0.0000000   0.0000000   0.0000000   0.0000000   0.0000000   0.0000000   0.0000000   0.0000000   0.0000000
 NMagM=    0.0000000   0.0000000   0.0000000   0.0000000   0.0000000   0.0000000   0.0000000   0.0000000   0.0000000   0.0000000
 AtZNuc=   6.0000000   6.0000000   6.0000000   6.0000000   6.0000000   6.0000000   6.0000000   6.0000000   6.0000000   6.0000000

  Atom        11          12          13          14          15          16          17          18          19          20
 IAtWgt=          12          12          12          12          12          12          12          12          12          12
 AtmWgt=  12.0000000  12.0000000  12.0000000  12.0000000  12.0000000  12.0000000  12.0000000  12.0000000  12.0000000  12.0000000
 NucSpn=           0           0           0           0           0           0           0           0           0           0
 AtZEff=  -0.0000000  -0.0000000  -0.0000000  -0.0000000  -0.0000000  -0.0000000  -0.0000000  -0.0000000  -0.0000000  -0.0000000
 NQMom=    0.0000000   0.0000000   0.0000000   0.0000000   0.0000000   0.0000000   0.0000000   0.0000000   0.0000000   0.0000000
 NMagM=    0.0000000   0.0000000   0.0000000   0.0000000   0.0000000   0.0000000   0.0000000   0.0000000   0.0000000   0.0000000
 AtZNuc=   6.0000000   6.0000000   6.0000000   6.0000000   6.0000000   6.0000000   6.0000000   6.0000000   6.0000000   6.0000000

  Atom        21          22          23          24          25          26          27          28          29          30
 IAtWgt=          12          12          12          12          12          12          12          12          12          12
 AtmWgt=  12.0000000  12.0000000  12.0000000  12.0000000  12.0000000  12.0000000  12.0000000  12.0000000  12.0000000  12.0000000
 NucSpn=           0           0           0           0           0           0           0           0           0           0
 AtZEff=  -0.0000000  -0.0000000  -0.0000000  -0.0000000  -0.0000000  -0.0000000  -0.0000000  -0.0000000  -0.0000000  -0.0000000
 NQMom=    0.0000000   0.0000000   0.0000000   0.0000000   0.0000000   0.0000000   0.0000000   0.0000000   0.0000000   0.0000000
 NMagM=    0.0000000   0.0000000   0.0000000   0.0000000   0.0000000   0.0000000   0.0000000   0.0000000   0.0000000   0.0000000
 AtZNuc=   6.0000000   6.0000000   6.0000000   6.0000000   6.0000000   6.0000000   6.0000000   6.0000000   6.0000000   6.0000000

  Atom        31          32          33          34          35          36          37          38          39          40
 IAtWgt=          12          12          12          12          12          12          12          12          12          12
 AtmWgt=  12.0000000  12.0000000  12.0000000  12.0000000  12.0000000  12.0000000  12.0000000  12.0000000  12.0000000  12.0000000
 NucSpn=           0           0           0           0           0           0           0           0           0           0
 AtZEff=  -0.0000000  -0.0000000  -0.0000000  -0.0000000  -0.0000000  -0.0000000  -0.0000000  -0.0000000  -0.0000000  -0.0000000
 NQMom=    0.0000000   0.0000000   0.0000000   0.0000000   0.0000000   0.0000000   0.0000000   0.0000000   0.0000000   0.0000000
 NMagM=    0.0000000   0.0000000   0.0000000   0.0000000   0.0000000   0.0000000   0.0000000   0.0000000   0.0000000   0.0000000
 AtZNuc=   6.0000000   6.0000000   6.0000000   6.0000000   6.0000000   6.0000000   6.0000000   6.0000000   6.0000000   6.0000000

  Atom        41          42          43          44          45          46          47          48          49          50
 IAtWgt=          12          12          12          12          12          12          12          12          12          12
 AtmWgt=  12.0000000  12.0000000  12.0000000  12.0000000  12.0000000  12.0000000  12.0000000  12.0000000  12.0000000  12.0000000
 NucSpn=           0           0           0           0           0           0           0           0           0           0
 AtZEff=  -0.0000000  -0.0000000  -0.0000000  -0.0000000  -0.0000000  -0.0000000  -0.0000000  -0.0000000  -0.0000000  -0.0000000
 NQMom=    0.0000000   0.0000000   0.0000000   0.0000000   0.0000000   0.0000000   0.0000000   0.0000000   0.0000000   0.0000000
 NMagM=    0.0000000   0.0000000   0.0000000   0.0000000   0.0000000   0.0000000   0.0000000   0.0000000   0.0000000   0.0000000
 AtZNuc=   6.0000000   6.0000000   6.0000000   6.0000000   6.0000000   6.0000000   6.0000000   6.0000000   6.0000000   6.0000000

  Atom        51          52          53          54          55          56          57          58          59          60
 IAtWgt=          12          12          12          12          12          12          12          12          12          12
 AtmWgt=  12.0000000  12.0000000  12.0000000  12.0000000  12.0000000  12.0000000  12.0000000  12.0000000  12.0000000  12.0000000
 NucSpn=           0           0           0           0           0           0           0           0           0           0
 AtZEff=  -0.0000000  -0.0000000  -0.0000000  -0.0000000  -0.0000000  -0.0000000  -0.0000000  -0.0000000  -0.0000000  -0.0000000
 NQMom=    0.0000000   0.0000000   0.0000000   0.0000000   0.0000000   0.0000000   0.0000000   0.0000000   0.0000000   0.0000000
 NMagM=    0.0000000   0.0000000   0.0000000   0.0000000   0.0000000   0.0000000   0.0000000   0.0000000   0.0000000   0.0000000
 AtZNuc=   6.0000000   6.0000000   6.0000000   6.0000000   6.0000000   6.0000000   6.0000000   6.0000000   6.0000000   6.0000000

  Atom        61          62          63          64          65          66          67          68          69          70
 IAtWgt=          12          12          12          12          12          12          35          35          35          35
 AtmWgt=  12.0000000  12.0000000  12.0000000  12.0000000  12.0000000  12.0000000  34.9688527  34.9688527  34.9688527  34.9688527
 NucSpn=           0           0           0           0           0           0           3           3           3           3
 AtZEff=  -0.0000000  -0.0000000  -0.0000000  -0.0000000  -0.0000000  -0.0000000  -0.0000000  -0.0000000  -0.0000000  -0.0000000
 NQMom=    0.0000000   0.0000000   0.0000000   0.0000000   0.0000000   0.0000000  -8.1650000  -8.1650000  -8.1650000  -8.1650000
 NMagM=    0.0000000   0.0000000   0.0000000   0.0000000   0.0000000   0.0000000   0.8218740   0.8218740   0.8218740   0.8218740
 AtZNuc=   6.0000000   6.0000000   6.0000000   6.0000000   6.0000000   6.0000000  17.0000000  17.0000000  17.0000000  17.0000000

  Atom        71          72          73          74          75
 IAtWgt=          35          35          35          35          35
 AtmWgt=  34.9688527  34.9688527  34.9688527  34.9688527  34.9688527
 NucSpn=           3           3           3           3           3
 AtZEff=  -0.0000000  -0.0000000  -0.0000000  -0.0000000  -0.0000000
 NQMom=   -8.1650000  -8.1650000  -8.1650000  -8.1650000  -8.1650000
 NMagM=    0.8218740   0.8218740   0.8218740   0.8218740   0.8218740
 AtZNuc=  17.0000000  17.0000000  17.0000000  17.0000000  17.0000000
 Leave Link  101 at Thu Jul 14 20:00:34 2022, MaxMem=  1342177280 cpu:              13.0 elap:               0.3
 (Enter /home/mkliu/g16/l103.exe)

 GradGradGradGradGradGradGradGradGradGradGradGradGradGradGradGradGradGrad
 Berny optimization.
 Initialization pass.
                           ----------------------------
                           !    Initial Parameters    !
                           ! (Angstroms and Degrees)  !
 --------------------------                            --------------------------
 ! Name  Definition              Value          Derivative Info.                !
 --------------------------------------------------------------------------------
 ! R1    R(1,2)                  1.5586         estimate D2E/DX2                !
 ! R2    R(1,4)                  1.4748         estimate D2E/DX2                !
 ! R3    R(1,7)                  1.5602         estimate D2E/DX2                !
 ! R4    R(1,67)                 1.79           estimate D2E/DX2                !
 ! R5    R(2,3)                  1.5866         estimate D2E/DX2                !
 ! R6    R(2,10)                 1.4741         estimate D2E/DX2                !
 ! R7    R(2,68)                 1.7788         estimate D2E/DX2                !
 ! R8    R(3,5)                  1.4879         estimate D2E/DX2                !
 ! R9    R(3,12)                 1.573          estimate D2E/DX2                !
 ! R10   R(3,69)                 1.7736         estimate D2E/DX2                !
 ! R11   R(4,5)                  1.3534         estimate D2E/DX2                !
 ! R12   R(4,6)                  1.4204         estimate D2E/DX2                !
 ! R13   R(5,15)                 1.3897         estimate D2E/DX2                !
 ! R14   R(6,8)                  1.389          estimate D2E/DX2                !
 ! R15   R(6,17)                 1.3859         estimate D2E/DX2                !
 ! R16   R(7,8)                  1.5299         estimate D2E/DX2                !
 ! R17   R(7,9)                  1.5057         estimate D2E/DX2                !
 ! R18   R(7,71)                 1.7927         estimate D2E/DX2                !
 ! R19   R(8,20)                 1.3794         estimate D2E/DX2                !
 ! R20   R(9,11)                 1.4268         estimate D2E/DX2                !
 ! R21   R(9,22)                 1.3762         estimate D2E/DX2                !
 ! R22   R(10,11)                1.4179         estimate D2E/DX2                !
 ! R23   R(10,13)                1.3624         estimate D2E/DX2                !
 ! R24   R(11,25)                1.3788         estimate D2E/DX2                !
 ! R25   R(12,13)                1.4959         estimate D2E/DX2                !
 ! R26   R(12,14)                1.5113         estimate D2E/DX2                !
 ! R27   R(12,70)                1.8135         estimate D2E/DX2                !
 ! R28   R(13,27)                1.4184         estimate D2E/DX2                !
 ! R29   R(14,16)                1.407          estimate D2E/DX2                !
 ! R30   R(14,29)                1.4352         estimate D2E/DX2                !
 ! R31   R(15,16)                1.4175         estimate D2E/DX2                !
 ! R32   R(15,18)                1.5088         estimate D2E/DX2                !
 ! R33   R(16,32)                1.4349         estimate D2E/DX2                !
 ! R34   R(17,18)                1.5128         estimate D2E/DX2                !
 ! R35   R(17,19)                1.3972         estimate D2E/DX2                !
 ! R36   R(18,33)                1.4932         estimate D2E/DX2                !
 ! R37   R(18,75)                1.8155         estimate D2E/DX2                !
 ! R38   R(19,21)                1.4065         estimate D2E/DX2                !
 ! R39   R(19,35)                1.5226         estimate D2E/DX2                !
 ! R40   R(20,21)                1.4122         estimate D2E/DX2                !
 ! R41   R(20,23)                1.5128         estimate D2E/DX2                !
 ! R42   R(21,38)                1.517          estimate D2E/DX2                !
 ! R43   R(22,23)                1.5153         estimate D2E/DX2                !
 ! R44   R(22,24)                1.4312         estimate D2E/DX2                !
 ! R45   R(23,40)                1.4991         estimate D2E/DX2                !
 ! R46   R(23,72)                1.796          estimate D2E/DX2                !
 ! R47   R(24,26)                1.3767         estimate D2E/DX2                !
 ! R48   R(24,41)                1.429          estimate D2E/DX2                !
 ! R49   R(25,26)                1.4209         estimate D2E/DX2                !
 ! R50   R(25,28)                1.4266         estimate D2E/DX2                !
 ! R51   R(26,44)                1.4304         estimate D2E/DX2                !
 ! R52   R(27,28)                1.3849         estimate D2E/DX2                !
 ! R53   R(27,30)                1.4371         estimate D2E/DX2                !
 ! R54   R(28,45)                1.4194         estimate D2E/DX2                !
 ! R55   R(29,30)                1.463          estimate D2E/DX2                !
 ! R56   R(29,31)                1.4097         estimate D2E/DX2                !
 ! R57   R(30,47)                1.4027         estimate D2E/DX2                !
 ! R58   R(31,34)                1.433          estimate D2E/DX2                !
 ! R59   R(31,49)                1.4258         estimate D2E/DX2                !
 ! R60   R(32,33)                1.4284         estimate D2E/DX2                !
 ! R61   R(32,34)                1.364          estimate D2E/DX2                !
 ! R62   R(33,36)                1.3552         estimate D2E/DX2                !
 ! R63   R(34,51)                1.4312         estimate D2E/DX2                !
 ! R64   R(35,36)                1.511          estimate D2E/DX2                !
 ! R65   R(35,37)                1.5            estimate D2E/DX2                !
 ! R66   R(35,74)                1.806          estimate D2E/DX2                !
 ! R67   R(36,52)                1.4262         estimate D2E/DX2                !
 ! R68   R(37,39)                1.3559         estimate D2E/DX2                !
 ! R69   R(37,53)                1.432          estimate D2E/DX2                !
 ! R70   R(38,39)                1.5036         estimate D2E/DX2                !
 ! R71   R(38,42)                1.5029         estimate D2E/DX2                !
 ! R72   R(38,73)                1.8104         estimate D2E/DX2                !
 ! R73   R(39,57)                1.4307         estimate D2E/DX2                !
 ! R74   R(40,41)                1.4246         estimate D2E/DX2                !
 ! R75   R(40,42)                1.3568         estimate D2E/DX2                !
 ! R76   R(41,43)                1.3843         estimate D2E/DX2                !
 ! R77   R(42,58)                1.4299         estimate D2E/DX2                !
 ! R78   R(43,46)                1.4384         estimate D2E/DX2                !
 ! R79   R(43,59)                1.4217         estimate D2E/DX2                !
 ! R80   R(44,45)                1.4396         estimate D2E/DX2                !
 ! R81   R(44,46)                1.3753         estimate D2E/DX2                !
 ! R82   R(45,48)                1.3732         estimate D2E/DX2                !
 ! R83   R(46,61)                1.4381         estimate D2E/DX2                !
 ! R84   R(47,48)                1.4411         estimate D2E/DX2                !
 ! R85   R(47,50)                1.4311         estimate D2E/DX2                !
 ! R86   R(48,62)                1.4361         estimate D2E/DX2                !
 ! R87   R(49,50)                1.3717         estimate D2E/DX2                !
 ! R88   R(49,54)                1.4492         estimate D2E/DX2                !
 ! R89   R(50,63)                1.4402         estimate D2E/DX2                !
 ! R90   R(51,52)                1.3882         estimate D2E/DX2                !
 ! R91   R(51,54)                1.4261         estimate D2E/DX2                !
 ! R92   R(52,53)                1.427          estimate D2E/DX2                !
 ! R93   R(53,55)                1.3822         estimate D2E/DX2                !
 ! R94   R(54,56)                1.3792         estimate D2E/DX2                !
 ! R95   R(55,56)                1.438          estimate D2E/DX2                !
 ! R96   R(55,60)                1.4209         estimate D2E/DX2                !
 ! R97   R(56,64)                1.4373         estimate D2E/DX2                !
 ! R98   R(57,58)                1.4246         estimate D2E/DX2                !
 ! R99   R(57,60)                1.3806         estimate D2E/DX2                !
 ! R100  R(58,59)                1.3833         estimate D2E/DX2                !
 ! R101  R(59,65)                1.4399         estimate D2E/DX2                !
 ! R102  R(60,66)                1.4371         estimate D2E/DX2                !
 ! R103  R(61,62)                1.3869         estimate D2E/DX2                !
 ! R104  R(61,65)                1.4357         estimate D2E/DX2                !
 ! R105  R(62,63)                1.4301         estimate D2E/DX2                !
 ! R106  R(63,64)                1.3817         estimate D2E/DX2                !
 ! R107  R(64,66)                1.4361         estimate D2E/DX2                !
 ! R108  R(65,66)                1.3803         estimate D2E/DX2                !
 ! A1    A(2,1,4)               99.248          estimate D2E/DX2                !
 ! A2    A(2,1,7)              119.0096         estimate D2E/DX2                !
 ! A3    A(2,1,67)             109.2651         estimate D2E/DX2                !
 ! A4    A(4,1,7)              102.3843         estimate D2E/DX2                !
 ! A5    A(4,1,67)             111.54           estimate D2E/DX2                !
 ! A6    A(7,1,67)             114.0268         estimate D2E/DX2                !
 ! A7    A(1,2,3)              107.9527         estimate D2E/DX2                !
 ! A8    A(1,2,10)             111.7487         estimate D2E/DX2                !
 ! A9    A(1,2,68)             112.929          estimate D2E/DX2                !
 ! A10   A(3,2,10)             102.1317         estimate D2E/DX2                !
 ! A11   A(3,2,68)             113.5398         estimate D2E/DX2                !
 ! A12   A(10,2,68)            108.0721         estimate D2E/DX2                !
 ! A13   A(2,3,5)              101.6028         estimate D2E/DX2                !
 ! A14   A(2,3,12)             106.4873         estimate D2E/DX2                !
 ! A15   A(2,3,69)             112.3713         estimate D2E/DX2                !
 ! A16   A(5,3,12)             110.5348         estimate D2E/DX2                !
 ! A17   A(5,3,69)             110.0969         estimate D2E/DX2                !
 ! A18   A(12,3,69)            114.8998         estimate D2E/DX2                !
 ! A19   A(1,4,5)              116.7402         estimate D2E/DX2                !
 ! A20   A(1,4,6)              113.4227         estimate D2E/DX2                !
 ! A21   A(5,4,6)              119.268          estimate D2E/DX2                !
 ! A22   A(3,5,4)              110.6167         estimate D2E/DX2                !
 ! A23   A(3,5,15)             126.0321         estimate D2E/DX2                !
 ! A24   A(4,5,15)             117.1428         estimate D2E/DX2                !
 ! A25   A(4,6,8)              108.6303         estimate D2E/DX2                !
 ! A26   A(4,6,17)             123.9029         estimate D2E/DX2                !
 ! A27   A(8,6,17)             122.3245         estimate D2E/DX2                !
 ! A28   A(1,7,8)              105.2093         estimate D2E/DX2                !
 ! A29   A(1,7,9)              117.6481         estimate D2E/DX2                !
 ! A30   A(1,7,71)             112.7207         estimate D2E/DX2                !
 ! A31   A(8,7,9)              100.9987         estimate D2E/DX2                !
 ! A32   A(8,7,71)             110.9279         estimate D2E/DX2                !
 ! A33   A(9,7,71)             108.5849         estimate D2E/DX2                !
 ! A34   A(6,8,7)              109.8824         estimate D2E/DX2                !
 ! A35   A(6,8,20)             119.1614         estimate D2E/DX2                !
 ! A36   A(7,8,20)             127.0261         estimate D2E/DX2                !
 ! A37   A(7,9,11)             120.6216         estimate D2E/DX2                !
 ! A38   A(7,9,22)             118.3021         estimate D2E/DX2                !
 ! A39   A(11,9,22)            117.502          estimate D2E/DX2                !
 ! A40   A(2,10,11)            124.3191         estimate D2E/DX2                !
 ! A41   A(2,10,13)            113.1387         estimate D2E/DX2                !
 ! A42   A(11,10,13)           121.0401         estimate D2E/DX2                !
 ! A43   A(9,11,10)            118.9056         estimate D2E/DX2                !
 ! A44   A(9,11,25)            120.5498         estimate D2E/DX2                !
 ! A45   A(10,11,25)           114.2905         estimate D2E/DX2                !
 ! A46   A(3,12,13)            102.8362         estimate D2E/DX2                !
 ! A47   A(3,12,14)            116.6951         estimate D2E/DX2                !
 ! A48   A(3,12,70)            110.8397         estimate D2E/DX2                !
 ! A49   A(13,12,14)           108.2989         estimate D2E/DX2                !
 ! A50   A(13,12,70)           109.3218         estimate D2E/DX2                !
 ! A51   A(14,12,70)           108.54           estimate D2E/DX2                !
 ! A52   A(10,13,12)           112.4516         estimate D2E/DX2                !
 ! A53   A(10,13,27)           123.079          estimate D2E/DX2                !
 ! A54   A(12,13,27)           121.7062         estimate D2E/DX2                !
 ! A55   A(12,14,16)           120.2404         estimate D2E/DX2                !
 ! A56   A(12,14,29)           118.7057         estimate D2E/DX2                !
 ! A57   A(16,14,29)           117.7852         estimate D2E/DX2                !
 ! A58   A(5,15,16)            117.1075         estimate D2E/DX2                !
 ! A59   A(5,15,18)            123.4578         estimate D2E/DX2                !
 ! A60   A(16,15,18)           110.8652         estimate D2E/DX2                !
 ! A61   A(14,16,15)           122.0984         estimate D2E/DX2                !
 ! A62   A(14,16,32)           122.1036         estimate D2E/DX2                !
 ! A63   A(15,16,32)           107.0813         estimate D2E/DX2                !
 ! A64   A(6,17,18)            115.9121         estimate D2E/DX2                !
 ! A65   A(6,17,19)            119.1862         estimate D2E/DX2                !
 ! A66   A(18,17,19)           123.4462         estimate D2E/DX2                !
 ! A67   A(15,18,17)           108.4608         estimate D2E/DX2                !
 ! A68   A(15,18,33)           102.2466         estimate D2E/DX2                !
 ! A69   A(15,18,75)           115.7117         estimate D2E/DX2                !
 ! A70   A(17,18,33)           109.4866         estimate D2E/DX2                !
 ! A71   A(17,18,75)           109.6781         estimate D2E/DX2                !
 ! A72   A(33,18,75)           110.9383         estimate D2E/DX2                !
 ! A73   A(17,19,21)           118.6332         estimate D2E/DX2                !
 ! A74   A(17,19,35)           117.8103         estimate D2E/DX2                !
 ! A75   A(21,19,35)           122.7852         estimate D2E/DX2                !
 ! A76   A(8,20,21)            119.3171         estimate D2E/DX2                !
 ! A77   A(8,20,23)            116.4874         estimate D2E/DX2                !
 ! A78   A(21,20,23)           122.6824         estimate D2E/DX2                !
 ! A79   A(19,21,20)           120.957          estimate D2E/DX2                !
 ! A80   A(19,21,38)           119.6597         estimate D2E/DX2                !
 ! A81   A(20,21,38)           118.8171         estimate D2E/DX2                !
 ! A82   A(9,22,23)            124.8548         estimate D2E/DX2                !
 ! A83   A(9,22,24)            121.1286         estimate D2E/DX2                !
 ! A84   A(23,22,24)           108.7304         estimate D2E/DX2                !
 ! A85   A(20,23,22)           105.1754         estimate D2E/DX2                !
 ! A86   A(20,23,40)           111.1257         estimate D2E/DX2                !
 ! A87   A(20,23,72)           108.9603         estimate D2E/DX2                !
 ! A88   A(22,23,40)           101.7575         estimate D2E/DX2                !
 ! A89   A(22,23,72)           117.1042         estimate D2E/DX2                !
 ! A90   A(40,23,72)           112.3661         estimate D2E/DX2                !
 ! A91   A(22,24,26)           120.771          estimate D2E/DX2                !
 ! A92   A(22,24,41)           109.9439         estimate D2E/DX2                !
 ! A93   A(26,24,41)           119.0634         estimate D2E/DX2                !
 ! A94   A(11,25,26)           121.4969         estimate D2E/DX2                !
 ! A95   A(11,25,28)           122.7448         estimate D2E/DX2                !
 ! A96   A(26,25,28)           107.8132         estimate D2E/DX2                !
 ! A97   A(24,26,25)           117.4035         estimate D2E/DX2                !
 ! A98   A(24,26,44)           121.6055         estimate D2E/DX2                !
 ! A99   A(25,26,44)           108.553          estimate D2E/DX2                !
 ! A100  A(13,27,28)           114.5679         estimate D2E/DX2                !
 ! A101  A(13,27,30)           119.254          estimate D2E/DX2                !
 ! A102  A(28,27,30)           120.7507         estimate D2E/DX2                !
 ! A103  A(25,28,27)           120.2464         estimate D2E/DX2                !
 ! A104  A(25,28,45)           108.3355         estimate D2E/DX2                !
 ! A105  A(27,28,45)           122.1612         estimate D2E/DX2                !
 ! A106  A(14,29,30)           120.1365         estimate D2E/DX2                !
 ! A107  A(14,29,31)           118.1445         estimate D2E/DX2                !
 ! A108  A(30,29,31)           116.3522         estimate D2E/DX2                !
 ! A109  A(27,30,29)           118.1052         estimate D2E/DX2                !
 ! A110  A(27,30,47)           115.945          estimate D2E/DX2                !
 ! A111  A(29,30,47)           119.2514         estimate D2E/DX2                !
 ! A112  A(29,31,34)           121.7605         estimate D2E/DX2                !
 ! A113  A(29,31,49)           122.9893         estimate D2E/DX2                !
 ! A114  A(34,31,49)           106.0309         estimate D2E/DX2                !
 ! A115  A(16,32,33)           109.3939         estimate D2E/DX2                !
 ! A116  A(16,32,34)           119.3538         estimate D2E/DX2                !
 ! A117  A(33,32,34)           120.8631         estimate D2E/DX2                !
 ! A118  A(18,33,32)           109.5033         estimate D2E/DX2                !
 ! A119  A(18,33,36)           121.4269         estimate D2E/DX2                !
 ! A120  A(32,33,36)           120.7615         estimate D2E/DX2                !
 ! A121  A(31,34,32)           119.1596         estimate D2E/DX2                !
 ! A122  A(31,34,51)           110.1063         estimate D2E/DX2                !
 ! A123  A(32,34,51)           118.8522         estimate D2E/DX2                !
 ! A124  A(19,35,36)           109.9285         estimate D2E/DX2                !
 ! A125  A(19,35,37)           109.9839         estimate D2E/DX2                !
 ! A126  A(19,35,74)           107.8705         estimate D2E/DX2                !
 ! A127  A(36,35,37)           101.2361         estimate D2E/DX2                !
 ! A128  A(36,35,74)           113.9322         estimate D2E/DX2                !
 ! A129  A(37,35,74)           113.7662         estimate D2E/DX2                !
 ! A130  A(33,36,35)           122.5633         estimate D2E/DX2                !
 ! A131  A(33,36,52)           118.4857         estimate D2E/DX2                !
 ! A132  A(35,36,52)           111.343          estimate D2E/DX2                !
 ! A133  A(35,37,39)           122.0804         estimate D2E/DX2                !
 ! A134  A(35,37,53)           110.2745         estimate D2E/DX2                !
 ! A135  A(39,37,53)           120.0171         estimate D2E/DX2                !
 ! A136  A(21,38,39)           110.6291         estimate D2E/DX2                !
 ! A137  A(21,38,42)           110.5171         estimate D2E/DX2                !
 ! A138  A(21,38,73)           107.4235         estimate D2E/DX2                !
 ! A139  A(39,38,42)           101.5844         estimate D2E/DX2                !
 ! A140  A(39,38,73)           113.5407         estimate D2E/DX2                !
 ! A141  A(42,38,73)           113.1319         estimate D2E/DX2                !
 ! A142  A(37,39,38)           123.4849         estimate D2E/DX2                !
 ! A143  A(37,39,57)           118.8209         estimate D2E/DX2                !
 ! A144  A(38,39,57)           110.5733         estimate D2E/DX2                !
 ! A145  A(23,40,41)           110.992          estimate D2E/DX2                !
 ! A146  A(23,40,42)           121.8998         estimate D2E/DX2                !
 ! A147  A(41,40,42)           119.3001         estimate D2E/DX2                !
 ! A148  A(24,41,40)           107.1629         estimate D2E/DX2                !
 ! A149  A(24,41,43)           119.3951         estimate D2E/DX2                !
 ! A150  A(40,41,43)           121.7801         estimate D2E/DX2                !
 ! A151  A(38,42,40)           123.1571         estimate D2E/DX2                !
 ! A152  A(38,42,58)           110.5258         estimate D2E/DX2                !
 ! A153  A(40,42,58)           119.3618         estimate D2E/DX2                !
 ! A154  A(41,43,46)           121.4063         estimate D2E/DX2                !
 ! A155  A(41,43,59)           119.0026         estimate D2E/DX2                !
 ! A156  A(46,43,59)           107.4897         estimate D2E/DX2                !
 ! A157  A(26,44,45)           107.1368         estimate D2E/DX2                !
 ! A158  A(26,44,46)           119.7937         estimate D2E/DX2                !
 ! A159  A(45,44,46)           119.4099         estimate D2E/DX2                !
 ! A160  A(28,45,44)           108.0501         estimate D2E/DX2                !
 ! A161  A(28,45,48)           118.4296         estimate D2E/DX2                !
 ! A162  A(44,45,48)           121.6876         estimate D2E/DX2                !
 ! A163  A(43,46,44)           118.7129         estimate D2E/DX2                !
 ! A164  A(43,46,61)           109.3532         estimate D2E/DX2                !
 ! A165  A(44,46,61)           119.2297         estimate D2E/DX2                !
 ! A166  A(30,47,48)           122.6019         estimate D2E/DX2                !
 ! A167  A(30,47,50)           122.4344         estimate D2E/DX2                !
 ! A168  A(48,47,50)           106.1747         estimate D2E/DX2                !
 ! A169  A(45,48,47)           119.7378         estimate D2E/DX2                !
 ! A170  A(45,48,62)           118.9022         estimate D2E/DX2                !
 ! A171  A(47,48,62)           109.3286         estimate D2E/DX2                !
 ! A172  A(31,49,50)           120.3614         estimate D2E/DX2                !
 ! A173  A(31,49,54)           108.742          estimate D2E/DX2                !
 ! A174  A(50,49,54)           119.7444         estimate D2E/DX2                !
 ! A175  A(47,50,49)           118.4897         estimate D2E/DX2                !
 ! A176  A(47,50,63)           109.1284         estimate D2E/DX2                !
 ! A177  A(49,50,63)           120.7292         estimate D2E/DX2                !
 ! A178  A(34,51,52)           119.204          estimate D2E/DX2                !
 ! A179  A(34,51,54)           106.5947         estimate D2E/DX2                !
 ! A180  A(52,51,54)           120.8409         estimate D2E/DX2                !
 ! A181  A(36,52,51)           121.0031         estimate D2E/DX2                !
 ! A182  A(36,52,53)           107.4998         estimate D2E/DX2                !
 ! A183  A(51,52,53)           119.8818         estimate D2E/DX2                !
 ! A184  A(37,53,52)           109.1904         estimate D2E/DX2                !
 ! A185  A(37,53,55)           121.2456         estimate D2E/DX2                !
 ! A186  A(52,53,55)           118.8156         estimate D2E/DX2                !
 ! A187  A(49,54,51)           107.98           estimate D2E/DX2                !
 ! A188  A(49,54,56)           119.4967         estimate D2E/DX2                !
 ! A189  A(51,54,56)           119.6431         estimate D2E/DX2                !
 ! A190  A(53,55,56)           121.433          estimate D2E/DX2                !
 ! A191  A(53,55,60)           118.8706         estimate D2E/DX2                !
 ! A192  A(56,55,60)           108.0667         estimate D2E/DX2                !
 ! A193  A(54,56,55)           119.1303         estimate D2E/DX2                !
 ! A194  A(54,56,64)           120.2201         estimate D2E/DX2                !
 ! A195  A(55,56,64)           108.5165         estimate D2E/DX2                !
 ! A196  A(39,57,58)           108.3516         estimate D2E/DX2                !
 ! A197  A(39,57,60)           121.7535         estimate D2E/DX2                !
 ! A198  A(58,57,60)           119.5185         estimate D2E/DX2                !
 ! A199  A(42,58,57)           108.5322         estimate D2E/DX2                !
 ! A200  A(42,58,59)           121.7741         estimate D2E/DX2                !
 ! A201  A(57,58,59)           119.4505         estimate D2E/DX2                !
 ! A202  A(43,59,58)           118.6552         estimate D2E/DX2                !
 ! A203  A(43,59,65)           107.901          estimate D2E/DX2                !
 ! A204  A(58,59,65)           121.0949         estimate D2E/DX2                !
 ! A205  A(55,60,57)           119.2171         estimate D2E/DX2                !
 ! A206  A(55,60,66)           107.8171         estimate D2E/DX2                !
 ! A207  A(57,60,66)           121.3496         estimate D2E/DX2                !
 ! A208  A(46,61,62)           120.9979         estimate D2E/DX2                !
 ! A209  A(46,61,65)           106.1136         estimate D2E/DX2                !
 ! A210  A(62,61,65)           120.0812         estimate D2E/DX2                !
 ! A211  A(48,62,61)           119.5607         estimate D2E/DX2                !
 ! A212  A(48,62,63)           107.2825         estimate D2E/DX2                !
 ! A213  A(61,62,63)           120.1925         estimate D2E/DX2                !
 ! A214  A(50,63,62)           107.7768         estimate D2E/DX2                !
 ! A215  A(50,63,64)           119.2766         estimate D2E/DX2                !
 ! A216  A(62,63,64)           119.6472         estimate D2E/DX2                !
 ! A217  A(56,64,63)           120.2043         estimate D2E/DX2                !
 ! A218  A(56,64,66)           106.8106         estimate D2E/DX2                !
 ! A219  A(63,64,66)           120.171          estimate D2E/DX2                !
 ! A220  A(59,65,61)           109.0825         estimate D2E/DX2                !
 ! A221  A(59,65,66)           119.3096         estimate D2E/DX2                !
 ! A222  A(61,65,66)           119.5223         estimate D2E/DX2                !
 ! A223  A(60,66,64)           108.7233         estimate D2E/DX2                !
 ! A224  A(60,66,65)           119.1411         estimate D2E/DX2                !
 ! A225  A(64,66,65)           120.2413         estimate D2E/DX2                !
 ! D1    D(4,1,2,3)             19.0743         estimate D2E/DX2                !
 ! D2    D(4,1,2,10)           -92.4628         estimate D2E/DX2                !
 ! D3    D(4,1,2,68)           145.4376         estimate D2E/DX2                !
 ! D4    D(7,1,2,3)            128.8753         estimate D2E/DX2                !
 ! D5    D(7,1,2,10)            17.3382         estimate D2E/DX2                !
 ! D6    D(7,1,2,68)          -104.7614         estimate D2E/DX2                !
 ! D7    D(67,1,2,3)           -97.7311         estimate D2E/DX2                !
 ! D8    D(67,1,2,10)          150.7319         estimate D2E/DX2                !
 ! D9    D(67,1,2,68)           28.6323         estimate D2E/DX2                !
 ! D10   D(2,1,4,5)            -14.8268         estimate D2E/DX2                !
 ! D11   D(2,1,4,6)            129.7472         estimate D2E/DX2                !
 ! D12   D(7,1,4,5)           -137.4288         estimate D2E/DX2                !
 ! D13   D(7,1,4,6)              7.1452         estimate D2E/DX2                !
 ! D14   D(67,1,4,5)           100.2386         estimate D2E/DX2                !
 ! D15   D(67,1,4,6)          -115.1874         estimate D2E/DX2                !
 ! D16   D(2,1,7,8)           -113.2659         estimate D2E/DX2                !
 ! D17   D(2,1,7,9)             -1.8203         estimate D2E/DX2                !
 ! D18   D(2,1,7,71)           125.7273         estimate D2E/DX2                !
 ! D19   D(4,1,7,8)             -5.2126         estimate D2E/DX2                !
 ! D20   D(4,1,7,9)            106.2331         estimate D2E/DX2                !
 ! D21   D(4,1,7,71)          -126.2194         estimate D2E/DX2                !
 ! D22   D(67,1,7,8)           115.4141         estimate D2E/DX2                !
 ! D23   D(67,1,7,9)          -133.1403         estimate D2E/DX2                !
 ! D24   D(67,1,7,71)           -5.5927         estimate D2E/DX2                !
 ! D25   D(1,2,3,5)            -17.6176         estimate D2E/DX2                !
 ! D26   D(1,2,3,12)          -133.3531         estimate D2E/DX2                !
 ! D27   D(1,2,3,69)           100.0171         estimate D2E/DX2                !
 ! D28   D(10,2,3,5)           100.29           estimate D2E/DX2                !
 ! D29   D(10,2,3,12)          -15.4456         estimate D2E/DX2                !
 ! D30   D(10,2,3,69)         -142.0753         estimate D2E/DX2                !
 ! D31   D(68,2,3,5)          -143.6224         estimate D2E/DX2                !
 ! D32   D(68,2,3,12)          100.6421         estimate D2E/DX2                !
 ! D33   D(68,2,3,69)          -25.9877         estimate D2E/DX2                !
 ! D34   D(1,2,10,11)          -33.4354         estimate D2E/DX2                !
 ! D35   D(1,2,10,13)          132.6512         estimate D2E/DX2                !
 ! D36   D(3,2,10,11)         -148.5981         estimate D2E/DX2                !
 ! D37   D(3,2,10,13)           17.4886         estimate D2E/DX2                !
 ! D38   D(68,2,10,11)          91.4117         estimate D2E/DX2                !
 ! D39   D(68,2,10,13)        -102.5016         estimate D2E/DX2                !
 ! D40   D(2,3,5,4)              8.717          estimate D2E/DX2                !
 ! D41   D(2,3,5,15)          -142.493          estimate D2E/DX2                !
 ! D42   D(12,3,5,4)           121.4409         estimate D2E/DX2                !
 ! D43   D(12,3,5,15)          -29.7691         estimate D2E/DX2                !
 ! D44   D(69,3,5,4)          -110.5488         estimate D2E/DX2                !
 ! D45   D(69,3,5,15)           98.2412         estimate D2E/DX2                !
 ! D46   D(2,3,12,13)            8.9618         estimate D2E/DX2                !
 ! D47   D(2,3,12,14)          127.3224         estimate D2E/DX2                !
 ! D48   D(2,3,12,70)         -107.772          estimate D2E/DX2                !
 ! D49   D(5,3,12,13)         -100.6014         estimate D2E/DX2                !
 ! D50   D(5,3,12,14)           17.7592         estimate D2E/DX2                !
 ! D51   D(5,3,12,70)          142.6648         estimate D2E/DX2                !
 ! D52   D(69,3,12,13)         134.0607         estimate D2E/DX2                !
 ! D53   D(69,3,12,14)        -107.5787         estimate D2E/DX2                !
 ! D54   D(69,3,12,70)          17.3269         estimate D2E/DX2                !
 ! D55   D(1,4,5,3)              4.0772         estimate D2E/DX2                !
 ! D56   D(1,4,5,15)           158.1223         estimate D2E/DX2                !
 ! D57   D(6,4,5,3)           -138.3534         estimate D2E/DX2                !
 ! D58   D(6,4,5,15)            15.6917         estimate D2E/DX2                !
 ! D59   D(1,4,6,8)             -6.3005         estimate D2E/DX2                !
 ! D60   D(1,4,6,17)          -161.3178         estimate D2E/DX2                !
 ! D61   D(5,4,6,8)            137.2998         estimate D2E/DX2                !
 ! D62   D(5,4,6,17)           -17.7176         estimate D2E/DX2                !
 ! D63   D(3,5,15,16)           16.9862         estimate D2E/DX2                !
 ! D64   D(3,5,15,18)          161.8578         estimate D2E/DX2                !
 ! D65   D(4,5,15,16)         -132.5801         estimate D2E/DX2                !
 ! D66   D(4,5,15,18)           12.2916         estimate D2E/DX2                !
 ! D67   D(4,6,8,7)              2.3806         estimate D2E/DX2                !
 ! D68   D(4,6,8,20)          -156.8619         estimate D2E/DX2                !
 ! D69   D(17,6,8,7)           157.8726         estimate D2E/DX2                !
 ! D70   D(17,6,8,20)           -1.37           estimate D2E/DX2                !
 ! D71   D(4,6,17,18)           -8.8387         estimate D2E/DX2                !
 ! D72   D(4,6,17,19)          157.8758         estimate D2E/DX2                !
 ! D73   D(8,6,17,18)         -160.5701         estimate D2E/DX2                !
 ! D74   D(8,6,17,19)            6.1444         estimate D2E/DX2                !
 ! D75   D(1,7,8,6)              1.962          estimate D2E/DX2                !
 ! D76   D(1,7,8,20)           159.1532         estimate D2E/DX2                !
 ! D77   D(9,7,8,6)           -120.907          estimate D2E/DX2                !
 ! D78   D(9,7,8,20)            36.2842         estimate D2E/DX2                !
 ! D79   D(71,7,8,6)           124.1364         estimate D2E/DX2                !
 ! D80   D(71,7,8,20)          -78.6724         estimate D2E/DX2                !
 ! D81   D(1,7,9,11)            -1.8855         estimate D2E/DX2                !
 ! D82   D(1,7,9,22)          -160.0415         estimate D2E/DX2                !
 ! D83   D(8,7,9,11)           111.913          estimate D2E/DX2                !
 ! D84   D(8,7,9,22)           -46.2431         estimate D2E/DX2                !
 ! D85   D(71,7,9,11)         -131.3916         estimate D2E/DX2                !
 ! D86   D(71,7,9,22)           70.4523         estimate D2E/DX2                !
 ! D87   D(6,8,20,21)           -4.2929         estimate D2E/DX2                !
 ! D88   D(6,8,20,23)          162.0588         estimate D2E/DX2                !
 ! D89   D(7,8,20,21)         -159.6184         estimate D2E/DX2                !
 ! D90   D(7,8,20,23)            6.7333         estimate D2E/DX2                !
 ! D91   D(7,9,11,10)          -11.5801         estimate D2E/DX2                !
 ! D92   D(7,9,11,25)         -162.2182         estimate D2E/DX2                !
 ! D93   D(22,9,11,10)         146.7451         estimate D2E/DX2                !
 ! D94   D(22,9,11,25)          -3.8931         estimate D2E/DX2                !
 ! D95   D(7,9,22,23)           17.243          estimate D2E/DX2                !
 ! D96   D(7,9,22,24)          168.6129         estimate D2E/DX2                !
 ! D97   D(11,9,22,23)        -141.5961         estimate D2E/DX2                !
 ! D98   D(11,9,22,24)           9.7738         estimate D2E/DX2                !
 ! D99   D(2,10,11,9)           31.7307         estimate D2E/DX2                !
 ! D100  D(2,10,11,25)        -175.8679         estimate D2E/DX2                !
 ! D101  D(13,10,11,9)        -133.3141         estimate D2E/DX2                !
 ! D102  D(13,10,11,25)         19.0874         estimate D2E/DX2                !
 ! D103  D(2,10,13,12)         -12.7873         estimate D2E/DX2                !
 ! D104  D(2,10,13,27)        -174.1978         estimate D2E/DX2                !
 ! D105  D(11,10,13,12)        153.8107         estimate D2E/DX2                !
 ! D106  D(11,10,13,27)         -7.5998         estimate D2E/DX2                !
 ! D107  D(9,11,25,26)          -6.1623         estimate D2E/DX2                !
 ! D108  D(9,11,25,28)         138.9824         estimate D2E/DX2                !
 ! D109  D(10,11,25,26)       -158.0677         estimate D2E/DX2                !
 ! D110  D(10,11,25,28)        -12.923          estimate D2E/DX2                !
 ! D111  D(3,12,13,10)           1.5679         estimate D2E/DX2                !
 ! D112  D(3,12,13,27)         163.2689         estimate D2E/DX2                !
 ! D113  D(14,12,13,10)       -122.533          estimate D2E/DX2                !
 ! D114  D(14,12,13,27)         39.168          estimate D2E/DX2                !
 ! D115  D(70,12,13,10)        119.3781         estimate D2E/DX2                !
 ! D116  D(70,12,13,27)        -78.9209         estimate D2E/DX2                !
 ! D117  D(3,12,14,16)           3.8973         estimate D2E/DX2                !
 ! D118  D(3,12,14,29)        -155.2388         estimate D2E/DX2                !
 ! D119  D(13,12,14,16)        119.2509         estimate D2E/DX2                !
 ! D120  D(13,12,14,29)        -39.8852         estimate D2E/DX2                !
 ! D121  D(70,12,14,16)       -122.1629         estimate D2E/DX2                !
 ! D122  D(70,12,14,29)         78.701          estimate D2E/DX2                !
 ! D123  D(10,13,27,28)        -10.8215         estimate D2E/DX2                !
 ! D124  D(10,13,27,30)        143.3955         estimate D2E/DX2                !
 ! D125  D(12,13,27,28)       -170.5599         estimate D2E/DX2                !
 ! D126  D(12,13,27,30)        -16.3429         estimate D2E/DX2                !
 ! D127  D(12,14,16,15)        -19.3582         estimate D2E/DX2                !
 ! D128  D(12,14,16,32)       -162.762          estimate D2E/DX2                !
 ! D129  D(29,14,16,15)        139.9654         estimate D2E/DX2                !
 ! D130  D(29,14,16,32)         -3.4383         estimate D2E/DX2                !
 ! D131  D(12,14,29,30)         19.4057         estimate D2E/DX2                !
 ! D132  D(12,14,29,31)        172.6133         estimate D2E/DX2                !
 ! D133  D(16,14,29,30)       -140.2425         estimate D2E/DX2                !
 ! D134  D(16,14,29,31)         12.9651         estimate D2E/DX2                !
 ! D135  D(5,15,16,14)           9.8068         estimate D2E/DX2                !
 ! D136  D(5,15,16,32)         157.915          estimate D2E/DX2                !
 ! D137  D(18,15,16,14)       -139.2792         estimate D2E/DX2                !
 ! D138  D(18,15,16,32)          8.829          estimate D2E/DX2                !
 ! D139  D(5,15,18,17)         -35.5636         estimate D2E/DX2                !
 ! D140  D(5,15,18,33)        -151.1794         estimate D2E/DX2                !
 ! D141  D(5,15,18,75)          88.1309         estimate D2E/DX2                !
 ! D142  D(16,15,18,17)        111.1963         estimate D2E/DX2                !
 ! D143  D(16,15,18,33)         -4.4196         estimate D2E/DX2                !
 ! D144  D(16,15,18,75)       -125.1093         estimate D2E/DX2                !
 ! D145  D(14,16,32,33)        138.2669         estimate D2E/DX2                !
 ! D146  D(14,16,32,34)         -7.0131         estimate D2E/DX2                !
 ! D147  D(15,16,32,33)         -9.8394         estimate D2E/DX2                !
 ! D148  D(15,16,32,34)       -155.1193         estimate D2E/DX2                !
 ! D149  D(6,17,18,15)          31.6955         estimate D2E/DX2                !
 ! D150  D(6,17,18,33)         142.51           estimate D2E/DX2                !
 ! D151  D(6,17,18,75)         -95.543          estimate D2E/DX2                !
 ! D152  D(19,17,18,15)       -134.3918         estimate D2E/DX2                !
 ! D153  D(19,17,18,33)        -23.5772         estimate D2E/DX2                !
 ! D154  D(19,17,18,75)         98.3697         estimate D2E/DX2                !
 ! D155  D(6,17,19,21)          -5.0502         estimate D2E/DX2                !
 ! D156  D(6,17,19,35)        -175.2761         estimate D2E/DX2                !
 ! D157  D(18,17,19,21)        160.607          estimate D2E/DX2                !
 ! D158  D(18,17,19,35)         -9.6189         estimate D2E/DX2                !
 ! D159  D(15,18,33,32)         -1.7145         estimate D2E/DX2                !
 ! D160  D(15,18,33,36)        146.7484         estimate D2E/DX2                !
 ! D161  D(17,18,33,32)       -116.5823         estimate D2E/DX2                !
 ! D162  D(17,18,33,36)         31.8806         estimate D2E/DX2                !
 ! D163  D(75,18,33,32)        122.2299         estimate D2E/DX2                !
 ! D164  D(75,18,33,36)        -89.3073         estimate D2E/DX2                !
 ! D165  D(17,19,21,20)         -0.5146         estimate D2E/DX2                !
 ! D166  D(17,19,21,38)       -171.7837         estimate D2E/DX2                !
 ! D167  D(35,19,21,20)        169.1968         estimate D2E/DX2                !
 ! D168  D(35,19,21,38)         -2.0723         estimate D2E/DX2                !
 ! D169  D(17,19,35,36)         34.4942         estimate D2E/DX2                !
 ! D170  D(17,19,35,37)        145.1276         estimate D2E/DX2                !
 ! D171  D(17,19,35,74)        -90.2745         estimate D2E/DX2                !
 ! D172  D(21,19,35,36)       -135.2971         estimate D2E/DX2                !
 ! D173  D(21,19,35,37)        -24.6637         estimate D2E/DX2                !
 ! D174  D(21,19,35,74)         99.9342         estimate D2E/DX2                !
 ! D175  D(8,20,21,19)           5.255          estimate D2E/DX2                !
 ! D176  D(8,20,21,38)         176.5962         estimate D2E/DX2                !
 ! D177  D(23,20,21,19)       -160.2131         estimate D2E/DX2                !
 ! D178  D(23,20,21,38)         11.1281         estimate D2E/DX2                !
 ! D179  D(8,20,23,22)         -38.4494         estimate D2E/DX2                !
 ! D180  D(8,20,23,40)        -147.7877         estimate D2E/DX2                !
 ! D181  D(8,20,23,72)          87.8735         estimate D2E/DX2                !
 ! D182  D(21,20,23,22)        127.4018         estimate D2E/DX2                !
 ! D183  D(21,20,23,40)         18.0635         estimate D2E/DX2                !
 ! D184  D(21,20,23,72)       -106.2753         estimate D2E/DX2                !
 ! D185  D(19,21,38,39)         27.0524         estimate D2E/DX2                !
 ! D186  D(19,21,38,42)        138.7668         estimate D2E/DX2                !
 ! D187  D(19,21,38,73)        -97.3797         estimate D2E/DX2                !
 ! D188  D(20,21,38,39)       -144.4035         estimate D2E/DX2                !
 ! D189  D(20,21,38,42)        -32.6891         estimate D2E/DX2                !
 ! D190  D(20,21,38,73)         91.1644         estimate D2E/DX2                !
 ! D191  D(9,22,23,20)          28.3739         estimate D2E/DX2                !
 ! D192  D(9,22,23,40)         144.3435         estimate D2E/DX2                !
 ! D193  D(9,22,23,72)         -92.7577         estimate D2E/DX2                !
 ! D194  D(24,22,23,20)       -125.9619         estimate D2E/DX2                !
 ! D195  D(24,22,23,40)         -9.9923         estimate D2E/DX2                !
 ! D196  D(24,22,23,72)        112.9065         estimate D2E/DX2                !
 ! D197  D(9,22,24,26)          -5.8216         estimate D2E/DX2                !
 ! D198  D(9,22,24,41)        -150.657          estimate D2E/DX2                !
 ! D199  D(23,22,24,26)        149.6476         estimate D2E/DX2                !
 ! D200  D(23,22,24,41)          4.8121         estimate D2E/DX2                !
 ! D201  D(20,23,40,41)        123.6387         estimate D2E/DX2                !
 ! D202  D(20,23,40,42)        -25.2599         estimate D2E/DX2                !
 ! D203  D(22,23,40,41)         12.1036         estimate D2E/DX2                !
 ! D204  D(22,23,40,42)       -136.795          estimate D2E/DX2                !
 ! D205  D(72,23,40,41)       -113.9736         estimate D2E/DX2                !
 ! D206  D(72,23,40,42)         97.1279         estimate D2E/DX2                !
 ! D207  D(22,24,26,25)         -4.1822         estimate D2E/DX2                !
 ! D208  D(22,24,26,44)       -141.8985         estimate D2E/DX2                !
 ! D209  D(41,24,26,25)        137.5472         estimate D2E/DX2                !
 ! D210  D(41,24,26,44)         -0.1691         estimate D2E/DX2                !
 ! D211  D(22,24,41,40)          2.9553         estimate D2E/DX2                !
 ! D212  D(22,24,41,43)        146.7248         estimate D2E/DX2                !
 ! D213  D(26,24,41,40)       -142.5637         estimate D2E/DX2                !
 ! D214  D(26,24,41,43)          1.2058         estimate D2E/DX2                !
 ! D215  D(11,25,26,24)         10.1112         estimate D2E/DX2                !
 ! D216  D(11,25,26,44)        152.9239         estimate D2E/DX2                !
 ! D217  D(28,25,26,24)       -139.5647         estimate D2E/DX2                !
 ! D218  D(28,25,26,44)          3.2481         estimate D2E/DX2                !
 ! D219  D(11,25,28,27)         -5.1671         estimate D2E/DX2                !
 ! D220  D(11,25,28,45)       -152.56           estimate D2E/DX2                !
 ! D221  D(26,25,28,27)        144.0462         estimate D2E/DX2                !
 ! D222  D(26,25,28,45)         -3.3467         estimate D2E/DX2                !
 ! D223  D(24,26,44,45)        139.0373         estimate D2E/DX2                !
 ! D224  D(24,26,44,46)         -1.1982         estimate D2E/DX2                !
 ! D225  D(25,26,44,45)         -1.909          estimate D2E/DX2                !
 ! D226  D(25,26,44,46)       -142.1445         estimate D2E/DX2                !
 ! D227  D(13,27,28,25)         16.7996         estimate D2E/DX2                !
 ! D228  D(13,27,28,45)        159.6257         estimate D2E/DX2                !
 ! D229  D(30,27,28,25)       -136.9961         estimate D2E/DX2                !
 ! D230  D(30,27,28,45)          5.8301         estimate D2E/DX2                !
 ! D231  D(13,27,30,29)         -8.7307         estimate D2E/DX2                !
 ! D232  D(13,27,30,47)       -159.8824         estimate D2E/DX2                !
 ! D233  D(28,27,30,29)        143.8625         estimate D2E/DX2                !
 ! D234  D(28,27,30,47)         -7.2892         estimate D2E/DX2                !
 ! D235  D(25,28,45,44)          2.1665         estimate D2E/DX2                !
 ! D236  D(25,28,45,48)        145.7444         estimate D2E/DX2                !
 ! D237  D(27,28,45,44)       -144.4736         estimate D2E/DX2                !
 ! D238  D(27,28,45,48)         -0.8957         estimate D2E/DX2                !
 ! D239  D(14,29,30,27)          6.8838         estimate D2E/DX2                !
 ! D240  D(14,29,30,47)        157.0639         estimate D2E/DX2                !
 ! D241  D(31,29,30,27)       -146.7853         estimate D2E/DX2                !
 ! D242  D(31,29,30,47)          3.3948         estimate D2E/DX2                !
 ! D243  D(14,29,31,34)        -12.8686         estimate D2E/DX2                !
 ! D244  D(14,29,31,49)       -154.9689         estimate D2E/DX2                !
 ! D245  D(30,29,31,34)        141.3436         estimate D2E/DX2                !
 ! D246  D(30,29,31,49)         -0.7567         estimate D2E/DX2                !
 ! D247  D(27,30,47,48)          4.3356         estimate D2E/DX2                !
 ! D248  D(27,30,47,50)        147.2952         estimate D2E/DX2                !
 ! D249  D(29,30,47,48)       -146.4681         estimate D2E/DX2                !
 ! D250  D(29,30,47,50)         -3.5086         estimate D2E/DX2                !
 ! D251  D(29,31,34,32)          2.4789         estimate D2E/DX2                !
 ! D252  D(29,31,34,51)       -139.9594         estimate D2E/DX2                !
 ! D253  D(49,31,34,32)        150.0611         estimate D2E/DX2                !
 ! D254  D(49,31,34,51)          7.6229         estimate D2E/DX2                !
 ! D255  D(29,31,49,50)         -1.997          estimate D2E/DX2                !
 ! D256  D(29,31,49,54)        141.7044         estimate D2E/DX2                !
 ! D257  D(34,31,49,50)       -149.0797         estimate D2E/DX2                !
 ! D258  D(34,31,49,54)         -5.3783         estimate D2E/DX2                !
 ! D259  D(16,32,33,18)          7.1847         estimate D2E/DX2                !
 ! D260  D(16,32,33,36)       -141.5233         estimate D2E/DX2                !
 ! D261  D(34,32,33,18)        151.8511         estimate D2E/DX2                !
 ! D262  D(34,32,33,36)          3.1431         estimate D2E/DX2                !
 ! D263  D(16,32,34,31)          7.4314         estimate D2E/DX2                !
 ! D264  D(16,32,34,51)        146.6182         estimate D2E/DX2                !
 ! D265  D(33,32,34,31)       -133.8221         estimate D2E/DX2                !
 ! D266  D(33,32,34,51)          5.3646         estimate D2E/DX2                !
 ! D267  D(18,33,36,35)         -6.5492         estimate D2E/DX2                !
 ! D268  D(18,33,36,52)       -153.4636         estimate D2E/DX2                !
 ! D269  D(32,33,36,35)        138.4376         estimate D2E/DX2                !
 ! D270  D(32,33,36,52)         -8.4769         estimate D2E/DX2                !
 ! D271  D(31,34,51,52)        134.3277         estimate D2E/DX2                !
 ! D272  D(31,34,51,54)         -6.8794         estimate D2E/DX2                !
 ! D273  D(32,34,51,52)         -8.2414         estimate D2E/DX2                !
 ! D274  D(32,34,51,54)       -149.4485         estimate D2E/DX2                !
 ! D275  D(19,35,36,33)        -27.4629         estimate D2E/DX2                !
 ! D276  D(19,35,36,52)        121.5309         estimate D2E/DX2                !
 ! D277  D(37,35,36,33)       -143.7362         estimate D2E/DX2                !
 ! D278  D(37,35,36,52)          5.2576         estimate D2E/DX2                !
 ! D279  D(74,35,36,33)         93.7369         estimate D2E/DX2                !
 ! D280  D(74,35,36,52)       -117.2694         estimate D2E/DX2                !
 ! D281  D(19,35,37,39)         26.4207         estimate D2E/DX2                !
 ! D282  D(19,35,37,53)       -123.004          estimate D2E/DX2                !
 ! D283  D(36,35,37,39)        142.6533         estimate D2E/DX2                !
 ! D284  D(36,35,37,53)         -6.7714         estimate D2E/DX2                !
 ! D285  D(74,35,37,39)        -94.7049         estimate D2E/DX2                !
 ! D286  D(74,35,37,53)        115.8704         estimate D2E/DX2                !
 ! D287  D(33,36,52,51)          5.4547         estimate D2E/DX2                !
 ! D288  D(33,36,52,53)        148.4827         estimate D2E/DX2                !
 ! D289  D(35,36,52,51)       -144.9447         estimate D2E/DX2                !
 ! D290  D(35,36,52,53)         -1.9166         estimate D2E/DX2                !
 ! D291  D(35,37,39,38)         -1.1459         estimate D2E/DX2                !
 ! D292  D(35,37,39,57)       -148.8054         estimate D2E/DX2                !
 ! D293  D(53,37,39,38)        145.4139         estimate D2E/DX2                !
 ! D294  D(53,37,39,57)         -2.2457         estimate D2E/DX2                !
 ! D295  D(35,37,53,52)          6.1462         estimate D2E/DX2                !
 ! D296  D(35,37,53,55)        150.057          estimate D2E/DX2                !
 ! D297  D(39,37,53,52)       -144.0019         estimate D2E/DX2                !
 ! D298  D(39,37,53,55)         -0.091          estimate D2E/DX2                !
 ! D299  D(21,38,39,37)        -26.2879         estimate D2E/DX2                !
 ! D300  D(21,38,39,57)        123.6716         estimate D2E/DX2                !
 ! D301  D(42,38,39,37)       -143.6398         estimate D2E/DX2                !
 ! D302  D(42,38,39,57)          6.3196         estimate D2E/DX2                !
 ! D303  D(73,38,39,37)         94.5756         estimate D2E/DX2                !
 ! D304  D(73,38,39,57)       -115.4649         estimate D2E/DX2                !
 ! D305  D(21,38,42,40)         26.7341         estimate D2E/DX2                !
 ! D306  D(21,38,42,58)       -123.7233         estimate D2E/DX2                !
 ! D307  D(39,38,42,40)        144.1671         estimate D2E/DX2                !
 ! D308  D(39,38,42,58)         -6.2903         estimate D2E/DX2                !
 ! D309  D(73,38,42,40)        -93.7653         estimate D2E/DX2                !
 ! D310  D(73,38,42,58)        115.7773         estimate D2E/DX2                !
 ! D311  D(37,39,57,58)        147.3102         estimate D2E/DX2                !
 ! D312  D(37,39,57,60)          2.6454         estimate D2E/DX2                !
 ! D313  D(38,39,57,58)         -4.229          estimate D2E/DX2                !
 ! D314  D(38,39,57,60)       -148.8939         estimate D2E/DX2                !
 ! D315  D(23,40,41,24)         -9.8036         estimate D2E/DX2                !
 ! D316  D(23,40,41,43)       -152.5199         estimate D2E/DX2                !
 ! D317  D(42,40,41,24)        140.0061         estimate D2E/DX2                !
 ! D318  D(42,40,41,43)         -2.7103         estimate D2E/DX2                !
 ! D319  D(23,40,42,38)          2.5747         estimate D2E/DX2                !
 ! D320  D(23,40,42,58)        150.5807         estimate D2E/DX2                !
 ! D321  D(41,40,42,38)       -143.8509         estimate D2E/DX2                !
 ! D322  D(41,40,42,58)          4.1552         estimate D2E/DX2                !
 ! D323  D(24,41,43,46)         -0.9189         estimate D2E/DX2                !
 ! D324  D(24,41,43,59)       -138.7425         estimate D2E/DX2                !
 ! D325  D(40,41,43,46)        137.4514         estimate D2E/DX2                !
 ! D326  D(40,41,43,59)         -0.3722         estimate D2E/DX2                !
 ! D327  D(38,42,58,57)          4.1642         estimate D2E/DX2                !
 ! D328  D(38,42,58,59)        149.0109         estimate D2E/DX2                !
 ! D329  D(40,42,58,57)       -147.5657         estimate D2E/DX2                !
 ! D330  D(40,42,58,59)         -2.7191         estimate D2E/DX2                !
 ! D331  D(41,43,46,44)         -0.435          estimate D2E/DX2                !
 ! D332  D(41,43,46,61)       -141.9268         estimate D2E/DX2                !
 ! D333  D(59,43,46,44)        141.5636         estimate D2E/DX2                !
 ! D334  D(59,43,46,61)          0.0719         estimate D2E/DX2                !
 ! D335  D(41,43,59,58)          1.8457         estimate D2E/DX2                !
 ! D336  D(41,43,59,65)        144.5007         estimate D2E/DX2                !
 ! D337  D(46,43,59,58)       -141.2254         estimate D2E/DX2                !
 ! D338  D(46,43,59,65)          1.4296         estimate D2E/DX2                !
 ! D339  D(26,44,45,28)         -0.1649         estimate D2E/DX2                !
 ! D340  D(26,44,45,48)       -142.3146         estimate D2E/DX2                !
 ! D341  D(46,44,45,28)        140.2515         estimate D2E/DX2                !
 ! D342  D(46,44,45,48)         -1.8982         estimate D2E/DX2                !
 ! D343  D(26,44,46,43)          1.4716         estimate D2E/DX2                !
 ! D344  D(26,44,46,61)        139.1603         estimate D2E/DX2                !
 ! D345  D(45,44,46,43)       -133.9681         estimate D2E/DX2                !
 ! D346  D(45,44,46,61)          3.7206         estimate D2E/DX2                !
 ! D347  D(28,45,48,47)         -2.1432         estimate D2E/DX2                !
 ! D348  D(28,45,48,62)       -140.8032         estimate D2E/DX2                !
 ! D349  D(44,45,48,47)        136.2965         estimate D2E/DX2                !
 ! D350  D(44,45,48,62)         -2.3634         estimate D2E/DX2                !
 ! D351  D(43,46,61,62)        139.9296         estimate D2E/DX2                !
 ! D352  D(43,46,61,65)         -1.5343         estimate D2E/DX2                !
 ! D353  D(44,46,61,62)         -1.3335         estimate D2E/DX2                !
 ! D354  D(44,46,61,65)       -142.7975         estimate D2E/DX2                !
 ! D355  D(30,47,48,45)          0.2958         estimate D2E/DX2                !
 ! D356  D(30,47,48,62)        142.5039         estimate D2E/DX2                !
 ! D357  D(50,47,48,45)       -147.7417         estimate D2E/DX2                !
 ! D358  D(50,47,48,62)         -5.5335         estimate D2E/DX2                !
 ! D359  D(30,47,50,49)          0.7437         estimate D2E/DX2                !
 ! D360  D(30,47,50,63)       -142.7314         estimate D2E/DX2                !
 ! D361  D(48,47,50,49)        148.8477         estimate D2E/DX2                !
 ! D362  D(48,47,50,63)          5.3726         estimate D2E/DX2                !
 ! D363  D(45,48,62,61)          4.7319         estimate D2E/DX2                !
 ! D364  D(45,48,62,63)        146.1729         estimate D2E/DX2                !
 ! D365  D(47,48,62,61)       -137.8378         estimate D2E/DX2                !
 ! D366  D(47,48,62,63)          3.6033         estimate D2E/DX2                !
 ! D367  D(31,49,50,47)          2.0075         estimate D2E/DX2                !
 ! D368  D(31,49,50,63)        141.1515         estimate D2E/DX2                !
 ! D369  D(54,49,50,47)       -137.7764         estimate D2E/DX2                !
 ! D370  D(54,49,50,63)          1.3676         estimate D2E/DX2                !
 ! D371  D(31,49,54,51)          1.2843         estimate D2E/DX2                !
 ! D372  D(31,49,54,56)       -140.0692         estimate D2E/DX2                !
 ! D373  D(50,49,54,51)        145.2466         estimate D2E/DX2                !
 ! D374  D(50,49,54,56)          3.8932         estimate D2E/DX2                !
 ! D375  D(47,50,63,62)         -3.2589         estimate D2E/DX2                !
 ! D376  D(47,50,63,64)        137.5714         estimate D2E/DX2                !
 ! D377  D(49,50,63,62)       -145.7747         estimate D2E/DX2                !
 ! D378  D(49,50,63,64)         -4.9444         estimate D2E/DX2                !
 ! D379  D(34,51,52,36)          2.9089         estimate D2E/DX2                !
 ! D380  D(34,51,52,53)       -135.6739         estimate D2E/DX2                !
 ! D381  D(54,51,52,36)        138.5383         estimate D2E/DX2                !
 ! D382  D(54,51,52,53)         -0.0445         estimate D2E/DX2                !
 ! D383  D(34,51,54,49)          3.3658         estimate D2E/DX2                !
 ! D384  D(34,51,54,56)        144.6528         estimate D2E/DX2                !
 ! D385  D(52,51,54,49)       -137.0704         estimate D2E/DX2                !
 ! D386  D(52,51,54,56)          4.2166         estimate D2E/DX2                !
 ! D387  D(36,52,53,37)         -2.5738         estimate D2E/DX2                !
 ! D388  D(36,52,53,55)       -147.49           estimate D2E/DX2                !
 ! D389  D(51,52,53,37)        140.9458         estimate D2E/DX2                !
 ! D390  D(51,52,53,55)         -3.9703         estimate D2E/DX2                !
 ! D391  D(37,53,55,56)       -136.6526         estimate D2E/DX2                !
 ! D392  D(37,53,55,60)          2.1143         estimate D2E/DX2                !
 ! D393  D(52,53,55,56)          3.9325         estimate D2E/DX2                !
 ! D394  D(52,53,55,60)        142.6994         estimate D2E/DX2                !
 ! D395  D(49,54,56,55)        132.6415         estimate D2E/DX2                !
 ! D396  D(49,54,56,64)         -5.5477         estimate D2E/DX2                !
 ! D397  D(51,54,56,55)         -4.2434         estimate D2E/DX2                !
 ! D398  D(51,54,56,64)       -142.4326         estimate D2E/DX2                !
 ! D399  D(53,55,56,54)          0.1859         estimate D2E/DX2                !
 ! D400  D(53,55,56,64)        142.7754         estimate D2E/DX2                !
 ! D401  D(60,55,56,54)       -142.4314         estimate D2E/DX2                !
 ! D402  D(60,55,56,64)          0.1582         estimate D2E/DX2                !
 ! D403  D(53,55,60,57)         -1.723          estimate D2E/DX2                !
 ! D404  D(53,55,60,66)       -145.4177         estimate D2E/DX2                !
 ! D405  D(56,55,60,57)        142.0089         estimate D2E/DX2                !
 ! D406  D(56,55,60,66)         -1.6857         estimate D2E/DX2                !
 ! D407  D(54,56,64,63)          1.9664         estimate D2E/DX2                !
 ! D408  D(54,56,64,66)        143.5357         estimate D2E/DX2                !
 ! D409  D(55,56,64,63)       -140.144          estimate D2E/DX2                !
 ! D410  D(55,56,64,66)          1.4253         estimate D2E/DX2                !
 ! D411  D(39,57,58,42)          0.04           estimate D2E/DX2                !
 ! D412  D(39,57,58,59)       -145.758          estimate D2E/DX2                !
 ! D413  D(60,57,58,42)        145.6275         estimate D2E/DX2                !
 ! D414  D(60,57,58,59)         -0.1705         estimate D2E/DX2                !
 ! D415  D(39,57,60,55)         -0.6277         estimate D2E/DX2                !
 ! D416  D(39,57,60,66)        138.0684         estimate D2E/DX2                !
 ! D417  D(58,57,60,55)       -141.5165         estimate D2E/DX2                !
 ! D418  D(58,57,60,66)         -2.8204         estimate D2E/DX2                !
 ! D419  D(42,58,59,43)         -0.3595         estimate D2E/DX2                !
 ! D420  D(42,58,59,65)       -137.9748         estimate D2E/DX2                !
 ! D421  D(57,58,59,43)        140.8172         estimate D2E/DX2                !
 ! D422  D(57,58,59,65)          3.2019         estimate D2E/DX2                !
 ! D423  D(43,59,65,61)         -2.4265         estimate D2E/DX2                !
 ! D424  D(43,59,65,66)       -144.8153         estimate D2E/DX2                !
 ! D425  D(58,59,65,61)        139.1378         estimate D2E/DX2                !
[...]
    14 C(13)  Bbb    -0.1256   -16.851    -6.013    -5.621  0.6135 -0.5442 -0.5723
              Bcc     0.2517    33.778    12.053    11.267  0.4548  0.8359 -0.3073
 
              Baa    -0.2644   -35.477   -12.659   -11.834  0.7809 -0.3870  0.4904
    15 C(13)  Bbb    -0.2550   -34.220   -12.211   -11.415  0.2443  0.9116  0.3305
              Bcc     0.5194    69.697    24.870    23.249 -0.5750 -0.1383  0.8064
 
              Baa    -0.1053   -14.132    -5.043    -4.714  0.5894  0.5685 -0.5740
    16 C(13)  Bbb     0.0402     5.397     1.926     1.800  0.7628 -0.1576  0.6272
              Bcc     0.0651     8.735     3.117     2.914 -0.2661  0.8075  0.5265
 
              Baa    -0.0492    -6.605    -2.357    -2.203  0.7871 -0.3936  0.4748
    17 C(13)  Bbb    -0.0387    -5.189    -1.852    -1.731  0.5688  0.7609 -0.3121
              Bcc     0.0879    11.794     4.209     3.934 -0.2385  0.5158  0.8229
 
              Baa    -0.0109    -1.466    -0.523    -0.489  0.8623 -0.2368 -0.4476
    18 C(13)  Bbb    -0.0009    -0.126    -0.045    -0.042 -0.0867  0.8018 -0.5912
              Bcc     0.0119     1.592     0.568     0.531  0.4989  0.5487  0.6709
 
              Baa    -0.0288    -3.860    -1.377    -1.288  0.0398  0.8551  0.5169
    19 C(13)  Bbb     0.0104     1.389     0.496     0.463  0.4984 -0.4653  0.7315
              Bcc     0.0184     2.471     0.882     0.824  0.8661  0.2285 -0.4447
 
              Baa    -0.0274    -3.676    -1.312    -1.226 -0.0677  0.9776  0.1991
    20 C(13)  Bbb     0.0124     1.664     0.594     0.555  0.0709 -0.1944  0.9784
              Bcc     0.0150     2.012     0.718     0.671  0.9952  0.0804 -0.0562
 
              Baa    -0.0479    -6.426    -2.293    -2.143  0.4029 -0.3423  0.8488
    21 C(13)  Bbb    -0.0435    -5.844    -2.085    -1.949  0.9152  0.1514 -0.3734
              Bcc     0.0914    12.270     4.378     4.093 -0.0007  0.9273  0.3742
 
              Baa    -0.0080    -1.078    -0.385    -0.360  0.4661  0.7689  0.4376
    22 C(13)  Bbb    -0.0062    -0.836    -0.298    -0.279  0.8201 -0.1898 -0.5399
              Bcc     0.0143     1.914     0.683     0.639  0.3321 -0.6105  0.7190
 
              Baa    -0.0012    -0.167    -0.060    -0.056  0.8806 -0.3018  0.3652
    23 C(13)  Bbb    -0.0007    -0.090    -0.032    -0.030  0.0772  0.8519  0.5179
              Bcc     0.0019     0.257     0.092     0.086 -0.4675 -0.4279  0.7735
 
              Baa    -0.0024    -0.317    -0.113    -0.106  0.3536 -0.6080  0.7109
    24 C(13)  Bbb     0.0005     0.071     0.025     0.024  0.6974  0.6778  0.2328
              Bcc     0.0018     0.247     0.088     0.082 -0.6234  0.4135  0.6636
 
              Baa    -0.0037    -0.490    -0.175    -0.163  0.6929  0.1544  0.7043
    25 C(13)  Bbb     0.0015     0.204     0.073     0.068 -0.0012  0.9771 -0.2130
              Bcc     0.0021     0.286     0.102     0.095  0.7210 -0.1467 -0.6772
 
              Baa    -0.0033    -0.447    -0.159    -0.149  0.5412  0.8397  0.0454
    26 C(13)  Bbb    -0.0027    -0.362    -0.129    -0.121  0.8036 -0.5006 -0.3218
              Bcc     0.0060     0.809     0.289     0.270  0.2475 -0.2107  0.9457
 
              Baa    -0.0099    -1.335    -0.476    -0.445  0.5974  0.7013  0.3889
    27 C(13)  Bbb     0.0038     0.515     0.184     0.172  0.7236 -0.6805  0.1156
              Bcc     0.0061     0.820     0.293     0.274 -0.3457 -0.2123  0.9140
 
              Baa    -0.0077    -1.040    -0.371    -0.347 -0.3929  0.8681 -0.3034
    28 C(13)  Bbb    -0.0072    -0.970    -0.346    -0.323  0.7598  0.1206 -0.6389
              Bcc     0.0150     2.010     0.717     0.670  0.5180  0.4815  0.7069
 
              Baa    -0.0601    -8.070    -2.880    -2.692  0.3991  0.9111 -0.1032
    29 C(13)  Bbb     0.0268     3.594     1.282     1.199  0.3243 -0.0350  0.9453
              Bcc     0.0334     4.477     1.597     1.493  0.8576 -0.4107 -0.3095
 
              Baa    -0.0172    -2.302    -0.821    -0.768  0.5087 -0.4855  0.7110
    30 C(13)  Bbb    -0.0157    -2.106    -0.752    -0.703  0.7435 -0.1686 -0.6471
              Bcc     0.0329     4.408     1.573     1.470  0.4340  0.8578  0.2752
 
              Baa    -0.0676    -9.065    -3.235    -3.024  0.5073  0.1079  0.8550
    31 C(13)  Bbb    -0.0624    -8.379    -2.990    -2.795  0.8173 -0.3749 -0.4377
              Bcc     0.1300    17.444     6.224     5.819  0.2733  0.9208 -0.2784
 
              Baa    -0.0370    -4.969    -1.773    -1.658  0.5735  0.6016  0.5560
    32 C(13)  Bbb    -0.0323    -4.329    -1.545    -1.444  0.7586 -0.6462 -0.0833
              Bcc     0.0693     9.299     3.318     3.102 -0.3092 -0.4696  0.8270
 
              Baa    -0.0195    -2.618    -0.934    -0.873 -0.2515 -0.1321  0.9588
    33 C(13)  Bbb     0.0052     0.700     0.250     0.234  0.0319  0.9890  0.1446
              Bcc     0.0143     1.918     0.684     0.640  0.9673 -0.0670  0.2446
 
              Baa    -0.0456    -6.124    -2.185    -2.043  0.1597  0.7409 -0.6523
    34 C(13)  Bbb     0.0211     2.837     1.012     0.946  0.9245  0.1194  0.3619
              Bcc     0.0245     3.288     1.173     1.097 -0.3460  0.6609  0.6660
 
              Baa    -0.0012    -0.162    -0.058    -0.054 -0.3770  0.4448  0.8124
    35 C(13)  Bbb    -0.0006    -0.087    -0.031    -0.029  0.1144  0.8928 -0.4357
              Bcc     0.0019     0.248     0.089     0.083  0.9191  0.0713  0.3875
 
              Baa    -0.0090    -1.206    -0.430    -0.402  0.1269  0.9782 -0.1642
    36 C(13)  Bbb    -0.0072    -0.971    -0.347    -0.324  0.9458 -0.1693 -0.2772
              Bcc     0.0162     2.177     0.777     0.726  0.2989  0.1202  0.9467
 
              Baa    -0.0013    -0.180    -0.064    -0.060  0.1563  0.3992  0.9035
    37 C(13)  Bbb     0.0003     0.046     0.016     0.015  0.0716  0.9077 -0.4134
              Bcc     0.0010     0.134     0.048     0.045  0.9851 -0.1293 -0.1133
 
              Baa    -0.0020    -0.274    -0.098    -0.091  0.1550  0.8803  0.4483
    38 C(13)  Bbb    -0.0006    -0.082    -0.029    -0.027  0.3425 -0.4736  0.8114
              Bcc     0.0027     0.356     0.127     0.119  0.9266  0.0278 -0.3750
 
              Baa    -0.0018    -0.242    -0.086    -0.081  0.3057  0.7946  0.5245
    39 C(13)  Bbb    -0.0003    -0.044    -0.016    -0.015 -0.1968 -0.4862  0.8514
              Bcc     0.0021     0.286     0.102     0.095  0.9315 -0.3635  0.0078
 
              Baa    -0.0026    -0.355    -0.127    -0.118  0.8643 -0.0565  0.4998
    40 C(13)  Bbb    -0.0023    -0.307    -0.109    -0.102 -0.3603  0.6240  0.6934
              Bcc     0.0049     0.662     0.236     0.221  0.3511  0.7794 -0.5189
 
              Baa    -0.0020    -0.264    -0.094    -0.088 -0.0094  0.8454 -0.5341
    41 C(13)  Bbb     0.0004     0.058     0.021     0.019  0.7682  0.3480  0.5373
              Bcc     0.0015     0.206     0.073     0.069 -0.6401  0.4053  0.6527
 
              Baa    -0.0036    -0.481    -0.172    -0.161  0.3765  0.9237 -0.0710
    42 C(13)  Bbb     0.0009     0.127     0.045     0.042  0.7350 -0.2511  0.6299
              Bcc     0.0026     0.354     0.126     0.118 -0.5640  0.2893  0.7734
 
              Baa    -0.0010    -0.136    -0.049    -0.045  0.7080  0.2629  0.6555
    43 C(13)  Bbb    -0.0007    -0.098    -0.035    -0.033 -0.4251  0.8998  0.0983
              Bcc     0.0017     0.235     0.084     0.078 -0.5639 -0.3483  0.7488
 
              Baa    -0.0008    -0.105    -0.037    -0.035  0.7139  0.5099  0.4799
    44 C(13)  Bbb    -0.0003    -0.044    -0.016    -0.015 -0.2180  0.8131 -0.5397
              Bcc     0.0011     0.149     0.053     0.050 -0.6654  0.2807  0.6917
 
              Baa    -0.0087    -1.164    -0.415    -0.388  0.2774  0.5421  0.7932
    45 C(13)  Bbb     0.0038     0.516     0.184     0.172 -0.0387  0.8312 -0.5546
              Bcc     0.0048     0.648     0.231     0.216  0.9600 -0.1232 -0.2516
 
              Baa    -0.0012    -0.157    -0.056    -0.052 -0.1877  0.1685  0.9677
    46 C(13)  Bbb     0.0006     0.077     0.027     0.026 -0.6694  0.6990 -0.2516
              Bcc     0.0006     0.080     0.029     0.027  0.7188  0.6949  0.0184
 
              Baa    -0.0245    -3.287    -1.173    -1.096  0.1479  0.9568  0.2505
    47 C(13)  Bbb     0.0115     1.537     0.549     0.513 -0.2873 -0.2008  0.9366
              Bcc     0.0130     1.749     0.624     0.584  0.9464 -0.2105  0.2452
 
              Baa    -0.0044    -0.593    -0.211    -0.198  0.0744 -0.6768  0.7324
    48 C(13)  Bbb    -0.0038    -0.511    -0.182    -0.170  0.9945 -0.0036 -0.1044
              Bcc     0.0082     1.103     0.394     0.368  0.0733  0.7362  0.6728
 
              Baa    -0.0311    -4.170    -1.488    -1.391 -0.0694  0.9732 -0.2194
    49 C(13)  Bbb     0.0122     1.633     0.583     0.545  0.6224  0.2141  0.7528
              Bcc     0.0189     2.537     0.905     0.846  0.7796 -0.0843 -0.6206
 
              Baa    -0.0373    -5.001    -1.784    -1.668  0.4396 -0.0275  0.8977
    50 C(13)  Bbb    -0.0347    -4.652    -1.660    -1.552  0.8782  0.2226 -0.4233
              Bcc     0.0719     9.653     3.444     3.220 -0.1882  0.9745  0.1220
 
              Baa    -0.0072    -0.964    -0.344    -0.322  0.6337  0.7688  0.0862
    51 C(13)  Bbb    -0.0054    -0.730    -0.260    -0.243  0.6631 -0.4823 -0.5725
              Bcc     0.0126     1.694     0.604     0.565  0.3985 -0.4199  0.8154
 
              Baa    -0.0159    -2.130    -0.760    -0.710  0.3484 -0.1324  0.9280
    52 C(13)  Bbb     0.0074     0.994     0.355     0.331  0.5088  0.8582 -0.0685
              Bcc     0.0085     1.136     0.405     0.379  0.7873 -0.4960 -0.3663
 
              Baa    -0.0010    -0.131    -0.047    -0.044 -0.4231  0.0071  0.9060
    53 C(13)  Bbb    -0.0008    -0.106    -0.038    -0.035  0.1432  0.9879  0.0591
              Bcc     0.0018     0.237     0.085     0.079  0.8947 -0.1547  0.4190
 
              Baa    -0.0046    -0.616    -0.220    -0.205  0.4490  0.6553  0.6074
    54 C(13)  Bbb    -0.0037    -0.496    -0.177    -0.166 -0.6429 -0.2351  0.7289
              Bcc     0.0083     1.112     0.397     0.371 -0.6205  0.7178 -0.3158
 
              Baa    -0.0043    -0.573    -0.205    -0.191  0.8693 -0.0892  0.4863
    55 C(13)  Bbb     0.0020     0.262     0.093     0.087  0.1050  0.9945 -0.0053
              Bcc     0.0023     0.311     0.111     0.104 -0.4831  0.0557  0.8738
 
              Baa    -0.0090    -1.213    -0.433    -0.405  0.7345 -0.6151  0.2868
    56 C(13)  Bbb     0.0042     0.558     0.199     0.186  0.5783  0.7884  0.2099
              Bcc     0.0049     0.655     0.234     0.219 -0.3552  0.0117  0.9347
 
              Baa    -0.0044    -0.590    -0.211    -0.197  0.8350  0.5232  0.1705
    57 C(13)  Bbb     0.0020     0.266     0.095     0.089  0.0158 -0.3325  0.9430
              Bcc     0.0024     0.324     0.116     0.108 -0.5501  0.7847  0.2859
 
              Baa    -0.0044    -0.589    -0.210    -0.197  0.3872 -0.2294  0.8930
    58 C(13)  Bbb    -0.0037    -0.502    -0.179    -0.167 -0.4912  0.7683  0.4103
              Bcc     0.0081     1.091     0.389     0.364  0.7802  0.5975 -0.1848
 
              Baa    -0.0041    -0.551    -0.197    -0.184  0.7961  0.4183 -0.4374
    59 C(13)  Bbb     0.0016     0.220     0.079     0.073  0.5524 -0.2068  0.8075
              Bcc     0.0025     0.331     0.118     0.110 -0.2473  0.8845  0.3957
 
              Baa    -0.0027    -0.358    -0.128    -0.119  0.0490 -0.4377  0.8978
    60 C(13)  Bbb    -0.0022    -0.296    -0.106    -0.099 -0.1753  0.8811  0.4392
              Bcc     0.0049     0.654     0.233     0.218  0.9833  0.1789  0.0335
 
              Baa    -0.0028    -0.380    -0.136    -0.127  0.6980 -0.3843 -0.6043
    61 C(13)  Bbb     0.0011     0.149     0.053     0.050  0.5386 -0.2744  0.7966
              Bcc     0.0017     0.231     0.082     0.077  0.4719  0.8815 -0.0155
 
              Baa    -0.0061    -0.816    -0.291    -0.272  0.6521 -0.1800  0.7364
    62 C(13)  Bbb    -0.0055    -0.743    -0.265    -0.248  0.5546  0.7756 -0.3015
              Bcc     0.0116     1.559     0.556     0.520 -0.5169  0.6051  0.6056
 
              Baa    -0.0119    -1.594    -0.569    -0.532 -0.5024  0.8445  0.1852
    63 C(13)  Bbb     0.0046     0.612     0.218     0.204  0.3123 -0.0224  0.9497
              Bcc     0.0073     0.982     0.351     0.328  0.8062  0.5350 -0.2525
 
              Baa    -0.0136    -1.822    -0.650    -0.608  0.2367  0.2592  0.9364
    64 C(13)  Bbb    -0.0126    -1.687    -0.602    -0.563  0.5185  0.7814 -0.3473
              Bcc     0.0261     3.509     1.252     1.170  0.8217 -0.5677 -0.0506
 
              Baa    -0.0064    -0.858    -0.306    -0.286  0.4822 -0.0582  0.8741
    65 C(13)  Bbb    -0.0059    -0.791    -0.282    -0.264  0.0623  0.9975  0.0321
              Bcc     0.0123     1.649     0.589     0.550  0.8738 -0.0390 -0.4847
 
              Baa    -0.0060    -0.806    -0.287    -0.269  0.9526 -0.2564 -0.1636
    66 C(13)  Bbb     0.0025     0.339     0.121     0.113  0.2525  0.3667  0.8954
              Bcc     0.0035     0.467     0.167     0.156  0.1696  0.8943 -0.4141
 
              Baa    -0.1751    -9.165    -3.270    -3.057 -0.3659  0.1967  0.9096
    67 Cl(35) Bbb    -0.1576    -8.251    -2.944    -2.752  0.4881  0.8728  0.0076
              Bcc     0.3327    17.415     6.214     5.809  0.7924 -0.4468  0.4154
 
              Baa    -0.0189    -0.989    -0.353    -0.330  0.7050 -0.5573  0.4386
    68 Cl(35) Bbb    -0.0100    -0.522    -0.186    -0.174 -0.6426 -0.2403  0.7275
              Bcc     0.0289     1.511     0.539     0.504  0.3001  0.7948  0.5276
 
              Baa    -0.0854    -4.470    -1.595    -1.491  0.8758  0.4666  0.1235
    69 Cl(35) Bbb     0.0395     2.069     0.738     0.690 -0.4809  0.8656  0.1394
              Bcc     0.0459     2.401     0.857     0.801 -0.0419 -0.1815  0.9825
 
              Baa    -0.0588    -3.075    -1.097    -1.026 -0.4651  0.8803  0.0931
    70 Cl(35) Bbb    -0.0476    -2.494    -0.890    -0.832 -0.3466 -0.2779  0.8959
              Bcc     0.1064     5.569     1.987     1.858  0.8146  0.3844  0.4344
 
              Baa    -0.0100    -0.525    -0.187    -0.175 -0.4215  0.7846  0.4546
    71 Cl(35) Bbb    -0.0018    -0.093    -0.033    -0.031 -0.2932 -0.5923  0.7505
              Bcc     0.0118     0.618     0.221     0.206  0.8581  0.1830  0.4797
 
              Baa    -0.0215    -1.126    -0.402    -0.376  0.0625  0.7712 -0.6335
    72 Cl(35) Bbb     0.0063     0.328     0.117     0.109  0.9290  0.1871  0.3193
              Bcc     0.0153     0.799     0.285     0.266 -0.3648  0.6085  0.7047
 
              Baa    -0.0426    -2.232    -0.796    -0.744  0.6728 -0.6175 -0.4075
    73 Cl(35) Bbb    -0.0357    -1.869    -0.667    -0.623  0.2369 -0.3419  0.9094
              Bcc     0.0784     4.101     1.463     1.368  0.7009  0.7084  0.0837
 
              Baa    -0.0185    -0.968    -0.345    -0.323  0.4948  0.2081  0.8437
    74 Cl(35) Bbb     0.0044     0.230     0.082     0.077  0.8685 -0.1503 -0.4723
              Bcc     0.0141     0.738     0.263     0.246  0.0286  0.9665 -0.2551
 
              Baa    -0.1913   -10.010    -3.572    -3.339  0.8948 -0.3208  0.3105
    75 Cl(35) Bbb    -0.1757    -9.197    -3.282    -3.068  0.4252  0.8245 -0.3735
              Bcc     0.3670    19.208     6.854     6.407 -0.1362  0.4662  0.8741
 

 ---------------------------------------------------------------------------------

 No NMR shielding tensors so no spin-rotation constants.
 Leave Link  601 at Thu Jul 14 22:29:55 2022, MaxMem=  1342177280 cpu:             125.1 elap:               2.9
 (Enter /home/mkliu/g16/l9999.exe)
 1\1\GINC-NODE05\FOpt\UB3LYP\6-311G(d,p)\C66Cl9(2)\MKLIU\14-Jul-2022\0\
 \#P opt b3lyp/6-311G(d, p) empiricaldispersion=GD3\\force\\0,2\C,-1.31
 65178694,1.8863621601,-4.0025370889\C,0.2221577252,2.2456917091,-3.991
 9176109\C,1.0128961579,0.9052241097,-4.3947068638\C,-1.2629892835,0.41
 00792038,-3.9019133339\C,-0.0331355426,-0.1368070005,-4.1386988707\C,-
 2.1187735416,-0.1272368815,-2.895782163\C,-2.206594742,2.2858896903,-2
 .7055368581\C,-2.658697757,0.9189891508,-2.1489103713\C,-1.4672027934,
 2.9486300658,-1.5490393501\C,0.7094807809,2.4848618435,-2.606663535\C,
 -0.0468275781,3.1434326836,-1.590180952\C,2.2117042401,0.7706006346,-3
 .324795485\C,1.8600825743,1.8058053429,-2.3084205766\C,2.322999059,-0.
 5652394119,-2.580371273\C,0.2453012377,-1.3884720286,-3.6287996735\C,1
 .4679342353,-1.6183493417,-2.9253826566\C,-1.9114013369,-1.4021898543,
 -2.3537959627\C,-0.8610429537,-2.265684787,-3.0521574201\C,-2.39714623
 75,-1.6704243246,-1.0667615031\C,-3.0609666371,0.6922768539,-0.8354082
 96\C,-2.990886085,-0.623205256,-0.3066272366\C,-2.0901210894,2.9160653
 755,-0.3127627857\C,-3.2156636935,1.923863533,0.0479980506\C,-1.384735
 7588,3.2511071067,0.8787477663\C,0.6534578021,3.4072864056,-0.40363256
 19\C,-0.0272256408,3.5614469155,0.8426267606\C,2.4505521068,1.83115324
 76,-1.0127212369\C,1.9329412482,2.7933449475,-0.1344991361\C,2.9617559
 525,-0.5985299638,-1.2784177714\C,3.1123221303,0.6425053152,-0.4977112
 573\C,2.9391130867,-1.8173610283,-0.550928324\C,1.2716274707,-2.748145
 2203,-2.0620032654\C,-0.1184951562,-3.0952032653,-2.0411848215\C,2.057
 6909946,-2.8929371481,-0.9361915249\C,-2.0776593108,-3.0342221202,-0.4
 397899441\C,-0.6915579971,-3.503016874,-0.8745835225\C,-1.9102299295,-
 2.927370449,1.0617636272\C,-3.3647702165,-0.8585786932,1.1577973263\C,
 -2.5076937709,-1.9423406844,1.7907965039\C,-2.9005375525,1.6074652498,
 1.492835403\C,-1.9124890678,2.5052100999,2.0000377644\C,-3.010346502,0
 .350557865,2.0107224304\C,-1.0823820935,2.1367462462,3.0593887943\C,0.
 848352363,3.1232582187,1.9098521055\C,2.0695814464,2.6589020621,1.2891
 616825\C,0.3363107452,2.4486960379,3.0099190734\C,3.2918695989,0.56411
 72435,0.89838353\C,2.751283949,1.5680221032,1.7971922179\C,3.043585212
 1,-1.862850607,0.8871513726\C,3.2380490587,-0.6972542677,1.6038412674\
 C,1.5020624702,-3.4887827774,0.2471359311\C,0.1267244627,-3.7436740747
 ,0.276190028\C,-0.6334825916,-3.4406471366,1.4641662335\C,2.1432363545
 ,-2.8842401653,1.3913018662\C,0.0080967437,-2.9557395575,2.6058127212\
 C,1.4294115278,-2.6590117628,2.5628871931\C,-1.8735639876,-1.447551884
 3,2.9761785439\C,-2.1764575405,-0.0422518915,3.1063697576\C,-1.2296525
 135,0.8335480107,3.6433914086\C,-0.6357261325,-1.942031066,3.392195626
 4\C,1.0611171063,1.326376807,3.5716230933\C,2.2647074566,0.9098677388,
 2.9920543824\C,2.5655384399,-0.4965187583,2.8715180899\C,1.6527651006,
 -1.4501497402,3.3300735354\C,0.0911994525,0.3354462792,3.9927971315\C,
 0.3804172624,-1.0198124264,3.8726058444\Cl,-2.0892229805,2.3043889492,
 -5.5879232897\Cl,0.6600076406,3.7130646325,-4.9507412515\Cl,1.52037896
 5,0.810401969,-6.1160769761\Cl,3.8632467616,1.1443512307,-4.0445272216
 \Cl,-3.6123124571,3.3585527522,-3.1374660886\Cl,-4.921370742,2.6130664
 867,-0.0469797822\Cl,-5.1650285811,-1.2690281442,1.2566544448\Cl,-3.40
 6526706,-4.2271243233,-0.8953659734\Cl,-1.654868179,-3.3010013739,-4.3
 679248107\\Version=ES64L-G16RevA.03\State=2-A\HF=-6657.4652756\S2=0.78
 9645\S2-1=0.\S2A=0.751248\RMSD=9.294e-09\RMSF=4.367e-05\Dipole=1.32667
 32,-0.1234686,1.950461\Quadrupole=-4.189515,3.2658665,0.9236485,-3.762
 0051,4.859603,2.2284343\PG=C01 [X(C66Cl9)]\\@


 IT IS WELL TO REMEMBER THAT MAN IS A PART OF NATURE AND THAT HIS WORKS,
 WHATEVER THEY MAY BE, ARE NO MORE "UNNATURAL" THAN 
 THE FLIGHT OF AN EAGLE OR THE PASSAGE OF A TORNADO.

                                    -- CHARLES MCCARRY IN "THE GREAT SOUTHWEST"
 Job cpu time:       4 days 22 hours 53 minutes 32.4 seconds.
 Elapsed time:       0 days  2 hours 28 minutes 51.2 seconds.
 File lengths (MBytes):  RWF=   2194 Int=      0 D2E=      0 Chk=    198 Scr=      1
 Normal termination of Gaussian 16 at Thu Jul 14 22:29:57 2022.
