 Entering Gaussian System, Link 0=g16
 Input=elklgqu55bmkg_addon_9.gjf
 Output=elklgqu55bmkg_addon_9.log
 Initial command:
 /home/mkliu/g16/l1.exe "/data/scratch/Gau-58701.inp" -scrdir="/data/scratch/"
 Entering Link 1 = /home/mkliu/g16/l1.exe PID=     58702.
  
 Copyright (c) 1988,1990,1992,1993,1995,1998,2003,2009,2016,
            Gaussian, Inc.  All Rights Reserved.
  
 This is part of the Gaussian(R) 16 program.  It is based on
 the Gaussian(R) 09 system (copyright 2009, Gaussian, Inc.),
 the Gaussian(R) 03 system (copyright 2003, Gaussian, Inc.),
 the Gaussian(R) 98 system (copyright 1998, Gaussian, Inc.),
 the Gaussian(R) 94 system (copyright 1995, Gaussian, Inc.),
 the Gaussian 92(TM) system (copyright 1992, Gaussian, Inc.),
 the Gaussian 90(TM) system (copyright 1990, Gaussian, Inc.),
 the Gaussian 88(TM) system (copyright 1988, Gaussian, Inc.),
 the Gaussian 86(TM) system (copyright 1986, Carnegie Mellon
 University), and the Gaussian 82(TM) system (copyright 1983,
 Carnegie Mellon University). Gaussian is a federally registered
 trademark of Gaussian, Inc.
  
 This software contains proprietary and confidential information,
 including trade secrets, belonging to Gaussian, Inc.
  
 This software is provided under written license and may be
 used, copied, transmitted, or stored only in accord with that
 written license.
  
 The following legend is applicable only to US Government
 contracts under FAR:
  
                    RESTRICTED RIGHTS LEGEND
  
 Use, reproduction and disclosure by the US Government is
 subject to restrictions as set forth in subparagraphs (a)
 and (c) of the Commercial Computer Software - Restricted
 Rights clause in FAR 52.227-19.
  
 Gaussian, Inc.
 340 Quinnipiac St., Bldg. 40, Wallingford CT 06492
  
  
 ---------------------------------------------------------------
 Warning -- This program may not be used in any manner that
 competes with the business of Gaussian, Inc. or will provide
 assistance to any competitor of Gaussian, Inc.  The licensee
 of this program is prohibited from giving any competitor of
 Gaussian, Inc. access to this program.  By using this program,
 the user acknowledges that Gaussian, Inc. is engaged in the
 business of creating and licensing software in the field of
 computational chemistry and represents and warrants to the
 licensee that it is not a competitor of Gaussian, Inc. and that
 it will not use this program in any manner prohibited above.
 ---------------------------------------------------------------
  

 Cite this work as:
 Gaussian 16, Revision A.03,
 M. J. Frisch, G. W. Trucks, H. B. Schlegel, G. E. Scuseria, 
 M. A. Robb, J. R. Cheeseman, G. Scalmani, V. Barone, 
 G. A. Petersson, H. Nakatsuji, X. Li, M. Caricato, A. V. Marenich, 
 J. Bloino, B. G. Janesko, R. Gomperts, B. Mennucci, H. P. Hratchian, 
 J. V. Ortiz, A. F. Izmaylov, J. L. Sonnenberg, D. Williams-Young, 
 F. Ding, F. Lipparini, F. Egidi, J. Goings, B. Peng, A. Petrone, 
 T. Henderson, D. Ranasinghe, V. G. Zakrzewski, J. Gao, N. Rega, 
 G. Zheng, W. Liang, M. Hada, M. Ehara, K. Toyota, R. Fukuda, 
 J. Hasegawa, M. Ishida, T. Nakajima, Y. Honda, O. Kitao, H. Nakai, 
 T. Vreven, K. Throssell, J. A. Montgomery, Jr., J. E. Peralta, 
 F. Ogliaro, M. J. Bearpark, J. J. Heyd, E. N. Brothers, K. N. Kudin, 
 V. N. Staroverov, T. A. Keith, R. Kobayashi, J. Normand, 
 K. Raghavachari, A. P. Rendell, J. C. Burant, S. S. Iyengar, 
 J. Tomasi, M. Cossi, J. M. Millam, M. Klene, C. Adamo, R. Cammi, 
 J. W. Ochterski, R. L. Martin, K. Morokuma, O. Farkas, 
 J. B. Foresman, and D. J. Fox, Gaussian, Inc., Wallingford CT, 2016.
 
 ******************************************
 Gaussian 16:  ES64L-G16RevA.03 25-Dec-2016
                16-Jul-2022 
 ******************************************
 %mem=10GB
 %chk=elklgqu55bmkg_addon_9.chk
 %nprocshared=48
 Will use up to   48 processors via shared memory.
 -------------------------------------------------
 #P opt b3lyp/6-311G(d, p) empiricaldispersion=GD3
 -------------------------------------------------
 1/18=20,19=15,26=3,38=1/1,3;
 2/9=110,12=2,17=6,18=5,40=1/2;
 3/5=4,6=6,7=101,11=2,25=1,30=1,71=1,74=-5,124=31/1,2,3;
 4//1;
 5/5=2,38=5/2;
 6/7=2,8=2,9=2,10=2,28=1/1;
 7//1,2,3,16;
 1/18=20,19=15,26=3/3(2);
 2/9=110/2;
 99//99;
 2/9=110/2;
 3/5=4,6=6,7=101,11=2,25=1,30=1,71=1,74=-5,124=31/1,2,3;
 4/5=5,16=3,69=1/1;
 5/5=2,38=5/2;
 7//1,2,3,16;
 1/18=20,19=15,26=3/3(-5);
 2/9=110/2;
 6/7=2,8=2,9=2,10=2,19=2,28=1/1;
 99/9=1/99;
 Leave Link    1 at Sat Jul 16 11:05:20 2022, MaxMem=  1342177280 cpu:               2.2 elap:               0.1
 (Enter /home/mkliu/g16/l101.exe)
 -----
 force
 -----
 Symbolic Z-matrix:
 Charge =  0 Multiplicity = 2
 C                    -1.33406   1.87676  -3.9145 
 C                     0.19777   2.20994  -3.96432 
 C                     0.94857   0.87901  -4.23297 
 C                    -1.47631   0.34932  -4.15939 
 C                    -0.0862   -0.17717  -4.07598 
 C                    -2.20301  -0.18246  -2.95417 
 C                    -1.9253    2.05476  -2.54854 
 C                    -2.60319   0.90004  -2.13073 
 C                    -1.43892   2.92487  -1.5799 
 C                     0.73278   2.6334   -2.63153 
 C                    -0.00636   3.22392  -1.62318 
 C                     1.89145   0.69566  -3.07403 
 C                     1.84637   1.84392  -2.25816 
 C                     2.21969  -0.51412  -2.52966 
 C                     0.19078  -1.38387  -3.60414 
 C                     1.57916  -1.74831  -3.1368 
 C                    -1.96745  -1.40558  -2.40039 
 C                    -0.89109  -2.26846  -3.0413 
 C                    -2.48515  -1.69524  -1.07466 
 C                    -3.06537   0.6835   -0.82304 
 C                    -3.07271  -0.65367  -0.32546 
 C                    -2.05829   2.83947  -0.3119 
 C                    -2.93761   1.80386   0.03847 
 C                    -1.37495   3.24919   0.89599 
 C                     0.67829   3.41445  -0.39301 
 C                    -0.03308   3.52855   0.85076 
 C                     2.42157   1.83468  -0.99069 
 C                     1.91682   2.81687  -0.11337 
 C                     2.87738  -0.55292  -1.23775 
 C                     3.01109   0.61326  -0.50462 
 C                     3.16266  -1.90188  -0.60932 
 C                     1.26858  -2.73478  -2.06688 
 C                    -0.11092  -3.01681  -2.02595 
 C                     2.04014  -2.85386  -0.9468 
 C                    -1.96196  -2.83738  -0.40183 
 C                    -0.71746  -3.4113   -0.85994 
 C                    -1.95227  -2.88706   1.03262 
 C                    -3.40487  -0.84938   1.14567 
 C                    -2.56674  -1.91357   1.78631 
 C                    -2.886     1.60191   1.4685 
 C                    -1.92474   2.51829   2.00796 
 C                    -3.03564   0.34345   1.99133 
 C                    -1.10415   2.13109   3.05236 
 C                     0.83353   3.09428   1.92307 
 C                     2.04665   2.63686   1.31861 
 C                     0.30506   2.42785   3.00947 
 C                     3.50738   0.6122    0.93503 
 C                     2.73341   1.5602    1.81194 
 C                     3.0431   -1.84725   0.89286 
 C                     3.22179  -0.70396   1.5986 
 C                     1.46534  -3.40557   0.22732 
 C                     0.10794  -3.70736   0.27108 
 C                    -0.66516  -3.42263   1.44135 
 C                     2.1087   -2.823     1.36337 
 C                    -0.03335  -2.91552   2.56078 
 C                     1.37386  -2.61299   2.5168 
 C                    -1.93296  -1.43805   2.96474 
 C                    -2.2279   -0.03709   3.10066 
 C                    -1.27078   0.829     3.61546 
 C                    -0.68953  -1.91966   3.35579 
 C                     1.02179   1.31055   3.54461 
 C                     2.21407   0.89696   2.96001 
 C                     2.4991   -0.49997   2.81564 
 C                     1.59169  -1.4292    3.27612 
 C                     0.042     0.33617   3.94357 
 C                     0.31988  -1.01512   3.81387 
 Cl                   -2.27909   2.87113  -5.05802 
 Cl                    0.56808   3.49425  -5.15001 
 Cl                    1.76335   0.74668  -5.80825 
 Cl                    2.651    -2.43033  -4.40966 
 Cl                    4.7957   -2.45888  -1.15119 
 Cl                    5.28301   0.98567   0.85077 
 Cl                   -2.23261  -0.11962  -5.70226 
 Cl                   -1.65871  -3.35137  -4.28367 
 Cl                   -5.19509  -1.21406   1.21261 
 
 ITRead=  0  0  0  0  0  0  0  0  0  0  0  0  0  0  0  0  0  0  0  0
 ITRead=  0  0  0  0  0  0  0  0  0  0  0  0  0  0  0  0  0  0  0  0
 ITRead=  0  0  0  0  0  0  0  0  0  0  0  0  0  0  0  0  0  0  0  0
 ITRead=  0  0  0  0  0  0  0  0  0  0  0  0  0  0  0
 MicOpt= -1 -1 -1 -1 -1 -1 -1 -1 -1 -1 -1 -1 -1 -1 -1 -1 -1 -1 -1 -1
 MicOpt= -1 -1 -1 -1 -1 -1 -1 -1 -1 -1 -1 -1 -1 -1 -1 -1 -1 -1 -1 -1
 MicOpt= -1 -1 -1 -1 -1 -1 -1 -1 -1 -1 -1 -1 -1 -1 -1 -1 -1 -1 -1 -1
 MicOpt= -1 -1 -1 -1 -1 -1 -1 -1 -1 -1 -1 -1 -1 -1 -1
 NAtoms=     75 NQM=       75 NQMF=       0 NMMI=      0 NMMIF=      0
                NMic=       0 NMicF=      0.
                    Isotopes and Nuclear Properties:
 (Nuclear quadrupole moments (NQMom) in fm**2, nuclear magnetic moments (NMagM)
  in nuclear magnetons)

  Atom         1           2           3           4           5           6           7           8           9          10
 IAtWgt=          12          12          12          12          12          12          12          12          12          12
 AtmWgt=  12.0000000  12.0000000  12.0000000  12.0000000  12.0000000  12.0000000  12.0000000  12.0000000  12.0000000  12.0000000
 NucSpn=           0           0           0           0           0           0           0           0           0           0
 AtZEff=  -0.0000000  -0.0000000  -0.0000000  -0.0000000  -0.0000000  -0.0000000  -0.0000000  -0.0000000  -0.0000000  -0.0000000
 NQMom=    0.0000000   0.0000000   0.0000000   0.0000000   0.0000000   0.0000000   0.0000000   0.0000000   0.0000000   0.0000000
 NMagM=    0.0000000   0.0000000   0.0000000   0.0000000   0.0000000   0.0000000   0.0000000   0.0000000   0.0000000   0.0000000
 AtZNuc=   6.0000000   6.0000000   6.0000000   6.0000000   6.0000000   6.0000000   6.0000000   6.0000000   6.0000000   6.0000000

  Atom        11          12          13          14          15          16          17          18          19          20
 IAtWgt=          12          12          12          12          12          12          12          12          12          12
 AtmWgt=  12.0000000  12.0000000  12.0000000  12.0000000  12.0000000  12.0000000  12.0000000  12.0000000  12.0000000  12.0000000
 NucSpn=           0           0           0           0           0           0           0           0           0           0
 AtZEff=  -0.0000000  -0.0000000  -0.0000000  -0.0000000  -0.0000000  -0.0000000  -0.0000000  -0.0000000  -0.0000000  -0.0000000
 NQMom=    0.0000000   0.0000000   0.0000000   0.0000000   0.0000000   0.0000000   0.0000000   0.0000000   0.0000000   0.0000000
 NMagM=    0.0000000   0.0000000   0.0000000   0.0000000   0.0000000   0.0000000   0.0000000   0.0000000   0.0000000   0.0000000
 AtZNuc=   6.0000000   6.0000000   6.0000000   6.0000000   6.0000000   6.0000000   6.0000000   6.0000000   6.0000000   6.0000000

  Atom        21          22          23          24          25          26          27          28          29          30
 IAtWgt=          12          12          12          12          12          12          12          12          12          12
 AtmWgt=  12.0000000  12.0000000  12.0000000  12.0000000  12.0000000  12.0000000  12.0000000  12.0000000  12.0000000  12.0000000
 NucSpn=           0           0           0           0           0           0           0           0           0           0
 AtZEff=  -0.0000000  -0.0000000  -0.0000000  -0.0000000  -0.0000000  -0.0000000  -0.0000000  -0.0000000  -0.0000000  -0.0000000
 NQMom=    0.0000000   0.0000000   0.0000000   0.0000000   0.0000000   0.0000000   0.0000000   0.0000000   0.0000000   0.0000000
 NMagM=    0.0000000   0.0000000   0.0000000   0.0000000   0.0000000   0.0000000   0.0000000   0.0000000   0.0000000   0.0000000
 AtZNuc=   6.0000000   6.0000000   6.0000000   6.0000000   6.0000000   6.0000000   6.0000000   6.0000000   6.0000000   6.0000000

  Atom        31          32          33          34          35          36          37          38          39          40
 IAtWgt=          12          12          12          12          12          12          12          12          12          12
 AtmWgt=  12.0000000  12.0000000  12.0000000  12.0000000  12.0000000  12.0000000  12.0000000  12.0000000  12.0000000  12.0000000
 NucSpn=           0           0           0           0           0           0           0           0           0           0
 AtZEff=  -0.0000000  -0.0000000  -0.0000000  -0.0000000  -0.0000000  -0.0000000  -0.0000000  -0.0000000  -0.0000000  -0.0000000
 NQMom=    0.0000000   0.0000000   0.0000000   0.0000000   0.0000000   0.0000000   0.0000000   0.0000000   0.0000000   0.0000000
 NMagM=    0.0000000   0.0000000   0.0000000   0.0000000   0.0000000   0.0000000   0.0000000   0.0000000   0.0000000   0.0000000
 AtZNuc=   6.0000000   6.0000000   6.0000000   6.0000000   6.0000000   6.0000000   6.0000000   6.0000000   6.0000000   6.0000000

  Atom        41          42          43          44          45          46          47          48          49          50
 IAtWgt=          12          12          12          12          12          12          12          12          12          12
 AtmWgt=  12.0000000  12.0000000  12.0000000  12.0000000  12.0000000  12.0000000  12.0000000  12.0000000  12.0000000  12.0000000
 NucSpn=           0           0           0           0           0           0           0           0           0           0
 AtZEff=  -0.0000000  -0.0000000  -0.0000000  -0.0000000  -0.0000000  -0.0000000  -0.0000000  -0.0000000  -0.0000000  -0.0000000
 NQMom=    0.0000000   0.0000000   0.0000000   0.0000000   0.0000000   0.0000000   0.0000000   0.0000000   0.0000000   0.0000000
 NMagM=    0.0000000   0.0000000   0.0000000   0.0000000   0.0000000   0.0000000   0.0000000   0.0000000   0.0000000   0.0000000
 AtZNuc=   6.0000000   6.0000000   6.0000000   6.0000000   6.0000000   6.0000000   6.0000000   6.0000000   6.0000000   6.0000000

  Atom        51          52          53          54          55          56          57          58          59          60
 IAtWgt=          12          12          12          12          12          12          12          12          12          12
 AtmWgt=  12.0000000  12.0000000  12.0000000  12.0000000  12.0000000  12.0000000  12.0000000  12.0000000  12.0000000  12.0000000
 NucSpn=           0           0           0           0           0           0           0           0           0           0
 AtZEff=  -0.0000000  -0.0000000  -0.0000000  -0.0000000  -0.0000000  -0.0000000  -0.0000000  -0.0000000  -0.0000000  -0.0000000
 NQMom=    0.0000000   0.0000000   0.0000000   0.0000000   0.0000000   0.0000000   0.0000000   0.0000000   0.0000000   0.0000000
 NMagM=    0.0000000   0.0000000   0.0000000   0.0000000   0.0000000   0.0000000   0.0000000   0.0000000   0.0000000   0.0000000
 AtZNuc=   6.0000000   6.0000000   6.0000000   6.0000000   6.0000000   6.0000000   6.0000000   6.0000000   6.0000000   6.0000000

  Atom        61          62          63          64          65          66          67          68          69          70
 IAtWgt=          12          12          12          12          12          12          35          35          35          35
 AtmWgt=  12.0000000  12.0000000  12.0000000  12.0000000  12.0000000  12.0000000  34.9688527  34.9688527  34.9688527  34.9688527
 NucSpn=           0           0           0           0           0           0           3           3           3           3
 AtZEff=  -0.0000000  -0.0000000  -0.0000000  -0.0000000  -0.0000000  -0.0000000  -0.0000000  -0.0000000  -0.0000000  -0.0000000
 NQMom=    0.0000000   0.0000000   0.0000000   0.0000000   0.0000000   0.0000000  -8.1650000  -8.1650000  -8.1650000  -8.1650000
 NMagM=    0.0000000   0.0000000   0.0000000   0.0000000   0.0000000   0.0000000   0.8218740   0.8218740   0.8218740   0.8218740
 AtZNuc=   6.0000000   6.0000000   6.0000000   6.0000000   6.0000000   6.0000000  17.0000000  17.0000000  17.0000000  17.0000000

  Atom        71          72          73          74          75
 IAtWgt=          35          35          35          35          35
 AtmWgt=  34.9688527  34.9688527  34.9688527  34.9688527  34.9688527
 NucSpn=           3           3           3           3           3
 AtZEff=  -0.0000000  -0.0000000  -0.0000000  -0.0000000  -0.0000000
 NQMom=   -8.1650000  -8.1650000  -8.1650000  -8.1650000  -8.1650000
 NMagM=    0.8218740   0.8218740   0.8218740   0.8218740   0.8218740
 AtZNuc=  17.0000000  17.0000000  17.0000000  17.0000000  17.0000000
 Leave Link  101 at Sat Jul 16 11:05:20 2022, MaxMem=  1342177280 cpu:              12.9 elap:               0.3
 (Enter /home/mkliu/g16/l103.exe)

 GradGradGradGradGradGradGradGradGradGradGradGradGradGradGradGradGradGrad
 Berny optimization.
 Initialization pass.
                           ----------------------------
                           !    Initial Parameters    !
                           ! (Angstroms and Degrees)  !
 --------------------------                            --------------------------
 ! Name  Definition              Value          Derivative Info.                !
 --------------------------------------------------------------------------------
 ! R1    R(1,2)                  1.5684         estimate D2E/DX2                !
 ! R2    R(1,4)                  1.5535         estimate D2E/DX2                !
 ! R3    R(1,7)                  1.499          estimate D2E/DX2                !
 ! R4    R(1,67)                 1.7859         estimate D2E/DX2                !
 ! R5    R(2,3)                  1.5515         estimate D2E/DX2                !
 ! R6    R(2,10)                 1.4973         estimate D2E/DX2                !
 ! R7    R(2,68)                 1.7867         estimate D2E/DX2                !
 ! R8    R(3,5)                  1.4869         estimate D2E/DX2                !
 ! R9    R(3,12)                 1.5052         estimate D2E/DX2                !
 ! R10   R(3,69)                 1.7785         estimate D2E/DX2                !
 ! R11   R(4,5)                  1.4888         estimate D2E/DX2                !
 ! R12   R(4,6)                  1.5045         estimate D2E/DX2                !
 ! R13   R(4,73)                 1.7811         estimate D2E/DX2                !
 ! R14   R(5,15)                 1.3249         estimate D2E/DX2                !
 ! R15   R(6,8)                  1.4178         estimate D2E/DX2                !
 ! R16   R(6,17)                 1.3631         estimate D2E/DX2                !
 ! R17   R(7,8)                  1.4027         estimate D2E/DX2                !
 ! R18   R(7,9)                  1.3899         estimate D2E/DX2                !
 ! R19   R(8,20)                 1.4038         estimate D2E/DX2                !
 ! R20   R(9,11)                 1.4641         estimate D2E/DX2                !
 ! R21   R(9,22)                 1.4138         estimate D2E/DX2                !
 ! R22   R(10,11)                1.3827         estimate D2E/DX2                !
 ! R23   R(10,13)                1.4152         estimate D2E/DX2                !
 ! R24   R(11,25)                1.4207         estimate D2E/DX2                !
 ! R25   R(12,13)                1.4093         estimate D2E/DX2                !
 ! R26   R(12,14)                1.3666         estimate D2E/DX2                !
 ! R27   R(13,27)                1.3919         estimate D2E/DX2                !
 ! R28   R(14,16)                1.5173         estimate D2E/DX2                !
 ! R29   R(14,29)                1.4502         estimate D2E/DX2                !
 ! R30   R(15,16)                1.5096         estimate D2E/DX2                !
 ! R31   R(15,18)                1.5066         estimate D2E/DX2                !
 ! R32   R(16,32)                1.4881         estimate D2E/DX2                !
 ! R33   R(16,70)                1.7984         estimate D2E/DX2                !
 ! R34   R(17,18)                1.5212         estimate D2E/DX2                !
 ! R35   R(17,19)                1.4524         estimate D2E/DX2                !
 ! R36   R(18,33)                1.4831         estimate D2E/DX2                !
 ! R37   R(18,74)                1.8181         estimate D2E/DX2                !
 ! R38   R(19,21)                1.4112         estimate D2E/DX2                !
 ! R39   R(19,35)                1.4251         estimate D2E/DX2                !
 ! R40   R(20,21)                1.4268         estimate D2E/DX2                !
 ! R41   R(20,23)                1.4191         estimate D2E/DX2                !
 ! R42   R(21,38)                1.5208         estimate D2E/DX2                !
 ! R43   R(22,23)                1.403          estimate D2E/DX2                !
 ! R44   R(22,24)                1.447          estimate D2E/DX2                !
 ! R45   R(23,40)                1.4451         estimate D2E/DX2                !
 ! R46   R(24,26)                1.3714         estimate D2E/DX2                !
 ! R47   R(24,41)                1.4398         estimate D2E/DX2                !
 ! R48   R(25,26)                1.4374         estimate D2E/DX2                !
 ! R49   R(25,28)                1.4033         estimate D2E/DX2                !
 ! R50   R(26,44)                1.4455         estimate D2E/DX2                !
 ! R51   R(27,28)                1.4104         estimate D2E/DX2                !
 ! R52   R(27,30)                1.4407         estimate D2E/DX2                !
 ! R53   R(28,45)                1.4491         estimate D2E/DX2                !
 ! R54   R(29,30)                1.384          estimate D2E/DX2                !
 ! R55   R(29,31)                1.5153         estimate D2E/DX2                !
 ! R56   R(30,47)                1.5228         estimate D2E/DX2                !
 ! R57   R(31,34)                1.51           estimate D2E/DX2                !
 ! R58   R(31,49)                1.5079         estimate D2E/DX2                !
 ! R59   R(31,71)                1.8085         estimate D2E/DX2                !
 ! R60   R(32,33)                1.4086         estimate D2E/DX2                !
 ! R61   R(32,34)                1.3653         estimate D2E/DX2                !
 ! R62   R(33,36)                1.3723         estimate D2E/DX2                !
 ! R63   R(34,51)                1.4189         estimate D2E/DX2                !
 ! R64   R(35,36)                1.445          estimate D2E/DX2                !
 ! R65   R(35,37)                1.4353         estimate D2E/DX2                !
 ! R66   R(36,52)                1.4311         estimate D2E/DX2                !
 ! R67   R(37,39)                1.376          estimate D2E/DX2                !
 ! R68   R(37,53)                1.4528         estimate D2E/DX2                !
 ! R69   R(38,39)                1.4985         estimate D2E/DX2                !
 ! R70   R(38,42)                1.5081         estimate D2E/DX2                !
 ! R71   R(38,75)                1.8282         estimate D2E/DX2                !
 ! R72   R(39,57)                1.42           estimate D2E/DX2                !
 ! R73   R(40,41)                1.4335         estimate D2E/DX2                !
 ! R74   R(40,42)                1.3709         estimate D2E/DX2                !
 ! R75   R(41,43)                1.3835         estimate D2E/DX2                !
 ! R76   R(42,58)                1.424          estimate D2E/DX2                !
 ! R77   R(43,46)                1.4408         estimate D2E/DX2                !
 ! R78   R(43,59)                1.4284         estimate D2E/DX2                !
 ! R79   R(44,45)                1.4305         estimate D2E/DX2                !
 ! R80   R(44,46)                1.3797         estimate D2E/DX2                !
 ! R81   R(45,48)                1.369          estimate D2E/DX2                !
 ! R82   R(46,61)                1.4312         estimate D2E/DX2                !
 ! R83   R(47,48)                1.5056         estimate D2E/DX2                !
 ! R84   R(47,50)                1.5014         estimate D2E/DX2                !
 ! R85   R(47,72)                1.8164         estimate D2E/DX2                !
 ! R86   R(48,62)                1.424          estimate D2E/DX2                !
 ! R87   R(49,50)                1.3554         estimate D2E/DX2                !
 ! R88   R(49,54)                1.4306         estimate D2E/DX2                !
 ! R89   R(50,63)                1.4301         estimate D2E/DX2                !
 ! R90   R(51,52)                1.3912         estimate D2E/DX2                !
 ! R91   R(51,54)                1.4297         estimate D2E/DX2                !
 ! R92   R(52,53)                1.4312         estimate D2E/DX2                !
 ! R93   R(53,55)                1.3818         estimate D2E/DX2                !
 ! R94   R(54,56)                1.3837         estimate D2E/DX2                !
 ! R95   R(55,56)                1.44           estimate D2E/DX2                !
 ! R96   R(55,60)                1.4333         estimate D2E/DX2                !
 ! R97   R(56,64)                1.4232         estimate D2E/DX2                !
 ! R98   R(57,58)                1.4381         estimate D2E/DX2                !
 ! R99   R(57,60)                1.3896         estimate D2E/DX2                !
 ! R100  R(58,59)                1.3897         estimate D2E/DX2                !
 ! R101  R(59,65)                1.4401         estimate D2E/DX2                !
 ! R102  R(60,66)                1.4307         estimate D2E/DX2                !
 ! R103  R(61,62)                1.3908         estimate D2E/DX2                !
 ! R104  R(61,65)                1.4383         estimate D2E/DX2                !
 ! R105  R(62,63)                1.433          estimate D2E/DX2                !
 ! R106  R(63,64)                1.378          estimate D2E/DX2                !
 ! R107  R(64,66)                1.4416         estimate D2E/DX2                !
 ! R108  R(65,66)                1.3856         estimate D2E/DX2                !
 ! A1    A(2,1,4)              107.0548         estimate D2E/DX2                !
 ! A2    A(2,1,7)              112.8883         estimate D2E/DX2                !
 ! A3    A(2,1,67)             112.2218         estimate D2E/DX2                !
 ! A4    A(4,1,7)              102.9608         estimate D2E/DX2                !
 ! A5    A(4,1,67)             113.4569         estimate D2E/DX2                !
 ! A6    A(7,1,67)             107.9772         estimate D2E/DX2                !
 ! A7    A(1,2,3)              107.2111         estimate D2E/DX2                !
 ! A8    A(1,2,10)             112.3816         estimate D2E/DX2                !
 ! A9    A(1,2,68)             112.0978         estimate D2E/DX2                !
 ! A10   A(3,2,10)             102.934          estimate D2E/DX2                !
 ! A11   A(3,2,68)             113.6661         estimate D2E/DX2                !
 ! A12   A(10,2,68)            108.2614         estimate D2E/DX2                !
 ! A13   A(2,3,5)              104.731          estimate D2E/DX2                !
 ! A14   A(2,3,12)             105.9198         estimate D2E/DX2                !
 ! A15   A(2,3,69)             116.0336         estimate D2E/DX2                !
 ! A16   A(5,3,12)             105.5515         estimate D2E/DX2                !
 ! A17   A(5,3,69)             111.0693         estimate D2E/DX2                !
 ! A18   A(12,3,69)            112.7016         estimate D2E/DX2                !
 ! A19   A(1,4,5)              104.6774         estimate D2E/DX2                !
 ! A20   A(1,4,6)              105.3959         estimate D2E/DX2                !
 ! A21   A(1,4,73)             115.7415         estimate D2E/DX2                !
 ! A22   A(5,4,6)              106.3274         estimate D2E/DX2                !
 ! A23   A(5,4,73)             110.6036         estimate D2E/DX2                !
 ! A24   A(6,4,73)             113.3141         estimate D2E/DX2                !
 ! A25   A(3,5,4)              113.121          estimate D2E/DX2                !
 ! A26   A(3,5,15)             122.6184         estimate D2E/DX2                !
 ! A27   A(4,5,15)             122.4946         estimate D2E/DX2                !
 ! A28   A(4,6,8)              109.3743         estimate D2E/DX2                !
 ! A29   A(4,6,17)             123.996          estimate D2E/DX2                !
 ! A30   A(8,6,17)             119.8622         estimate D2E/DX2                !
 ! A31   A(1,7,8)              111.364          estimate D2E/DX2                !
 ! A32   A(1,7,9)              124.8442         estimate D2E/DX2                !
 ! A33   A(8,7,9)              118.482          estimate D2E/DX2                !
 ! A34   A(6,8,7)              108.6112         estimate D2E/DX2                !
 ! A35   A(6,8,20)             121.0784         estimate D2E/DX2                !
 ! A36   A(7,8,20)             124.3047         estimate D2E/DX2                !
 ! A37   A(7,9,11)             116.7219         estimate D2E/DX2                !
 ! A38   A(7,9,22)             115.7166         estimate D2E/DX2                !
 ! A39   A(11,9,22)            117.8735         estimate D2E/DX2                !
 ! A40   A(2,10,11)            125.375          estimate D2E/DX2                !
 ! A41   A(2,10,13)            110.9918         estimate D2E/DX2                !
 ! A42   A(11,10,13)           117.8072         estimate D2E/DX2                !
 ! A43   A(9,11,10)            117.2185         estimate D2E/DX2                !
 ! A44   A(9,11,25)            118.2511         estimate D2E/DX2                !
 ! A45   A(10,11,25)           115.539          estimate D2E/DX2                !
 ! A46   A(3,12,13)            109.053          estimate D2E/DX2                !
 ! A47   A(3,12,14)            124.4002         estimate D2E/DX2                !
 ! A48   A(13,12,14)           119.89           estimate D2E/DX2                !
 ! A49   A(10,13,12)           109.0843         estimate D2E/DX2                !
 ! A50   A(10,13,27)           124.6888         estimate D2E/DX2                !
 ! A51   A(12,13,27)           120.566          estimate D2E/DX2                !
 ! A52   A(12,14,16)           117.3408         estimate D2E/DX2                !
 ! A53   A(12,14,29)           119.1742         estimate D2E/DX2                !
 ! A54   A(16,14,29)           121.7469         estimate D2E/DX2                !
 ! A55   A(5,15,16)            121.4926         estimate D2E/DX2                !
 ! A56   A(5,15,18)            121.1765         estimate D2E/DX2                !
 ! A57   A(16,15,18)           113.7689         estimate D2E/DX2                !
 ! A58   A(14,16,15)           108.4073         estimate D2E/DX2                !
 ! A59   A(14,16,32)           109.855          estimate D2E/DX2                !
 ! A60   A(14,16,70)           109.8831         estimate D2E/DX2                !
 ! A61   A(15,16,32)           100.9918         estimate D2E/DX2                !
 ! A62   A(15,16,70)           114.8718         estimate D2E/DX2                !
 ! A63   A(32,16,70)           112.4506         estimate D2E/DX2                !
 ! A64   A(6,17,18)            117.3929         estimate D2E/DX2                !
 ! A65   A(6,17,19)            119.2209         estimate D2E/DX2                !
 ! A66   A(18,17,19)           121.5789         estimate D2E/DX2                !
 ! A67   A(15,18,17)           109.4188         estimate D2E/DX2                !
 ! A68   A(15,18,33)           100.0371         estimate D2E/DX2                !
 ! A69   A(15,18,74)           113.4304         estimate D2E/DX2                !
 ! A70   A(17,18,33)           111.7157         estimate D2E/DX2                !
 ! A71   A(17,18,74)           109.0885         estimate D2E/DX2                !
 ! A72   A(33,18,74)           112.9157         estimate D2E/DX2                !
 ! A73   A(17,19,21)           119.0662         estimate D2E/DX2                !
 ! A74   A(17,19,35)           117.3828         estimate D2E/DX2                !
 ! A75   A(21,19,35)           119.5862         estimate D2E/DX2                !
 ! A76   A(8,20,21)            118.1088         estimate D2E/DX2                !
 ! A77   A(8,20,23)            114.4635         estimate D2E/DX2                !
 ! A78   A(21,20,23)           121.9155         estimate D2E/DX2                !
 ! A79   A(19,21,20)           120.2939         estimate D2E/DX2                !
 ! A80   A(19,21,38)           120.6324         estimate D2E/DX2                !
 ! A81   A(20,21,38)           117.3281         estimate D2E/DX2                !
 ! A82   A(9,22,23)            122.898          estimate D2E/DX2                !
 ! A83   A(9,22,24)            121.6472         estimate D2E/DX2                !
 ! A84   A(23,22,24)           107.2483         estimate D2E/DX2                !
 ! A85   A(20,23,22)           119.1817         estimate D2E/DX2                !
 ! A86   A(20,23,40)           119.5798         estimate D2E/DX2                !
 ! A87   A(22,23,40)           109.1406         estimate D2E/DX2                !
 ! A88   A(22,24,26)           119.4873         estimate D2E/DX2                !
 ! A89   A(22,24,41)           108.7008         estimate D2E/DX2                !
 ! A90   A(26,24,41)           120.1665         estimate D2E/DX2                !
 ! A91   A(11,25,26)           121.4267         estimate D2E/DX2                !
 ! A92   A(11,25,28)           122.7363         estimate D2E/DX2                !
 ! A93   A(26,25,28)           107.3477         estimate D2E/DX2                !
 ! A94   A(24,26,25)           119.7769         estimate D2E/DX2                !
 ! A95   A(24,26,44)           120.0631         estimate D2E/DX2                !
 ! A96   A(25,26,44)           108.745          estimate D2E/DX2                !
 ! A97   A(13,27,28)           114.4512         estimate D2E/DX2                !
 ! A98   A(13,27,30)           118.8118         estimate D2E/DX2                !
 ! A99   A(28,27,30)           121.8019         estimate D2E/DX2                !
 ! A100  A(25,28,27)           119.2392         estimate D2E/DX2                !
 ! A101  A(25,28,45)           109.2015         estimate D2E/DX2                !
 ! A102  A(27,28,45)           119.7444         estimate D2E/DX2                !
 ! A103  A(14,29,30)           119.5502         estimate D2E/DX2                !
 ! A104  A(14,29,31)           118.5985         estimate D2E/DX2                !
 ! A105  A(30,29,31)           120.8152         estimate D2E/DX2                !
 ! A106  A(27,30,29)           119.744          estimate D2E/DX2                !
 ! A107  A(27,30,47)           116.93           estimate D2E/DX2                !
 ! A108  A(29,30,47)           122.1215         estimate D2E/DX2                !
 ! A109  A(29,31,34)           109.1838         estimate D2E/DX2                !
 ! A110  A(29,31,49)           111.468          estimate D2E/DX2                !
 ! A111  A(29,31,71)           108.6583         estimate D2E/DX2                !
 ! A112  A(34,31,49)           100.7511         estimate D2E/DX2                !
 ! A113  A(34,31,71)           114.2123         estimate D2E/DX2                !
 ! A114  A(49,31,71)           112.4102         estimate D2E/DX2                !
 ! A115  A(16,32,33)           110.9787         estimate D2E/DX2                !
 ! A116  A(16,32,34)           121.987          estimate D2E/DX2                !
 ! A117  A(33,32,34)           120.8061         estimate D2E/DX2                !
 ! A118  A(18,33,32)           113.2185         estimate D2E/DX2                !
 ! A119  A(18,33,36)           119.6211         estimate D2E/DX2                !
 ! A120  A(32,33,36)           121.0045         estimate D2E/DX2                !
 ! A121  A(31,34,32)           123.2615         estimate D2E/DX2                !
 ! A122  A(31,34,51)           111.1818         estimate D2E/DX2                !
 ! A123  A(32,34,51)           118.9363         estimate D2E/DX2                !
 ! A124  A(19,35,36)           119.0001         estimate D2E/DX2                !
 ! A125  A(19,35,37)           120.1359         estimate D2E/DX2                !
 ! A126  A(36,35,37)           107.2943         estimate D2E/DX2                !
 ! A127  A(33,36,35)           122.4034         estimate D2E/DX2                !
 ! A128  A(33,36,52)           118.4288         estimate D2E/DX2                !
 ! A129  A(35,36,52)           109.1673         estimate D2E/DX2                !
 ! A130  A(35,37,39)           121.3262         estimate D2E/DX2                !
 ! A131  A(35,37,53)           107.4521         estimate D2E/DX2                !
 ! A132  A(39,37,53)           120.1561         estimate D2E/DX2                !
 ! A133  A(21,38,39)           112.5067         estimate D2E/DX2                !
 ! A134  A(21,38,42)           112.7789         estimate D2E/DX2                !
 ! A135  A(21,38,75)           105.9595         estimate D2E/DX2                !
 ! A136  A(39,38,42)           100.6641         estimate D2E/DX2                !
 ! A137  A(39,38,75)           112.9784         estimate D2E/DX2                !
 ! A138  A(42,38,75)           112.1476         estimate D2E/DX2                !
 ! A139  A(37,39,38)           121.2019         estimate D2E/DX2                !
 ! A140  A(37,39,57)           119.4831         estimate D2E/DX2                !
 ! A141  A(38,39,57)           111.5064         estimate D2E/DX2                !
 ! A142  A(23,40,41)           107.8796         estimate D2E/DX2                !
 ! A143  A(23,40,42)           120.1165         estimate D2E/DX2                !
 ! A144  A(41,40,42)           121.0979         estimate D2E/DX2                !
 ! A145  A(24,41,40)           106.8544         estimate D2E/DX2                !
 ! A146  A(24,41,43)           119.9081         estimate D2E/DX2                !
 ! A147  A(40,41,43)           120.1941         estimate D2E/DX2                !
 ! A148  A(38,42,40)           122.6113         estimate D2E/DX2                !
 ! A149  A(38,42,58)           111.3669         estimate D2E/DX2                !
 ! A150  A(40,42,58)           118.7167         estimate D2E/DX2                !
 ! A151  A(41,43,46)           120.002          estimate D2E/DX2                !
 ! A152  A(41,43,59)           118.9159         estimate D2E/DX2                !
 ! A153  A(46,43,59)           108.276          estimate D2E/DX2                !
 ! A154  A(26,44,45)           106.9196         estimate D2E/DX2                !
 ! A155  A(26,44,46)           119.9736         estimate D2E/DX2                !
 ! A156  A(45,44,46)           120.2047         estimate D2E/DX2                !
 ! A157  A(28,45,44)           107.5699         estimate D2E/DX2                !
 ! A158  A(28,45,48)           119.9166         estimate D2E/DX2                !
 ! A159  A(44,45,48)           121.6434         estimate D2E/DX2                !
 ! A160  A(43,46,44)           119.8384         estimate D2E/DX2                !
 ! A161  A(43,46,61)           108.5357         estimate D2E/DX2                !
 ! A162  A(44,46,61)           118.6636         estimate D2E/DX2                !
 ! A163  A(30,47,48)           112.4994         estimate D2E/DX2                !
 ! A164  A(30,47,50)           110.883          estimate D2E/DX2                !
 ! A165  A(30,47,72)           105.9373         estimate D2E/DX2                !
 ! A166  A(48,47,50)           101.348          estimate D2E/DX2                !
 ! A167  A(48,47,72)           113.5832         estimate D2E/DX2                !
 ! A168  A(50,47,72)           112.7485         estimate D2E/DX2                !
 ! A169  A(45,48,47)           122.9013         estimate D2E/DX2                !
 ! A170  A(45,48,62)           118.2865         estimate D2E/DX2                !
 ! A171  A(47,48,62)           111.3344         estimate D2E/DX2                !
 ! A172  A(31,49,50)           122.6027         estimate D2E/DX2                !
 ! A173  A(31,49,54)           110.7761         estimate D2E/DX2                !
 ! A174  A(50,49,54)           119.3529         estimate D2E/DX2                !
 ! A175  A(47,50,49)           122.3025         estimate D2E/DX2                !
 ! A176  A(47,50,63)           110.3173         estimate D2E/DX2                !
 ! A177  A(49,50,63)           119.79           estimate D2E/DX2                !
 ! A178  A(34,51,52)           120.3719         estimate D2E/DX2                !
 ! A179  A(34,51,54)           108.4695         estimate D2E/DX2                !
 ! A180  A(52,51,54)           120.1636         estimate D2E/DX2                !
 ! A181  A(36,52,51)           119.5372         estimate D2E/DX2                !
 ! A182  A(36,52,53)           107.0687         estimate D2E/DX2                !
 ! A183  A(51,52,53)           120.6377         estimate D2E/DX2                !
 ! A184  A(37,53,52)           108.7763         estimate D2E/DX2                !
 ! A185  A(37,53,55)           119.8487         estimate D2E/DX2                !
 ! A186  A(52,53,55)           119.2385         estimate D2E/DX2                !
 ! A187  A(49,54,51)           108.0903         estimate D2E/DX2                !
 ! A188  A(49,54,56)           121.1668         estimate D2E/DX2                !
 ! A189  A(51,54,56)           119.0297         estimate D2E/DX2                !
 ! A190  A(53,55,56)           119.9442         estimate D2E/DX2                !
 ! A191  A(53,55,60)           119.67           estimate D2E/DX2                !
 ! A192  A(56,55,60)           108.563          estimate D2E/DX2                !
 ! A193  A(54,56,55)           120.8345         estimate D2E/DX2                !
 ! A194  A(54,56,64)           119.3229         estimate D2E/DX2                !
 ! A195  A(55,56,64)           107.9403         estimate D2E/DX2                !
 ! A196  A(39,57,58)           108.2468         estimate D2E/DX2                !
 ! A197  A(39,57,60)           121.1202         estimate D2E/DX2                !
 ! A198  A(58,57,60)           119.6399         estimate D2E/DX2                !
 ! A199  A(42,58,57)           107.6399         estimate D2E/DX2                !
 ! A200  A(42,58,59)           120.8438         estimate D2E/DX2                !
 ! A201  A(57,58,59)           120.0589         estimate D2E/DX2                !
 ! A202  A(43,59,58)           120.1611         estimate D2E/DX2                !
 ! A203  A(43,59,65)           107.1838         estimate D2E/DX2                !
 ! A204  A(58,59,65)           119.9311         estimate D2E/DX2                !
 ! A205  A(55,60,57)           119.6282         estimate D2E/DX2                !
 ! A206  A(55,60,66)           107.0896         estimate D2E/DX2                !
 ! A207  A(57,60,66)           120.1526         estimate D2E/DX2                !
 ! A208  A(46,61,62)           120.2836         estimate D2E/DX2                !
 ! A209  A(46,61,65)           106.9445         estimate D2E/DX2                !
 ! A210  A(62,61,65)           119.942          estimate D2E/DX2                !
 ! A211  A(48,62,61)           120.8665         estimate D2E/DX2                !
 ! A212  A(48,62,63)           107.4743         estimate D2E/DX2                !
 ! A213  A(61,62,63)           120.182          estimate D2E/DX2                !
 ! A214  A(50,63,62)           108.9843         estimate D2E/DX2                !
 ! A215  A(50,63,64)           121.3975         estimate D2E/DX2                !
 ! A216  A(62,63,64)           119.5189         estimate D2E/DX2                !
 ! A217  A(56,64,63)           118.9081         estimate D2E/DX2                !
 ! A218  A(56,64,66)           107.6331         estimate D2E/DX2                !
 ! A219  A(63,64,66)           120.7908         estimate D2E/DX2                !
 ! A220  A(59,65,61)           109.0231         estimate D2E/DX2                !
 ! A221  A(59,65,66)           119.684          estimate D2E/DX2                !
 ! A222  A(61,65,66)           119.8741         estimate D2E/DX2                !
 ! A223  A(60,66,64)           108.7482         estimate D2E/DX2                !
 ! A224  A(60,66,65)           120.3334         estimate D2E/DX2                !
 ! A225  A(64,66,65)           119.4697         estimate D2E/DX2                !
 ! D1    D(4,1,2,3)             -0.187          estimate D2E/DX2                !
 ! D2    D(4,1,2,10)          -112.5808         estimate D2E/DX2                !
 ! D3    D(4,1,2,68)           125.2148         estimate D2E/DX2                !
 ! D4    D(7,1,2,3)            112.4048         estimate D2E/DX2                !
 ! D5    D(7,1,2,10)             0.0111         estimate D2E/DX2                !
 ! D6    D(7,1,2,68)          -122.1933         estimate D2E/DX2                !
 ! D7    D(67,1,2,3)          -125.294          estimate D2E/DX2                !
 ! D8    D(67,1,2,10)          122.3123         estimate D2E/DX2                !
 ! D9    D(67,1,2,68)            0.1079         estimate D2E/DX2                !
 ! D10   D(2,1,4,5)             10.5054         estimate D2E/DX2                !
 ! D11   D(2,1,4,6)            122.4401         estimate D2E/DX2                !
 ! D12   D(2,1,4,73)          -111.5093         estimate D2E/DX2                !
 ! D13   D(7,1,4,5)           -108.7081         estimate D2E/DX2                !
 ! D14   D(7,1,4,6)              3.2266         estimate D2E/DX2                !
 ! D15   D(7,1,4,73)           129.2772         estimate D2E/DX2                !
 ! D16   D(67,1,4,5)           134.8619         estimate D2E/DX2                !
 ! D17   D(67,1,4,6)          -113.2033         estimate D2E/DX2                !
 ! D18   D(67,1,4,73)           12.8473         estimate D2E/DX2                !
 ! D19   D(2,1,7,8)           -126.8601         estimate D2E/DX2                !
 ! D20   D(2,1,7,9)             26.8098         estimate D2E/DX2                !
 ! D21   D(4,1,7,8)            -11.783          estimate D2E/DX2                !
 ! D22   D(4,1,7,9)            141.8869         estimate D2E/DX2                !
 ! D23   D(67,1,7,8)           108.4892         estimate D2E/DX2                !
 ! D24   D(67,1,7,9)           -97.841          estimate D2E/DX2                !
 ! D25   D(1,2,3,5)            -10.2225         estimate D2E/DX2                !
 ! D26   D(1,2,3,12)          -121.5234         estimate D2E/DX2                !
 ! D27   D(1,2,3,69)           112.6054         estimate D2E/DX2                !
 ! D28   D(10,2,3,5)           108.472          estimate D2E/DX2                !
 ! D29   D(10,2,3,12)           -2.829          estimate D2E/DX2                !
 ! D30   D(10,2,3,69)         -128.7002         estimate D2E/DX2                !
 ! D31   D(68,2,3,5)          -134.6765         estimate D2E/DX2                !
 ! D32   D(68,2,3,12)          114.0226         estimate D2E/DX2                !
 ! D33   D(68,2,3,69)          -11.8486         estimate D2E/DX2                !
 ! D34   D(1,2,10,11)          -26.4595         estimate D2E/DX2                !
 ! D35   D(1,2,10,13)          125.8192         estimate D2E/DX2                !
 ! D36   D(3,2,10,11)         -141.4773         estimate D2E/DX2                !
 ! D37   D(3,2,10,13)           10.8014         estimate D2E/DX2                !
 ! D38   D(68,2,10,11)          97.8937         estimate D2E/DX2                !
 ! D39   D(68,2,10,13)        -109.8276         estimate D2E/DX2                !
 ! D40   D(2,3,5,4)             18.122          estimate D2E/DX2                !
 ! D41   D(2,3,5,15)          -147.0671         estimate D2E/DX2                !
 ! D42   D(12,3,5,4)           129.6873         estimate D2E/DX2                !
 ! D43   D(12,3,5,15)          -35.5018         estimate D2E/DX2                !
 ! D44   D(69,3,5,4)          -107.8662         estimate D2E/DX2                !
 ! D45   D(69,3,5,15)           86.9447         estimate D2E/DX2                !
 ! D46   D(2,3,12,13)           -5.884          estimate D2E/DX2                !
 ! D47   D(2,3,12,14)          145.2133         estimate D2E/DX2                !
 ! D48   D(5,3,12,13)         -116.607          estimate D2E/DX2                !
 ! D49   D(5,3,12,14)           34.4904         estimate D2E/DX2                !
 ! D50   D(69,3,12,13)         121.9992         estimate D2E/DX2                !
 ! D51   D(69,3,12,14)         -86.9035         estimate D2E/DX2                !
 ! D52   D(1,4,5,3)            -18.2352         estimate D2E/DX2                !
 ! D53   D(1,4,5,15)           146.9748         estimate D2E/DX2                !
 ! D54   D(6,4,5,3)           -129.5015         estimate D2E/DX2                !
 ! D55   D(6,4,5,15)            35.7085         estimate D2E/DX2                !
 ! D56   D(73,4,5,3)           107.0825         estimate D2E/DX2                !
 ! D57   D(73,4,5,15)          -87.7075         estimate D2E/DX2                !
 ! D58   D(1,4,6,8)              6.0056         estimate D2E/DX2                !
 ! D59   D(1,4,6,17)          -144.8947         estimate D2E/DX2                !
 ! D60   D(5,4,6,8)            116.7694         estimate D2E/DX2                !
 ! D61   D(5,4,6,17)           -34.1308         estimate D2E/DX2                !
 ! D62   D(73,4,6,8)          -121.5262         estimate D2E/DX2                !
 ! D63   D(73,4,6,17)           87.5735         estimate D2E/DX2                !
 ! D64   D(3,5,15,16)            2.6191         estimate D2E/DX2                !
 ! D65   D(3,5,15,18)          160.0074         estimate D2E/DX2                !
 ! D66   D(4,5,15,16)         -161.1962         estimate D2E/DX2                !
 ! D67   D(4,5,15,18)           -3.8079         estimate D2E/DX2                !
 ! D68   D(4,6,8,7)            -13.6142         estimate D2E/DX2                !
 ! D69   D(4,6,8,20)          -167.4236         estimate D2E/DX2                !
 ! D70   D(17,6,8,7)           138.6795         estimate D2E/DX2                !
 ! D71   D(17,6,8,20)          -15.1299         estimate D2E/DX2                !
 ! D72   D(4,6,17,18)            0.687          estimate D2E/DX2                !
 ! D73   D(4,6,17,19)          165.6288         estimate D2E/DX2                !
 ! D74   D(8,6,17,18)         -147.3728         estimate D2E/DX2                !
 ! D75   D(8,6,17,19)           17.5689         estimate D2E/DX2                !
 ! D76   D(1,7,8,6)             16.2081         estimate D2E/DX2                !
 ! D77   D(1,7,8,20)           168.9754         estimate D2E/DX2                !
 ! D78   D(9,7,8,6)           -139.3264         estimate D2E/DX2                !
 ! D79   D(9,7,8,20)            13.4408         estimate D2E/DX2                !
 ! D80   D(1,7,9,11)           -28.2869         estimate D2E/DX2                !
 ! D81   D(1,7,9,22)          -173.7166         estimate D2E/DX2                !
 ! D82   D(8,7,9,11)           123.6825         estimate D2E/DX2                !
 ! D83   D(8,7,9,22)           -21.7472         estimate D2E/DX2                !
 ! D84   D(6,8,20,21)            2.3917         estimate D2E/DX2                !
 ! D85   D(6,8,20,23)          156.7461         estimate D2E/DX2                !
 ! D86   D(7,8,20,21)         -147.1867         estimate D2E/DX2                !
 ! D87   D(7,8,20,23)            7.1676         estimate D2E/DX2                !
 ! D88   D(7,9,11,10)            0.9338         estimate D2E/DX2                !
 ! D89   D(7,9,11,25)         -144.8319         estimate D2E/DX2                !
 ! D90   D(22,9,11,10)         145.6021         estimate D2E/DX2                !
 ! D91   D(22,9,11,25)          -0.1637         estimate D2E/DX2                !
 ! D92   D(7,9,22,23)           10.8162         estimate D2E/DX2                !
 ! D93   D(7,9,22,24)          155.2581         estimate D2E/DX2                !
 ! D94   D(11,9,22,23)        -134.2008         estimate D2E/DX2                !
 ! D95   D(11,9,22,24)          10.2412         estimate D2E/DX2                !
 ! D96   D(2,10,11,9)           27.034          estimate D2E/DX2                !
 ! D97   D(2,10,11,25)         173.7199         estimate D2E/DX2                !
 ! D98   D(13,10,11,9)        -123.5599         estimate D2E/DX2                !
 ! D99   D(13,10,11,25)         23.1261         estimate D2E/DX2                !
 ! D100  D(2,10,13,12)         -15.203          estimate D2E/DX2                !
 ! D101  D(2,10,13,27)        -168.5692         estimate D2E/DX2                !
 ! D102  D(11,10,13,12)        139.405          estimate D2E/DX2                !
 ! D103  D(11,10,13,27)        -13.9612         estimate D2E/DX2                !
 ! D104  D(9,11,25,26)          -9.9217         estimate D2E/DX2                !
 ! D105  D(9,11,25,28)         134.0025         estimate D2E/DX2                !
 ! D106  D(10,11,25,26)       -156.2483         estimate D2E/DX2                !
 ! D107  D(10,11,25,28)        -12.3242         estimate D2E/DX2                !
 ! D108  D(3,12,13,10)          12.902          estimate D2E/DX2                !
 ! D109  D(3,12,13,27)         167.5555         estimate D2E/DX2                !
 ! D110  D(14,12,13,10)       -139.7121         estimate D2E/DX2                !
 ! D111  D(14,12,13,27)         14.9414         estimate D2E/DX2                !
 ! D112  D(3,12,14,16)          -0.3538         estimate D2E/DX2                !
 ! D113  D(3,12,14,29)        -165.6063         estimate D2E/DX2                !
 ! D114  D(13,12,14,16)        147.8475         estimate D2E/DX2                !
 ! D115  D(13,12,14,29)        -17.405          estimate D2E/DX2                !
 ! D116  D(10,13,27,28)         -7.8128         estimate D2E/DX2                !
 ! D117  D(10,13,27,30)        147.8014         estimate D2E/DX2                !
 ! D118  D(12,13,27,28)       -158.3396         estimate D2E/DX2                !
 ! D119  D(12,13,27,30)         -2.7254         estimate D2E/DX2                !
 ! D120  D(12,14,16,15)        -33.485          estimate D2E/DX2                !
 ! D121  D(12,14,16,32)       -142.9862         estimate D2E/DX2                !
 ! D122  D(12,14,16,70)         92.7948         estimate D2E/DX2                !
 ! D123  D(29,14,16,15)        131.3634         estimate D2E/DX2                !
 ! D124  D(29,14,16,32)         21.8622         estimate D2E/DX2                !
 ! D125  D(29,14,16,70)       -102.3568         estimate D2E/DX2                !
 ! D126  D(12,14,29,30)          8.0245         estimate D2E/DX2                !
 ! D127  D(12,14,29,31)        176.4825         estimate D2E/DX2                !
 ! D128  D(16,14,29,30)       -156.5546         estimate D2E/DX2                !
 ! D129  D(16,14,29,31)         11.9034         estimate D2E/DX2                !
 ! D130  D(5,15,16,14)          33.455          estimate D2E/DX2                !
 ! D131  D(5,15,16,32)         148.8771         estimate D2E/DX2                !
 ! D132  D(5,15,16,70)         -89.8686         estimate D2E/DX2                !
 ! D133  D(18,15,16,14)       -125.4789         estimate D2E/DX2                !
 ! D134  D(18,15,16,32)        -10.0568         estimate D2E/DX2                !
 ! D135  D(18,15,16,70)        111.1975         estimate D2E/DX2                !
 ! D136  D(5,15,18,17)         -31.6863         estimate D2E/DX2                !
 ! D137  D(5,15,18,33)        -149.1257         estimate D2E/DX2                !
 ! D138  D(5,15,18,74)          90.3656         estimate D2E/DX2                !
 ! D139  D(16,15,18,17)        127.3216         estimate D2E/DX2                !
 ! D140  D(16,15,18,33)          9.8822         estimate D2E/DX2                !
 ! D141  D(16,15,18,74)       -110.6264         estimate D2E/DX2                !
 ! D142  D(14,16,32,33)        120.2985         estimate D2E/DX2                !
 ! D143  D(14,16,32,34)        -32.0956         estimate D2E/DX2                !
 ! D144  D(15,16,32,33)          5.9591         estimate D2E/DX2                !
 ! D145  D(15,16,32,34)       -146.4349         estimate D2E/DX2                !
 ! D146  D(70,16,32,33)       -116.9865         estimate D2E/DX2                !
 ! D147  D(70,16,32,34)         90.6195         estimate D2E/DX2                !
 ! D148  D(6,17,18,15)          32.339          estimate D2E/DX2                !
 ! D149  D(6,17,18,33)         142.1739         estimate D2E/DX2                !
 ! D150  D(6,17,18,74)         -92.2819         estimate D2E/DX2                !
 ! D151  D(19,17,18,15)       -132.2257         estimate D2E/DX2                !
 ! D152  D(19,17,18,33)        -22.3907         estimate D2E/DX2                !
 ! D153  D(19,17,18,74)        103.1534         estimate D2E/DX2                !
 ! D154  D(6,17,19,21)          -7.8446         estimate D2E/DX2                !
 ! D155  D(6,17,19,35)        -165.37           estimate D2E/DX2                !
 ! D156  D(18,17,19,21)        156.4456         estimate D2E/DX2                !
 ! D157  D(18,17,19,35)         -1.0798         estimate D2E/DX2                !
 ! D158  D(15,18,33,32)         -5.7571         estimate D2E/DX2                !
 ! D159  D(15,18,33,36)        146.9493         estimate D2E/DX2                !
 ! D160  D(17,18,33,32)       -121.4737         estimate D2E/DX2                !
 ! D161  D(17,18,33,36)         31.2327         estimate D2E/DX2                !
 ! D162  D(74,18,33,32)        115.1226         estimate D2E/DX2                !
 ! D163  D(74,18,33,36)        -92.1709         estimate D2E/DX2                !
 ! D164  D(17,19,21,20)         -4.7224         estimate D2E/DX2                !
 ! D165  D(17,19,21,38)       -169.2725         estimate D2E/DX2                !
 ! D166  D(35,19,21,20)        152.3022         estimate D2E/DX2                !
 ! D167  D(35,19,21,38)        -12.2479         estimate D2E/DX2                !
 ! D168  D(17,19,35,36)         17.6314         estimate D2E/DX2                !
 ! D169  D(17,19,35,37)        153.2588         estimate D2E/DX2                !
 ! D170  D(21,19,35,36)       -139.7728         estimate D2E/DX2                !
 ! D171  D(21,19,35,37)         -4.1454         estimate D2E/DX2                !
 ! D172  D(8,20,21,19)           7.2791         estimate D2E/DX2                !
 ! D173  D(8,20,21,38)         172.3267         estimate D2E/DX2                !
 ! D174  D(23,20,21,19)       -145.0683         estimate D2E/DX2                !
 ! D175  D(23,20,21,38)         19.9793         estimate D2E/DX2                !
 ! D176  D(8,20,23,22)         -18.2403         estimate D2E/DX2                !
 ! D177  D(8,20,23,40)        -156.7289         estimate D2E/DX2                !
 ! D178  D(21,20,23,22)        135.0323         estimate D2E/DX2                !
 ! D179  D(21,20,23,40)         -3.4562         estimate D2E/DX2                !
 ! D180  D(19,21,38,39)         24.1874         estimate D2E/DX2                !
 ! D181  D(19,21,38,42)        137.2196         estimate D2E/DX2                !
 ! D182  D(19,21,38,75)        -99.7306         estimate D2E/DX2                !
 ! D183  D(20,21,38,39)       -140.8069         estimate D2E/DX2                !
 ! D184  D(20,21,38,42)        -27.7747         estimate D2E/DX2                !
 ! D185  D(20,21,38,75)         95.2751         estimate D2E/DX2                !
 ! D186  D(9,22,23,20)           9.8838         estimate D2E/DX2                !
 ! D187  D(9,22,23,40)         152.2857         estimate D2E/DX2                !
 ! D188  D(24,22,23,20)       -138.8937         estimate D2E/DX2                !
 ! D189  D(24,22,23,40)          3.5082         estimate D2E/DX2                !
 ! D190  D(9,22,24,26)         -10.4109         estimate D2E/DX2                !
 ! D191  D(9,22,24,41)        -153.6257         estimate D2E/DX2                !
 ! D192  D(23,22,24,26)        138.841          estimate D2E/DX2                !
 ! D193  D(23,22,24,41)         -4.3738         estimate D2E/DX2                !
 ! D194  D(20,23,40,41)        140.8678         estimate D2E/DX2                !
 ! D195  D(20,23,40,42)         -3.6739         estimate D2E/DX2                !
 ! D196  D(22,23,40,41)         -1.3609         estimate D2E/DX2                !
 ! D197  D(22,23,40,42)       -145.9026         estimate D2E/DX2                !
 ! D198  D(22,24,26,25)          0.125          estimate D2E/DX2                !
 ! D199  D(22,24,26,44)       -139.2489         estimate D2E/DX2                !
 ! D200  D(41,24,26,25)        139.1255         estimate D2E/DX2                !
 ! D201  D(41,24,26,44)         -0.2484         estimate D2E/DX2                !
 ! D202  D(22,24,41,40)          3.5194         estimate D2E/DX2                !
 ! D203  D(22,24,41,43)        144.8259         estimate D2E/DX2                !
 ! D204  D(26,24,41,40)       -139.4027         estimate D2E/DX2                !
 ! D205  D(26,24,41,43)          1.9038         estimate D2E/DX2                !
 ! D206  D(11,25,26,24)         10.0621         estimate D2E/DX2                !
 ! D207  D(11,25,26,44)        153.5428         estimate D2E/DX2                !
 ! D208  D(28,25,26,24)       -138.6773         estimate D2E/DX2                !
 ! D209  D(28,25,26,44)          4.8035         estimate D2E/DX2                !
 ! D210  D(11,25,28,27)         -9.6096         estimate D2E/DX2                !
 ! D211  D(11,25,28,45)       -152.4563         estimate D2E/DX2                !
 ! D212  D(26,25,28,27)        138.6264         estimate D2E/DX2                !
 ! D213  D(26,25,28,45)         -4.2203         estimate D2E/DX2                !
 ! D214  D(24,26,44,45)        139.8404         estimate D2E/DX2                !
 ! D215  D(24,26,44,46)         -1.648          estimate D2E/DX2                !
 ! D216  D(25,26,44,45)         -3.5181         estimate D2E/DX2                !
 ! D217  D(25,26,44,46)       -145.0066         estimate D2E/DX2                !
 ! D218  D(13,27,28,25)         18.9705         estimate D2E/DX2                !
 ! D219  D(13,27,28,45)        157.9067         estimate D2E/DX2                !
 ! D220  D(30,27,28,25)       -135.8364         estimate D2E/DX2                !
 ! D221  D(30,27,28,45)          3.0999         estimate D2E/DX2                !
 ! D222  D(13,27,30,29)         -6.5451         estimate D2E/DX2                !
 ! D223  D(13,27,30,47)       -174.2738         estimate D2E/DX2                !
 ! D224  D(28,27,30,29)        147.2079         estimate D2E/DX2                !
 ! D225  D(28,27,30,47)        -20.5208         estimate D2E/DX2                !
 ! D226  D(25,28,45,44)          2.0681         estimate D2E/DX2                !
 ! D227  D(25,28,45,48)        146.8637         estimate D2E/DX2                !
 ! D228  D(27,28,45,44)       -140.5612         estimate D2E/DX2                !
 ! D229  D(27,28,45,48)          4.2344         estimate D2E/DX2                !
 ! D230  D(14,29,30,27)          3.9824         estimate D2E/DX2                !
 ! D231  D(14,29,30,47)        171.0534         estimate D2E/DX2                !
 ! D232  D(31,29,30,27)       -164.2143         estimate D2E/DX2                !
 ! D233  D(31,29,30,47)          2.8567         estimate D2E/DX2                !
 ! D234  D(14,29,31,34)        -35.3143         estimate D2E/DX2                !
 ! D235  D(14,29,31,49)       -145.7441         estimate D2E/DX2                !
 ! D236  D(14,29,31,71)         89.8415         estimate D2E/DX2                !
 ! D237  D(30,29,31,34)        132.9925         estimate D2E/DX2                !
 ! D238  D(30,29,31,49)         22.5627         estimate D2E/DX2                !
 ! D239  D(30,29,31,71)       -101.8517         estimate D2E/DX2                !
 ! D240  D(27,30,47,48)         28.9192         estimate D2E/DX2                !
 ! D241  D(27,30,47,50)        141.6238         estimate D2E/DX2                !
 ! D242  D(27,30,47,72)        -95.7357         estimate D2E/DX2                !
 ! D243  D(29,30,47,48)       -138.4955         estimate D2E/DX2                !
 ! D244  D(29,30,47,50)        -25.7908         estimate D2E/DX2                !
 ! D245  D(29,30,47,72)         96.8496         estimate D2E/DX2                !
 ! D246  D(29,31,34,32)         26.8651         estimate D2E/DX2                !
 ! D247  D(29,31,34,51)       -124.1479         estimate D2E/DX2                !
 ! D248  D(49,31,34,32)        144.2835         estimate D2E/DX2                !
 ! D249  D(49,31,34,51)         -6.7295         estimate D2E/DX2                !
 ! D250  D(71,31,34,32)        -94.9956         estimate D2E/DX2                !
 ! D251  D(71,31,34,51)        113.9914         estimate D2E/DX2                !
 ! D252  D(29,31,49,50)        -25.5427         estimate D2E/DX2                !
 ! D253  D(29,31,49,54)        124.3397         estimate D2E/DX2                !
 ! D254  D(34,31,49,50)       -141.2693         estimate D2E/DX2                !
 ! D255  D(34,31,49,54)          8.6132         estimate D2E/DX2                !
 ! D256  D(71,31,49,50)         96.7356         estimate D2E/DX2                !
 ! D257  D(71,31,49,54)       -113.382          estimate D2E/DX2                !
 ! D258  D(16,32,33,18)         -0.1319         estimate D2E/DX2                !
 ! D259  D(16,32,33,36)       -152.4172         estimate D2E/DX2                !
 ! D260  D(34,32,33,18)        152.636          estimate D2E/DX2                !
 ! D261  D(34,32,33,36)          0.3507         estimate D2E/DX2                !
 ! D262  D(16,32,34,31)          7.6354         estimate D2E/DX2                !
 ! D263  D(16,32,34,51)        156.549          estimate D2E/DX2                !
 ! D264  D(33,32,34,31)       -142.1163         estimate D2E/DX2                !
 ! D265  D(33,32,34,51)          6.7973         estimate D2E/DX2                !
 ! D266  D(18,33,36,35)        -17.1649         estimate D2E/DX2                !
 ! D267  D(18,33,36,52)       -158.9594         estimate D2E/DX2                !
 ! D268  D(32,33,36,35)        133.3856         estimate D2E/DX2                !
 ! D269  D(32,33,36,52)         -8.4089         estimate D2E/DX2                !
 ! D270  D(31,34,51,52)        146.693          estimate D2E/DX2                !
 ! D271  D(31,34,51,54)          2.6203         estimate D2E/DX2                !
 ! D272  D(32,34,51,52)         -5.7246         estimate D2E/DX2                !
 ! D273  D(32,34,51,54)       -149.7972         estimate D2E/DX2                !
 ! D274  D(19,35,36,33)         -9.121          estimate D2E/DX2                !
 ! D275  D(19,35,36,52)        135.7218         estimate D2E/DX2                !
 ! D276  D(37,35,36,33)       -149.8169         estimate D2E/DX2                !
 ! D277  D(37,35,36,52)         -4.9741         estimate D2E/DX2                !
 ! D278  D(19,35,37,39)          6.9243         estimate D2E/DX2                !
 ! D279  D(19,35,37,53)       -136.9581         estimate D2E/DX2                !
 ! D280  D(36,35,37,39)        147.0876         estimate D2E/DX2                !
 ! D281  D(36,35,37,53)          3.2052         estimate D2E/DX2                !
 ! D282  D(33,36,52,51)          9.3134         estimate D2E/DX2                !
 ! D283  D(33,36,52,53)        151.1916         estimate D2E/DX2                !
 ! D284  D(35,36,52,51)       -137.1252         estimate D2E/DX2                !
 ! D285  D(35,36,52,53)          4.7529         estimate D2E/DX2                !
 ! D286  D(35,37,39,38)          7.1599         estimate D2E/DX2                !
 ! D287  D(35,37,39,57)       -139.435          estimate D2E/DX2                !
 ! D288  D(53,37,39,38)        146.5937         estimate D2E/DX2                !
 ! D289  D(53,37,39,57)         -0.0012         estimate D2E/DX2                !
 ! D290  D(35,37,53,52)         -0.3207         estimate D2E/DX2                !
 ! D291  D(35,37,53,55)        141.8545         estimate D2E/DX2                !
 ! D292  D(39,37,53,52)       -144.7063         estimate D2E/DX2                !
 ! D293  D(39,37,53,55)         -2.531          estimate D2E/DX2                !
 ! D294  D(21,38,39,37)        -21.6104         estimate D2E/DX2                !
 ! D295  D(21,38,39,57)        127.3839         estimate D2E/DX2                !
 ! D296  D(42,38,39,37)       -141.9076         estimate D2E/DX2                !
 ! D297  D(42,38,39,57)          7.0867         estimate D2E/DX2                !
 ! D298  D(75,38,39,37)         98.3218         estimate D2E/DX2                !
 ! D299  D(75,38,39,57)       -112.6839         estimate D2E/DX2                !
 ! D300  D(21,38,42,40)         22.109          estimate D2E/DX2                !
 ! D301  D(21,38,42,58)       -127.5251         estimate D2E/DX2                !
 ! D302  D(39,38,42,40)        142.2112         estimate D2E/DX2                !
 ! D303  D(39,38,42,58)         -7.423          estimate D2E/DX2                !
 ! D304  D(75,38,42,40)        -97.422          estimate D2E/DX2                !
 ! D305  D(75,38,42,58)        112.9439         estimate D2E/DX2                !
 ! D306  D(37,39,57,58)        145.1514         estimate D2E/DX2                !
 ! D307  D(37,39,57,60)          1.3176         estimate D2E/DX2                !
 ! D308  D(38,39,57,58)         -4.4405         estimate D2E/DX2                !
 ! D309  D(38,39,57,60)       -148.2743         estimate D2E/DX2                !
 ! D310  D(23,40,41,24)         -1.3594         estimate D2E/DX2                !
 ! D311  D(23,40,41,43)       -142.5331         estimate D2E/DX2                !
 ! D312  D(42,40,41,24)        142.7656         estimate D2E/DX2                !
 ! D313  D(42,40,41,43)          1.5919         estimate D2E/DX2                !
 ! D314  D(23,40,42,38)         -6.795          estimate D2E/DX2                !
 ! D315  D(23,40,42,58)        140.7392         estimate D2E/DX2                !
 ! D316  D(41,40,42,38)       -146.6478         estimate D2E/DX2                !
 ! D317  D(41,40,42,58)          0.8864         estimate D2E/DX2                !
 ! D318  D(24,41,43,46)         -1.6667         estimate D2E/DX2                !
 ! D319  D(24,41,43,59)       -138.7748         estimate D2E/DX2                !
 ! D320  D(40,41,43,46)        134.5276         estimate D2E/DX2                !
 ! D321  D(40,41,43,59)         -2.5805         estimate D2E/DX2                !
 ! D322  D(38,42,58,57)          5.2776         estimate D2E/DX2                !
 ! D323  D(38,42,58,59)        148.6061         estimate D2E/DX2                !
 ! D324  D(40,42,58,57)       -145.6745         estimate D2E/DX2                !
 ! D325  D(40,42,58,59)         -2.346          estimate D2E/DX2                !
 ! D326  D(41,43,46,44)         -0.2235         estimate D2E/DX2                !
 ! D327  D(41,43,46,61)       -141.0781         estimate D2E/DX2                !
 ! D328  D(59,43,46,44)        140.9169         estimate D2E/DX2                !
 ! D329  D(59,43,46,61)          0.0624         estimate D2E/DX2                !
 ! D330  D(41,43,59,58)          1.1381         estimate D2E/DX2                !
 ! D331  D(41,43,59,65)        142.7435         estimate D2E/DX2                !
 ! D332  D(46,43,59,58)       -140.4923         estimate D2E/DX2                !
 ! D333  D(46,43,59,65)          1.1131         estimate D2E/DX2                !
 ! D334  D(26,44,45,28)          0.9211         estimate D2E/DX2                !
 ! D335  D(26,44,45,48)       -143.1389         estimate D2E/DX2                !
 ! D336  D(46,44,45,28)        142.3027         estimate D2E/DX2                !
 ! D337  D(46,44,45,48)         -1.7572         estimate D2E/DX2                !
 ! D338  D(26,44,46,43)          1.8777         estimate D2E/DX2                !
 ! D339  D(26,44,46,61)        138.8667         estimate D2E/DX2                !
 ! D340  D(45,44,46,43)       -134.5473         estimate D2E/DX2                !
 ! D341  D(45,44,46,61)          2.4417         estimate D2E/DX2                !
 ! D342  D(28,45,48,47)          7.0596         estimate D2E/DX2                !
 ! D343  D(28,45,48,62)       -140.1044         estimate D2E/DX2                !
 ! D344  D(44,45,48,47)        146.8505         estimate D2E/DX2                !
 ! D345  D(44,45,48,62)         -0.3135         estimate D2E/DX2                !
 ! D346  D(43,46,61,62)        140.245          estimate D2E/DX2                !
 ! D347  D(43,46,61,65)         -1.2125         estimate D2E/DX2                !
 ! D348  D(44,46,61,62)         -1.1401         estimate D2E/DX2                !
 ! D349  D(44,46,61,65)       -142.5976         estimate D2E/DX2                !
 ! D350  D(30,47,48,45)        -23.2738         estimate D2E/DX2                !
 ! D351  D(30,47,48,62)        125.888          estimate D2E/DX2                !
 ! D352  D(50,47,48,45)       -141.7405         estimate D2E/DX2                !
 ! D353  D(50,47,48,62)          7.4212         estimate D2E/DX2                !
 ! D354  D(72,47,48,45)         97.0647         estimate D2E/DX2                !
 ! D355  D(72,47,48,62)       -113.7735         estimate D2E/DX2                !
 ! D356  D(30,47,50,49)         23.3339         estimate D2E/DX2                !
 ! D357  D(30,47,50,63)       -126.081          estimate D2E/DX2                !
 ! D358  D(48,47,50,49)        142.9584         estimate D2E/DX2                !
 ! D359  D(48,47,50,63)         -6.4564         estimate D2E/DX2                !
 ! D360  D(72,47,50,49)        -95.2637         estimate D2E/DX2                !
 ! D361  D(72,47,50,63)        115.3215         estimate D2E/DX2                !
 ! D362  D(45,48,62,61)          1.6334         estimate D2E/DX2                !
 ! D363  D(45,48,62,63)        144.9741         estimate D2E/DX2                !
 ! D364  D(47,48,62,61)       -149.1075         estimate D2E/DX2                !
 ! D365  D(47,48,62,63)         -5.7668         estimate D2E/DX2                !
 ! D366  D(31,49,50,47)          2.152          estimate D2E/DX2                !
 ! D367  D(31,49,50,63)        148.7974         estimate D2E/DX2                !
 ! D368  D(54,49,50,47)       -145.2834         estimate D2E/DX2                !
 ! D369  D(54,49,50,63)          1.362          estimate D2E/DX2                !
 ! D370  D(31,49,54,51)         -7.6551         estimate D2E/DX2                !
 ! D371  D(31,49,54,56)       -150.2334         estimate D2E/DX2                !
 ! D372  D(50,49,54,51)        143.3342         estimate D2E/DX2                !
 ! D373  D(50,49,54,56)          0.7559         estimate D2E/DX2                !
 ! D374  D(47,50,63,62)          3.4681         estimate D2E/DX2                !
 ! D375  D(47,50,63,64)        148.5936         estimate D2E/DX2                !
 ! D376  D(49,50,63,62)       -146.8252         estimate D2E/DX2                !
 ! D377  D(49,50,63,64)         -1.6997         estimate D2E/DX2                !
 ! D378  D(34,51,52,36)         -2.3273         estimate D2E/DX2                !
 ! D379  D(34,51,52,53)       -139.0217         estimate D2E/DX2                !
 ! D380  D(54,51,52,36)        137.6047         estimate D2E/DX2                !
 ! D381  D(54,51,52,53)          0.9104         estimate D2E/DX2                !
 ! D382  D(34,51,54,49)          3.0668         estimate D2E/DX2                !
 ! D383  D(34,51,54,56)        146.5772         estimate D2E/DX2                !
 ! D384  D(52,51,54,49)       -141.0938         estimate D2E/DX2                !
 ! D385  D(52,51,54,56)          2.4166         estimate D2E/DX2                !
 ! D386  D(36,52,53,37)         -2.7177         estimate D2E/DX2                !
 ! D387  D(36,52,53,55)       -145.1601         estimate D2E/DX2                !
 ! D388  D(51,52,53,37)        138.6555         estimate D2E/DX2                !
 ! D389  D(51,52,53,55)         -3.7869         estimate D2E/DX2                !
 ! D390  D(37,53,55,56)       -134.9852         estimate D2E/DX2                !
 ! D391  D(37,53,55,60)          3.692          estimate D2E/DX2                !
 ! D392  D(52,53,55,56)          3.3028         estimate D2E/DX2                !
 ! D393  D(52,53,55,60)        141.9799         estimate D2E/DX2                !
 ! D394  D(49,54,56,55)        135.7566         estimate D2E/DX2                !
 ! D395  D(49,54,56,64)         -2.5529         estimate D2E/DX2                !
 ! D396  D(51,54,56,55)         -2.8951         estimate D2E/DX2                !
 ! D397  D(51,54,56,64)       -141.2046         estimate D2E/DX2                !
 ! D398  D(53,55,56,54)          0.0204         estimate D2E/DX2                !
 ! D399  D(53,55,56,64)        142.4652         estimate D2E/DX2                !
 ! D400  D(60,55,56,54)       -142.7352         estimate D2E/DX2                !
 ! D401  D(60,55,56,64)         -0.2904         estimate D2E/DX2                !
 ! D402  D(53,55,60,57)         -2.3974         estimate D2E/DX2                !
 ! D403  D(53,55,60,66)       -143.6034         estimate D2E/DX2                !
 ! D404  D(56,55,60,57)        140.4773         estimate D2E/DX2                !
 ! D405  D(56,55,60,66)         -0.7286         estimate D2E/DX2                !
 ! D406  D(54,56,64,63)          2.195          estimate D2E/DX2                !
 ! D407  D(54,56,64,66)        144.2987         estimate D2E/DX2                !
 ! D408  D(55,56,64,63)       -140.9149         estimate D2E/DX2                !
 ! D409  D(55,56,64,66)          1.1888         estimate D2E/DX2                !
 ! D410  D(39,57,58,42)         -0.528          estimate D2E/DX2                !
 ! D411  D(39,57,58,59)       -144.198          estimate D2E/DX2                !
 ! D412  D(60,57,58,42)        143.9329         estimate D2E/DX2                !
 ! D413  D(60,57,58,59)          0.263          estimate D2E/DX2                !
 ! D414  D(39,57,60,55)         -0.144          estimate D2E/DX2                !
 ! D415  D(39,57,60,66)        136.0221         estimate D2E/DX2                !
 ! D416  D(58,57,60,55)       -139.991          estimate D2E/DX2                !
 ! D417  D(58,57,60,66)         -3.8249         estimate D2E/DX2                !
 ! D418  D(42,58,59,43)          1.3467         estimate D2E/DX2                !
 ! D419  D(42,58,59,65)       -135.444          estimate D2E/DX2                !
 ! D420  D(57,58,59,43)        140.2309         estimate D2E/DX2                !
 ! D421  D(57,58,59,65)          3.4403         estimate D2E/DX2                !
 ! D422  D(43,59,65,61)         -1.8845         estimate D2E/DX2                !
 ! D423  D(43,59,65,66)       -145.3006         estimate D2E/DX2                !
 ! D424  D(58,59,65,61)        139.8262         estimate D2E/DX2                !
 ! D425  D(58,59,65,66)         -3.5899         estimate D2E/DX2                !
[...]
              Bcc     0.0025     0.339     0.121     0.113  0.8146 -0.2075 -0.5416
 
              Baa    -0.0094    -1.266    -0.452    -0.422  0.7572  0.1770  0.6288
    15 C(13)  Bbb     0.0015     0.200     0.071     0.067 -0.3670  0.9116  0.1853
              Bcc     0.0079     1.067     0.381     0.356 -0.5404 -0.3710  0.7552
 
              Baa    -0.0012    -0.165    -0.059    -0.055  0.2099  0.0491  0.9765
    16 C(13)  Bbb    -0.0008    -0.102    -0.036    -0.034 -0.6625  0.7417  0.1052
              Bcc     0.0020     0.267     0.095     0.089  0.7190  0.6690 -0.1882
 
              Baa    -0.0373    -5.010    -1.788    -1.671  0.8859  0.2994 -0.3543
    17 C(13)  Bbb    -0.0354    -4.753    -1.696    -1.585 -0.0386  0.8087  0.5870
              Bcc     0.0728     9.763     3.484     3.256  0.4622 -0.5064  0.7280
 
              Baa    -0.0058    -0.776    -0.277    -0.259  0.1727 -0.1254  0.9770
    18 C(13)  Bbb     0.0006     0.080     0.029     0.027 -0.0514  0.9894  0.1360
              Bcc     0.0052     0.696     0.248     0.232  0.9836  0.0737 -0.1645
 
              Baa    -0.0996   -13.361    -4.767    -4.457 -0.2628  0.7266 -0.6348
    19 C(13)  Bbb     0.0432     5.800     2.070     1.935  0.9031  0.4168  0.1032
              Bcc     0.0563     7.561     2.698     2.522 -0.3395  0.5462  0.7658
 
              Baa    -0.0556    -7.462    -2.662    -2.489 -0.2481  0.9596 -0.1324
    20 C(13)  Bbb     0.0224     3.012     1.075     1.005  0.9135  0.2773  0.2977
              Bcc     0.0332     4.450     1.588     1.484 -0.3224  0.0470  0.9454
 
              Baa    -0.1201   -16.122    -5.753    -5.378  0.5758  0.4511  0.6819
    21 C(13)  Bbb    -0.1165   -15.634    -5.579    -5.215  0.7947 -0.1125 -0.5965
              Bcc     0.2366    31.756    11.331    10.592 -0.1924  0.8853 -0.4233
 
              Baa    -0.0436    -5.856    -2.090    -1.953 -0.2917  0.7701  0.5674
    22 C(13)  Bbb     0.0187     2.511     0.896     0.837  0.8334 -0.0865  0.5458
              Bcc     0.0249     3.345     1.194     1.116  0.4694  0.6321 -0.6166
 
              Baa    -0.0586    -7.867    -2.807    -2.624  0.8975  0.1049  0.4284
    23 C(13)  Bbb    -0.0568    -7.625    -2.721    -2.543 -0.3782 -0.3170  0.8698
              Bcc     0.1154    15.492     5.528     5.168 -0.2271  0.9426  0.2448
 
              Baa    -0.0089    -1.196    -0.427    -0.399  0.7126 -0.6259  0.3170
    24 C(13)  Bbb    -0.0075    -1.004    -0.358    -0.335  0.7005  0.6596 -0.2724
              Bcc     0.0164     2.200     0.785     0.734 -0.0386  0.4162  0.9085
 
              Baa    -0.0151    -2.020    -0.721    -0.674  0.1428  0.9641  0.2240
    25 C(13)  Bbb    -0.0149    -1.995    -0.712    -0.666  0.9634 -0.1873  0.1920
              Bcc     0.0299     4.015     1.433     1.339 -0.2271 -0.1884  0.9555
 
              Baa    -0.0135    -1.807    -0.645    -0.603 -0.0565  0.1806  0.9819
    26 C(13)  Bbb     0.0062     0.826     0.295     0.276  0.8165 -0.5576  0.1495
              Bcc     0.0073     0.981     0.350     0.327  0.5745  0.8102 -0.1160
 
              Baa    -0.0047    -0.628    -0.224    -0.209  0.9444 -0.0384  0.3266
    27 C(13)  Bbb    -0.0043    -0.579    -0.207    -0.193 -0.2316  0.6277  0.7432
              Bcc     0.0090     1.207     0.431     0.403  0.2335  0.7775 -0.5839
 
              Baa    -0.0135    -1.815    -0.648    -0.605 -0.2379 -0.5059  0.8292
    28 C(13)  Bbb     0.0067     0.898     0.320     0.300  0.7425  0.4557  0.4910
              Bcc     0.0068     0.917     0.327     0.306 -0.6262  0.7324  0.2672
 
              Baa    -0.0068    -0.911    -0.325    -0.304  0.9086 -0.2294  0.3490
    29 C(13)  Bbb    -0.0019    -0.249    -0.089    -0.083 -0.3179  0.1620  0.9342
              Bcc     0.0086     1.160     0.414     0.387  0.2708  0.9598 -0.0742
 
              Baa    -0.0062    -0.827    -0.295    -0.276  0.2472  0.9298 -0.2727
    30 C(13)  Bbb     0.0020     0.269     0.096     0.090  0.9539 -0.2830 -0.1000
              Bcc     0.0042     0.558     0.199     0.186  0.1702  0.2354  0.9569
 
              Baa    -0.0024    -0.326    -0.116    -0.109  0.5557  0.5695  0.6057
    31 C(13)  Bbb    -0.0009    -0.125    -0.045    -0.042  0.8312 -0.3940 -0.3922
              Bcc     0.0034     0.452     0.161     0.151  0.0153  0.7214 -0.6923
 
              Baa    -0.0571    -7.666    -2.735    -2.557  0.3388  0.4930  0.8013
    32 C(13)  Bbb     0.0239     3.205     1.143     1.069  0.7543  0.3667 -0.5446
              Bcc     0.0332     4.461     1.592     1.488 -0.5624  0.7889 -0.2476
 
              Baa    -0.0784   -10.525    -3.756    -3.511  0.8690  0.2464 -0.4290
    33 C(13)  Bbb    -0.0748   -10.031    -3.579    -3.346 -0.2928  0.9551 -0.0445
              Bcc     0.1532    20.557     7.335     6.857  0.3988  0.1643  0.9022
 
              Baa    -0.0853   -11.448    -4.085    -3.819  0.9901 -0.1108 -0.0859
    34 C(13)  Bbb    -0.0800   -10.735    -3.830    -3.581 -0.0059 -0.6451  0.7641
              Bcc     0.1653    22.183     7.915     7.399  0.1401  0.7560  0.6394
 
              Baa    -0.2516   -33.756   -12.045   -11.260  0.7807 -0.3925 -0.4863
    35 C(13)  Bbb    -0.2442   -32.765   -11.691   -10.929  0.5863  0.7293  0.3527
              Bcc     0.4957    66.522    23.737    22.189  0.2162 -0.5605  0.7995
 
              Baa    -0.0875   -11.743    -4.190    -3.917  0.1643 -0.1946  0.9670
    36 C(13)  Bbb     0.0327     4.391     1.567     1.465  0.9617 -0.1865 -0.2010
              Bcc     0.0548     7.351     2.623     2.452  0.2195  0.9630  0.1565
 
              Baa    -0.0781   -10.475    -3.738    -3.494 -0.1185 -0.5111  0.8513
    37 C(13)  Bbb     0.0278     3.732     1.332     1.245 -0.2948  0.8368  0.4614
              Bcc     0.0502     6.743     2.406     2.249  0.9482  0.1963  0.2499
 
              Baa    -0.0084    -1.123    -0.401    -0.375  0.0115 -0.6394  0.7688
    38 C(13)  Bbb     0.0034     0.459     0.164     0.153  0.9389 -0.2577 -0.2284
              Bcc     0.0049     0.664     0.237     0.221  0.3441  0.7244  0.5974
 
              Baa    -0.0933   -12.521    -4.468    -4.177  0.2519  0.5201  0.8161
    39 C(13)  Bbb    -0.0884   -11.862    -4.233    -3.957  0.9030 -0.4297 -0.0049
              Bcc     0.1817    24.383     8.701     8.133  0.3481  0.7382 -0.5778
 
              Baa    -0.0162    -2.173    -0.775    -0.725  0.0865  0.9754  0.2029
    40 C(13)  Bbb     0.0067     0.904     0.323     0.302  0.2217 -0.2174  0.9506
              Bcc     0.0095     1.269     0.453     0.423  0.9713 -0.0372 -0.2351
 
              Baa    -0.0087    -1.172    -0.418    -0.391  0.9165 -0.1084 -0.3852
    41 C(13)  Bbb    -0.0083    -1.108    -0.395    -0.370  0.2320 -0.6403  0.7323
              Bcc     0.0170     2.279     0.813     0.760  0.3260  0.7604  0.5616
 
              Baa    -0.0140    -1.878    -0.670    -0.626  0.8644 -0.3145 -0.3922
    42 C(13)  Bbb    -0.0062    -0.837    -0.299    -0.279  0.4458  0.1190  0.8872
              Bcc     0.0202     2.715     0.969     0.906  0.2323  0.9418 -0.2431
 
              Baa    -0.0037    -0.503    -0.179    -0.168  0.7177  0.6294  0.2979
    43 C(13)  Bbb     0.0015     0.205     0.073     0.068 -0.5556  0.7754 -0.3000
              Bcc     0.0022     0.298     0.106     0.099 -0.4198  0.0498  0.9062
 
              Baa    -0.0049    -0.657    -0.234    -0.219  0.3110 -0.0920  0.9460
    44 C(13)  Bbb     0.0018     0.243     0.087     0.081  0.8954 -0.3054 -0.3240
              Bcc     0.0031     0.413     0.147     0.138  0.3187  0.9478 -0.0126
 
              Baa    -0.0115    -1.538    -0.549    -0.513 -0.5298  0.6934  0.4884
    45 C(13)  Bbb    -0.0112    -1.498    -0.534    -0.500  0.8344  0.5293  0.1536
              Bcc     0.0226     3.036     1.083     1.013  0.1521 -0.4889  0.8590
 
              Baa    -0.0018    -0.242    -0.086    -0.081  0.0496  0.9124  0.4064
    46 C(13)  Bbb    -0.0009    -0.124    -0.044    -0.041  0.8225  0.1935 -0.5349
              Bcc     0.0027     0.366     0.131     0.122  0.5666 -0.3608  0.7408
 
              Baa    -0.0007    -0.090    -0.032    -0.030  0.8234 -0.2771 -0.4952
    47 C(13)  Bbb    -0.0003    -0.039    -0.014    -0.013  0.5397  0.6520  0.5326
              Bcc     0.0010     0.130     0.046     0.043 -0.1753  0.7058 -0.6864
 
              Baa    -0.0130    -1.744    -0.622    -0.582 -0.3860  0.6639 -0.6405
    48 C(13)  Bbb     0.0058     0.772     0.275     0.257  0.5727  0.7167  0.3978
              Bcc     0.0072     0.972     0.347     0.324  0.7232 -0.2133 -0.6569
 
              Baa    -0.0031    -0.417    -0.149    -0.139  0.0459  0.7227  0.6897
    49 C(13)  Bbb    -0.0010    -0.134    -0.048    -0.045  0.6439  0.5064 -0.5735
              Bcc     0.0041     0.551     0.197     0.184  0.7637 -0.4704  0.4421
 
              Baa    -0.0016    -0.218    -0.078    -0.073 -0.4511  0.8804  0.1466
    50 C(13)  Bbb     0.0003     0.036     0.013     0.012  0.6537  0.4377 -0.6173
              Bcc     0.0014     0.181     0.065     0.061  0.6076  0.1826  0.7730
 
              Baa    -0.0416    -5.584    -1.992    -1.862 -0.0691  0.5498  0.8324
    51 C(13)  Bbb     0.0174     2.334     0.833     0.778  0.7903 -0.4791  0.3820
              Bcc     0.0242     3.250     1.160     1.084  0.6088  0.6842 -0.4014
 
              Baa    -0.0488    -6.544    -2.335    -2.183  0.9062 -0.3342  0.2590
    52 C(13)  Bbb    -0.0460    -6.175    -2.204    -2.060  0.3914  0.8948 -0.2147
              Bcc     0.0948    12.719     4.539     4.243 -0.1600  0.2959  0.9417
 
              Baa    -0.0209    -2.804    -1.001    -0.935 -0.1849  0.9827 -0.0138
    53 C(13)  Bbb    -0.0190    -2.549    -0.909    -0.850  0.7955  0.1579  0.5850
              Bcc     0.0399     5.353     1.910     1.785 -0.5771 -0.0972  0.8109
 
              Baa    -0.0025    -0.330    -0.118    -0.110  0.5982  0.2374  0.7653
    54 C(13)  Bbb    -0.0016    -0.208    -0.074    -0.069  0.3737  0.7622 -0.5286
              Bcc     0.0040     0.538     0.192     0.179  0.7088 -0.6022 -0.3673
 
              Baa    -0.0107    -1.432    -0.511    -0.478  0.7136  0.3632 -0.5990
    55 C(13)  Bbb     0.0035     0.476     0.170     0.159 -0.6423  0.6805 -0.3525
              Bcc     0.0071     0.956     0.341     0.319  0.2796  0.6363  0.7190
 
              Baa    -0.0115    -1.545    -0.551    -0.515  0.7057 -0.3527 -0.6145
    56 C(13)  Bbb     0.0056     0.746     0.266     0.249  0.3146  0.9331 -0.1743
              Bcc     0.0060     0.799     0.285     0.267  0.6349 -0.0703  0.7694
 
              Baa    -0.0357    -4.791    -1.710    -1.598  0.6732  0.5733 -0.4670
    57 C(13)  Bbb     0.0132     1.774     0.633     0.592  0.0700  0.5793  0.8121
              Bcc     0.0225     3.017     1.077     1.006  0.7361 -0.5794  0.3498
 
              Baa    -0.0159    -2.133    -0.761    -0.712 -0.4556  0.4719  0.7548
    58 C(13)  Bbb    -0.0118    -1.579    -0.563    -0.527  0.6307 -0.4273  0.6478
              Bcc     0.0277     3.712     1.325     1.238  0.6282  0.7712 -0.1029
 
              Baa    -0.0055    -0.739    -0.264    -0.246  0.2526  0.6872 -0.6811
    59 C(13)  Bbb    -0.0046    -0.624    -0.223    -0.208 -0.3529  0.7209  0.5964
              Bcc     0.0102     1.363     0.486     0.454  0.9009  0.0897  0.4246
 
              Baa    -0.0417    -5.591    -1.995    -1.865 -0.0127  0.9110  0.4122
    60 C(13)  Bbb    -0.0394    -5.290    -1.888    -1.764  0.4385 -0.3654  0.8211
              Bcc     0.0811    10.881     3.883     3.630  0.8986  0.1912 -0.3949
 
              Baa    -0.0131    -1.760    -0.628    -0.587  0.8899 -0.1445  0.4326
    61 C(13)  Bbb     0.0055     0.736     0.263     0.246 -0.2215  0.6923  0.6868
              Bcc     0.0076     1.024     0.365     0.342  0.3987  0.7070 -0.5841
 
              Baa    -0.0124    -1.668    -0.595    -0.556  0.2833  0.8121  0.5101
    62 C(13)  Bbb    -0.0117    -1.574    -0.562    -0.525  0.6966  0.1913 -0.6915
              Bcc     0.0242     3.242     1.157     1.081  0.6592 -0.5513  0.5115
 
              Baa    -0.0065    -0.867    -0.309    -0.289  0.8465 -0.4919  0.2036
    63 C(13)  Bbb     0.0027     0.364     0.130     0.122 -0.4028 -0.3417  0.8491
              Bcc     0.0037     0.502     0.179     0.168  0.3481  0.8008  0.4874
 
              Baa    -0.0042    -0.560    -0.200    -0.187 -0.3119 -0.3837  0.8692
    64 C(13)  Bbb    -0.0037    -0.498    -0.178    -0.166  0.5197  0.6969  0.4942
              Bcc     0.0079     1.058     0.378     0.353  0.7954 -0.6058  0.0180
 
              Baa    -0.0255    -3.424    -1.222    -1.142 -0.2737  0.5408  0.7954
    65 C(13)  Bbb    -0.0249    -3.337    -1.191    -1.113  0.0414  0.8328 -0.5520
              Bcc     0.0504     6.761     2.413     2.255  0.9609  0.1181  0.2504
 
              Baa    -0.0047    -0.631    -0.225    -0.211  0.9460  0.1364  0.2939
    66 C(13)  Bbb    -0.0001    -0.010    -0.004    -0.003 -0.1504  0.9883  0.0254
              Bcc     0.0048     0.641     0.229     0.214 -0.2870 -0.0683  0.9555
 
              Baa    -0.0412    -2.155    -0.769    -0.719  0.9879 -0.0757 -0.1356
    67 Cl(35) Bbb     0.0186     0.973     0.347     0.324  0.0526 -0.6585  0.7507
              Bcc     0.0226     1.182     0.422     0.394  0.1462  0.7487  0.6466
 
              Baa    -0.0108    -0.563    -0.201    -0.188 -0.0772  0.7088 -0.7012
    68 Cl(35) Bbb    -0.0056    -0.293    -0.104    -0.098  0.2609  0.6932  0.6719
              Bcc     0.0164     0.856     0.305     0.285  0.9623 -0.1310 -0.2384
 
              Baa    -0.0039    -0.203    -0.072    -0.068  0.4140  0.1678  0.8947
    69 Cl(35) Bbb    -0.0024    -0.124    -0.044    -0.041  0.7668 -0.5940 -0.2434
              Bcc     0.0062     0.327     0.117     0.109  0.4905  0.7868 -0.3746
 
              Baa    -0.0315    -1.650    -0.589    -0.550  0.8103  0.5861  0.0010
    70 Cl(35) Bbb     0.0143     0.748     0.267     0.249  0.4224 -0.5852  0.6922
              Bcc     0.0172     0.902     0.322     0.301 -0.4063  0.5604  0.7217
 
              Baa    -0.0546    -2.855    -1.019    -0.952  0.7496  0.1875  0.6348
    71 Cl(35) Bbb    -0.0452    -2.368    -0.845    -0.790 -0.6597  0.1323  0.7398
              Bcc     0.0998     5.223     1.864     1.742 -0.0547  0.9733 -0.2229
 
              Baa    -0.0112    -0.585    -0.209    -0.195  0.0272  0.9622 -0.2710
    72 Cl(35) Bbb     0.0052     0.272     0.097     0.091  0.7761  0.1505  0.6124
              Bcc     0.0060     0.313     0.112     0.104 -0.6301  0.2270  0.7426
 
              Baa    -0.0217    -1.136    -0.405    -0.379  0.9305  0.3571 -0.0810
    73 Cl(35) Bbb     0.0025     0.129     0.046     0.043 -0.0770  0.4070  0.9102
              Bcc     0.0192     1.007     0.359     0.336 -0.3580  0.8407 -0.4062
 
              Baa    -0.0894    -4.678    -1.669    -1.560 -0.6414 -0.3512  0.6821
    74 Cl(35) Bbb    -0.0750    -3.925    -1.401    -1.309 -0.0397  0.9031  0.4276
              Bcc     0.1644     8.603     3.070     2.870  0.7662 -0.2471  0.5932
 
              Baa    -0.2350   -12.300    -4.389    -4.103  0.4666  0.1912  0.8636
    75 Cl(35) Bbb    -0.2217   -11.602    -4.140    -3.870  0.8737 -0.2516 -0.4164
              Bcc     0.4567    23.902     8.529     7.973  0.1376  0.9488 -0.2844
 

 ---------------------------------------------------------------------------------

 No NMR shielding tensors so no spin-rotation constants.
 Leave Link  601 at Sat Jul 16 13:22:17 2022, MaxMem=  1342177280 cpu:             116.8 elap:               2.7
 (Enter /home/mkliu/g16/l9999.exe)
 1\1\GINC-NODE03\FOpt\UB3LYP\6-311G(d,p)\C66Cl9(2)\MKLIU\16-Jul-2022\0\
 \#P opt b3lyp/6-311G(d, p) empiricaldispersion=GD3\\force\\0,2\C,-1.34
 92258266,1.8965874489,-3.9460856192\C,0.2099036462,2.233615916,-3.9935
 094186\C,0.9650775053,0.8641200355,-4.2834096812\C,-1.4865008603,0.335
 4385983,-4.2097230126\C,-0.0881083907,-0.1858425521,-4.1674817953\C,-2
 .2244254248,-0.1890298804,-2.9911229645\C,-1.9277761764,2.0534789218,-
 2.5635316239\C,-2.6295267859,0.8978502264,-2.1707107282\C,-1.440521402
 8,2.9336264985,-1.5875877114\C,0.7484121363,2.6336780664,-2.6457689829
 \C,0.0042417248,3.2433748865,-1.6336216388\C,1.9149129644,0.7020772756
 ,-3.1105839051\C,1.8838876341,1.8636622548,-2.303827785\C,2.2528948299
 ,-0.5088691499,-2.5551010392\C,0.1861276752,-1.3798863987,-3.663351621
 4\C,1.5777756382,-1.7487599554,-3.1570238877\C,-2.0004192879,-1.420628
 5498,-2.4365052224\C,-0.8957054472,-2.2733676646,-3.0761633427\C,-2.47
 8370788,-1.6935292773,-1.0876969016\C,-3.0657867544,0.6843984825,-0.83
 33968234\C,-3.0728781881,-0.6511688439,-0.3213488806\C,-2.0639090025,2
 .8611309953,-0.3160111279\C,-2.9416794456,1.8015732447,0.032386844\C,-
 1.3854676373,3.2854419332,0.9050072843\C,0.6804416276,3.4488763774,-0.
 4002301885\C,-0.0366494923,3.5749760463,0.8640026326\C,2.4385404507,1.
 8594244508,-1.0000667741\C,1.9284685036,2.8400103146,-0.1184221076\C,2
 .8608958952,-0.5389505437,-1.246565185\C,3.0108401488,0.6345628041,-0.
 5037366894\C,3.139565963,-1.9030265242,-0.6076082899\C,1.2516788548,-2
 .7391327484,-2.0820770759\C,-0.1259604188,-3.0281147277,-2.0417454258\
 C,2.0286014028,-2.8802533429,-0.9554206085\C,-1.9632041499,-2.84992452
 45,-0.4025610084\C,-0.7239768005,-3.4415546723,-0.8650254475\C,-1.9422
 407721,-2.9059186948,1.0430172165\C,-3.3891516891,-0.8504782316,1.1570
 97661\C,-2.556002575,-1.9341491466,1.8038586678\C,-2.8894413969,1.6119
 287284,1.4741869246\C,-1.9270352697,2.5369946576,2.0183798868\C,-3.034
 3308789,0.3585220996,2.0115132785\C,-1.1124380834,2.1516490619,3.08265
 02702\C,0.8283377369,3.1251608789,1.9338277119\C,2.047604248,2.6643007
 041,1.3224605946\C,0.3052304165,2.4533259822,3.0389207372\C,3.50189507
 03,0.6163290616,0.9438000045\C,2.7225931534,1.5841897827,1.8318342708\
 C,3.0381050427,-1.8577896521,0.9090522771\C,3.222256998,-0.7097715774,
 1.6223564585\C,1.458519627,-3.4234608528,0.2221946115\C,0.0930069671,-
 3.7343179127,0.2713383407\C,-0.6673575509,-3.4482292991,1.4654966587\C
 ,2.1048761826,-2.838871538,1.3769896344\C,-0.0345561799,-2.9563997113,
 2.6009055468\C,1.3903274718,-2.6491680811,2.5582883147\C,-1.9284144232
 ,-1.4492103862,2.9883776633\C,-2.2225888164,-0.0374295391,3.1191397616
 \C,-1.2705800666,0.8381296244,3.6570173392\C,-0.6819390302,-1.94625203
 52,3.3962481021\C,1.018015552,1.3257070952,3.5838004806\C,2.2109503133
 ,0.9070947082,2.9783414739\C,2.5116157706,-0.5018541233,2.8480640792\C
 ,1.6073874351,-1.4556549858,3.3237732637\C,0.0454149263,0.3319573401,3
 .9977296467\C,0.3313155166,-1.0239896052,3.8684171188\Cl,-2.3647302158
 ,2.9209287806,-5.033817264\Cl,0.6485717513,3.5706267426,-5.1266398327\
 Cl,1.8297714803,0.7571622285,-5.8732101014\Cl,2.6132764712,-2.51948011
 68,-4.4726449463\Cl,4.7992019072,-2.4987917546,-1.1596378933\Cl,5.3126
 750248,1.0265106403,0.9598197398\Cl,-2.3147618136,-0.138575639,-5.7520
 033471\Cl,-1.5958063042,-3.4406451573,-4.3370030126\Cl,-5.2211818123,-
 1.2434386572,1.3078051407\\Version=ES64L-G16RevA.03\State=2-A\HF=-6657
 .445848\S2=0.788873\S2-1=0.\S2A=0.751392\RMSD=7.675e-09\RMSF=5.073e-05
 \Dipole=-0.3324353,0.5016606,1.8304357\Quadrupole=-9.7512064,8.6081124
 ,1.143094,-1.2197621,0.7894833,-1.9167331\PG=C01 [X(C66Cl9)]\\@


 O WAD SOME POWER THE GIFTIE GIE US       
 TO SEE OURSELS AS OTHERS SEE US.....     
 IT WOULD FRAE MONIE A BLUNDER FREE US,   
                     AND FOOLISH NOTION...
 WHAT AIRS IN DRESS AND GAIT WAD LEA'E US,
                     AND EV'N DEVOTION....
                                          
              (ROBERT BURNS 'TO A LOUSE') 
 Job cpu time:       4 days 13 hours  0 minutes 20.7 seconds.
 Elapsed time:       0 days  2 hours 16 minutes 30.0 seconds.
 File lengths (MBytes):  RWF=   2194 Int=      0 D2E=      0 Chk=    197 Scr=      1
 Normal termination of Gaussian 16 at Sat Jul 16 13:22:19 2022.
