 Entering Gaussian System, Link 0=g16
 Input=28_addons_bond.gjf
 Output=28_addons_bond.log
 Initial command:
 /home/mkliu/g16/l1.exe "/data/scratch/Gau-20976.inp" -scrdir="/data/scratch/"
 Entering Link 1 = /home/mkliu/g16/l1.exe PID=     20977.
  
 Copyright (c) 1988,1990,1992,1993,1995,1998,2003,2009,2016,
            Gaussian, Inc.  All Rights Reserved.
  
 This is part of the Gaussian(R) 16 program.  It is based on
 the Gaussian(R) 09 system (copyright 2009, Gaussian, Inc.),
 the Gaussian(R) 03 system (copyright 2003, Gaussian, Inc.),
 the Gaussian(R) 98 system (copyright 1998, Gaussian, Inc.),
 the Gaussian(R) 94 system (copyright 1995, Gaussian, Inc.),
 the Gaussian 92(TM) system (copyright 1992, Gaussian, Inc.),
 the Gaussian 90(TM) system (copyright 1990, Gaussian, Inc.),
 the Gaussian 88(TM) system (copyright 1988, Gaussian, Inc.),
 the Gaussian 86(TM) system (copyright 1986, Carnegie Mellon
 University), and the Gaussian 82(TM) system (copyright 1983,
 Carnegie Mellon University). Gaussian is a federally registered
 trademark of Gaussian, Inc.
  
 This software contains proprietary and confidential information,
 including trade secrets, belonging to Gaussian, Inc.
  
 This software is provided under written license and may be
 used, copied, transmitted, or stored only in accord with that
 written license.
  
 The following legend is applicable only to US Government
 contracts under FAR:
  
                    RESTRICTED RIGHTS LEGEND
  
 Use, reproduction and disclosure by the US Government is
 subject to restrictions as set forth in subparagraphs (a)
 and (c) of the Commercial Computer Software - Restricted
 Rights clause in FAR 52.227-19.
  
 Gaussian, Inc.
 340 Quinnipiac St., Bldg. 40, Wallingford CT 06492
  
  
 ---------------------------------------------------------------
 Warning -- This program may not be used in any manner that
 competes with the business of Gaussian, Inc. or will provide
 assistance to any competitor of Gaussian, Inc.  The licensee
 of this program is prohibited from giving any competitor of
 Gaussian, Inc. access to this program.  By using this program,
 the user acknowledges that Gaussian, Inc. is engaged in the
 business of creating and licensing software in the field of
 computational chemistry and represents and warrants to the
 licensee that it is not a competitor of Gaussian, Inc. and that
 it will not use this program in any manner prohibited above.
 ---------------------------------------------------------------
  

 Cite this work as:
 Gaussian 16, Revision A.03,
 M. J. Frisch, G. W. Trucks, H. B. Schlegel, G. E. Scuseria, 
 M. A. Robb, J. R. Cheeseman, G. Scalmani, V. Barone, 
 G. A. Petersson, H. Nakatsuji, X. Li, M. Caricato, A. V. Marenich, 
 J. Bloino, B. G. Janesko, R. Gomperts, B. Mennucci, H. P. Hratchian, 
 J. V. Ortiz, A. F. Izmaylov, J. L. Sonnenberg, D. Williams-Young, 
 F. Ding, F. Lipparini, F. Egidi, J. Goings, B. Peng, A. Petrone, 
 T. Henderson, D. Ranasinghe, V. G. Zakrzewski, J. Gao, N. Rega, 
 G. Zheng, W. Liang, M. Hada, M. Ehara, K. Toyota, R. Fukuda, 
 J. Hasegawa, M. Ishida, T. Nakajima, Y. Honda, O. Kitao, H. Nakai, 
 T. Vreven, K. Throssell, J. A. Montgomery, Jr., J. E. Peralta, 
 F. Ogliaro, M. J. Bearpark, J. J. Heyd, E. N. Brothers, K. N. Kudin, 
 V. N. Staroverov, T. A. Keith, R. Kobayashi, J. Normand, 
 K. Raghavachari, A. P. Rendell, J. C. Burant, S. S. Iyengar, 
 J. Tomasi, M. Cossi, J. M. Millam, M. Klene, C. Adamo, R. Cammi, 
 J. W. Ochterski, R. L. Martin, K. Morokuma, O. Farkas, 
 J. B. Foresman, and D. J. Fox, Gaussian, Inc., Wallingford CT, 2016.
 
 ******************************************
 Gaussian 16:  ES64L-G16RevA.03 25-Dec-2016
                24-May-2022 
 ******************************************
 %mem=10GB
 %chk=28_addons_bond.chk
 %nprocshared=24
 Will use up to   24 processors via shared memory.
 ----------------------------------------------------------------------
 #P opt b3lyp/6-31G(d, p) empiricaldispersion=GD3 scrf=SMD Guess=TCheck
  Geom=allcheck
 ----------------------------------------------------------------------
 1/18=20,19=15,26=3,29=7,38=1/1,3;
 2/9=110,12=2,40=1/2;
 3/5=1,6=6,7=101,11=2,14=-4,25=1,30=1,70=32201,71=1,74=-5,116=-2,124=31/1,2,3;
 4/5=101/1;
 5/5=2,38=6/2;
 6/7=2,8=2,9=2,10=2,28=1/1;
 7//1,2,3,16;
 1/18=20,19=15,26=3/3(2);
 2/9=110/2;
 99//99;
 2/9=110/2;
 3/5=1,6=6,7=101,11=2,14=-2,25=1,30=1,70=32205,71=1,74=-5,124=31/1,2,3;
 4/5=5,16=3,69=1/1;
 5/5=2,38=5/2;
 7//1,2,3,16;
 1/18=20,19=15,26=3/3(-5);
 2/9=110/2;
 6/7=2,8=2,9=2,10=2,19=2,28=1/1;
 99/9=1/99;
 Leave Link    1 at Tue May 24 15:17:23 2022, MaxMem=  1342177280 cpu:              29.1 elap:               1.8
 (Enter /home/mkliu/g16/l101.exe)
 Structure from the checkpoint file:  "28_addons_bond.chk"
 -----
 force
 -----
 Charge =  0 Multiplicity = 1
 Redundant internal coordinates found in file.  (old form).
 C,0,2.799399118,0.2664580368,2.6771174711
 C,0,3.20244606,1.0978769207,1.4594883973
 C,0,3.865797554,0.1842703129,0.4280566417
 C,0,2.706836676,-1.114628996,2.0375968849
 C,0,3.2821463776,-1.1646838951,0.8323664267
 C,0,1.8225933202,-2.1987151135,2.590257388
 C,0,0.5190804909,-1.5958105083,3.0959055073
 C,0,1.4352441164,0.6860033078,3.1617683754
 C,0,0.4573427061,-0.2770685317,3.8134530292
 C,0,0.8676119938,1.8541532668,2.8561270018
 C,0,2.6325200088,2.261605316,1.1453987247
 C,0,1.5123962968,2.8932893337,1.9857223042
 C,0,2.6029918228,2.8985142211,-0.2426260588
 C,0,3.3172515988,0.5148085203,-0.9218762304
 C,0,3.0477423565,1.9320547163,-1.40800669
 C,0,2.8680087581,-0.401300177,-1.7828730514
 C,0,3.122446422,-2.3426428003,-0.1080768898
 C,0,2.9199801738,-1.8894844947,-1.6300320244
 C,0,1.2698743803,-3.0599082393,1.4497167036
 C,0,1.8205866158,-3.0622034703,0.2358861519
 C,0,-0.5521177726,-2.2524715854,2.6433182938
 C,0,-0.1675914626,-3.4589546904,1.7986536737
 C,0,-1.9546515182,-1.7303842488,2.7646157052
 C,0,-0.8682246864,0.4207992825,3.4962870376
 C,0,-0.6040056806,1.9071503902,3.2350190046
 C,0,-1.9285420126,-0.2200872706,2.9994301182
 C,0,-1.4066111218,2.3703065485,2.05211991
 C,0,0.53736586,3.2848889146,0.8796874207
 C,0,1.1200272056,3.255300583,-0.3220255803
 C,0,-0.9268272519,3.4919938868,1.1665658561
 C,0,0.3538209698,3.3637066432,-1.602712594
 C,0,1.9722799967,1.6375850804,-2.4508110056
 C,0,2.2721006765,0.2493595894,-3.0206651216
 C,0,0.8092154288,2.2749798141,-2.557492559
 C,0,1.0245556763,-0.5086012958,-3.5937100142
 C,0,1.5576150015,-2.4434690169,-2.0155795536
 C,0,1.075345084,-3.4883445488,-1.0125555922
 C,0,0.7498148104,-1.8341112116,-2.8856974068
 C,0,-1.092266984,-3.6527103328,0.5314857901
 C,0,-0.3936576188,-3.3067516373,-0.7702830747
 C,0,-2.6095202083,-1.804200008,1.3951763235
 C,0,-2.2625022766,-2.6672317358,0.4387658108
 C,0,-3.0450050011,0.4827818073,2.2308795021
 C,0,-2.4867067838,1.7433580592,1.595750977
 C,0,-3.4819938237,-0.5883837147,1.1334090793
 C,0,-1.8561237011,3.3772234873,-0.1277071678
 C,0,-1.0863179699,2.9191180522,-1.3439794316
 C,0,-2.9717943181,2.3022118411,0.2797881281
 C,0,-0.4108776802,1.6923452432,-3.2624647085
 C,0,-0.2854668965,0.2043808393,-3.2940821409
 C,0,-1.5012330204,2.031077028,-2.2589323777
 C,0,-0.7641343508,-2.0693908217,-2.902320829
 C,0,-1.204710817,-2.668423137,-1.6132737043
 C,0,-2.5971282336,-2.4858054671,-1.0493115486
 C,0,-1.2647804352,-0.6372517906,-2.9481085556
 C,0,-3.2307919411,-0.1198057537,-0.2619212755
 C,0,-3.0454471316,1.1348291446,-0.666075165
 C,0,-2.7905118197,1.2512811217,-2.1451698169
 C,0,-3.2891277284,-1.1028933275,-1.3902976572
 C,0,-2.6885982194,-0.2748984785,-2.6254920698
 O,0,5.2950535363,0.234189935,0.383399651
 H,0,5.6119320911,0.0485760828,1.2821692658
 O,0,3.4264129529,4.0672551822,-0.2023799626
 H,0,3.3739844996,4.4922912803,-1.073662437
 O,0,4.1776085676,2.4568278323,-2.1200046338
 H,0,4.9165427322,2.523349417,-1.4934897471
 O,0,3.2670982882,0.2562049944,-4.0611126303
 H,0,3.9664425897,0.8768506055,-3.793911015
 O,0,1.1137746511,-0.6620354143,-5.0109269348
 H,0,2.0423715903,-0.4876341389,-5.2467223152
 O,0,3.9859520492,-2.452338963,-2.4120249314
 H,0,4.2347573321,-1.8024426125,-3.0882540637
 O,0,0.4688906951,4.6516885197,-2.2278409202
 H,0,-0.0118106908,5.2808595391,-1.6658739299
 O,0,-0.644614307,2.1818681816,-4.5851526051
 H,0,-0.7008095475,3.1485781669,-4.520683225
 O,0,4.221640506,-3.2477983053,-0.0150534991
 H,0,4.7477027934,-3.0906595842,-0.8229746882
 O,0,-1.2648497938,-2.8807459026,-3.9726644092
 H,0,-1.1005779828,-2.3969830902,-4.798552423
 O,0,1.3196391377,-4.8494032091,-1.4040798667
 H,0,2.2816314789,-4.9806574151,-1.3935167862
 O,0,1.905958481,4.0002100377,2.8070526276
 H,0,2.2707329745,4.675088627,2.212144443
 O,0,3.7966860629,0.346725859,3.7082863707
 H,0,3.5436446877,-0.2952876441,4.391635201
 O,0,-3.8692747034,1.8644076735,-2.8537188211
 H,0,-4.0268883539,2.7258630188,-2.4357285238
 O,0,-3.443780763,-0.5413792675,-3.7896990598
 H,0,-4.3522127389,-0.6975218221,-3.4687198602
 O,0,-1.1396864239,4.7860971972,1.7581377004
 H,0,-1.0127056252,4.689576995,2.7158241572
 O,0,-2.4039746385,4.637913067,-0.4622061144
 H,0,-2.5881045077,5.0839065026,0.3833876253
 O,0,-4.6815488981,-1.3425738196,-1.6342659441
 H,0,-4.7552624651,-2.3144983574,-1.7492986114
 O,0,-3.4572219212,-3.5548033598,-1.4934998016
 H,0,-3.2579873221,-3.7173693062,-2.4312096002
 O,0,-4.2294712315,2.9796058181,0.3591274045
 H,0,-4.8751966081,2.3304946743,0.6806667982
 O,0,-1.593691485,-5.0017637353,0.5059027573
 H,0,-0.9386563298,-5.5516214869,0.0437714613
 O,0,-0.1891811724,-4.6302242885,2.61210333
 H,0,-0.7928029856,-5.2477478091,2.1542118489
 O,0,2.5525224302,-2.9059435237,3.6035302758
 H,0,1.9506953103,-3.570340368,3.9774511635
 O,0,-4.8760498646,-0.8839641437,1.324655793
 H,0,-5.2606578082,-1.0479268644,0.4453718923
 O,0,-4.1523217987,0.8013010841,3.0735760118
 H,0,-4.9323183494,0.4278602756,2.6182241818
 O,0,-2.6608299342,-2.4714691831,3.7710446402
 H,0,-3.5642606515,-2.1172917413,3.8041828746
 O,0,-0.8794733819,2.8107500038,4.316681909
 H,0,-0.2546603087,2.602072554,5.0295294016
 O,0,0.7821119575,-0.3876739509,5.2070451999
 H,0,0.2024276652,-1.069382112,5.5827961559
 Recover connectivity data from disk.
 ITRead=  0  0  0  0  0  0  0  0  0  0  0  0  0  0  0  0  0  0  0  0
 ITRead=  0  0  0  0  0  0  0  0  0  0  0  0  0  0  0  0  0  0  0  0
 ITRead=  0  0  0  0  0  0  0  0  0  0  0  0  0  0  0  0  0  0  0  0
 ITRead=  0  0  0  0  0  0  0  0  0  0  0  0  0  0  0  0  0  0  0  0
 ITRead=  0  0  0  0  0  0  0  0  0  0  0  0  0  0  0  0  0  0  0  0
 ITRead=  0  0  0  0  0  0  0  0  0  0  0  0  0  0  0  0
 MicOpt= -1 -1 -1 -1 -1 -1 -1 -1 -1 -1 -1 -1 -1 -1 -1 -1 -1 -1 -1 -1
 MicOpt= -1 -1 -1 -1 -1 -1 -1 -1 -1 -1 -1 -1 -1 -1 -1 -1 -1 -1 -1 -1
 MicOpt= -1 -1 -1 -1 -1 -1 -1 -1 -1 -1 -1 -1 -1 -1 -1 -1 -1 -1 -1 -1
 MicOpt= -1 -1 -1 -1 -1 -1 -1 -1 -1 -1 -1 -1 -1 -1 -1 -1 -1 -1 -1 -1
 MicOpt= -1 -1 -1 -1 -1 -1 -1 -1 -1 -1 -1 -1 -1 -1 -1 -1 -1 -1 -1 -1
 MicOpt= -1 -1 -1 -1 -1 -1 -1 -1 -1 -1 -1 -1 -1 -1 -1 -1
 NAtoms=    116 NQM=      116 NQMF=       0 NMMI=      0 NMMIF=      0
                NMic=       0 NMicF=      0.
                    Isotopes and Nuclear Properties:
 (Nuclear quadrupole moments (NQMom) in fm**2, nuclear magnetic moments (NMagM)
  in nuclear magnetons)

  Atom         1           2           3           4           5           6           7           8           9          10
 IAtWgt=          12          12          12          12          12          12          12          12          12          12
 AtmWgt=  12.0000000  12.0000000  12.0000000  12.0000000  12.0000000  12.0000000  12.0000000  12.0000000  12.0000000  12.0000000
 NucSpn=           0           0           0           0           0           0           0           0           0           0
 AtZEff=   3.6000000   3.6000000   3.6000000   3.6000000   3.6000000   3.6000000   3.6000000   3.6000000   3.6000000   3.6000000
 NQMom=    0.0000000   0.0000000   0.0000000   0.0000000   0.0000000   0.0000000   0.0000000   0.0000000   0.0000000   0.0000000
 NMagM=    0.0000000   0.0000000   0.0000000   0.0000000   0.0000000   0.0000000   0.0000000   0.0000000   0.0000000   0.0000000
 AtZNuc=   6.0000000   6.0000000   6.0000000   6.0000000   6.0000000   6.0000000   6.0000000   6.0000000   6.0000000   6.0000000

  Atom        11          12          13          14          15          16          17          18          19          20
 IAtWgt=          12          12          12          12          12          12          12          12          12          12
 AtmWgt=  12.0000000  12.0000000  12.0000000  12.0000000  12.0000000  12.0000000  12.0000000  12.0000000  12.0000000  12.0000000
 NucSpn=           0           0           0           0           0           0           0           0           0           0
 AtZEff=   3.6000000   3.6000000   3.6000000   3.6000000   3.6000000   3.6000000   3.6000000   3.6000000   3.6000000   3.6000000
 NQMom=    0.0000000   0.0000000   0.0000000   0.0000000   0.0000000   0.0000000   0.0000000   0.0000000   0.0000000   0.0000000
 NMagM=    0.0000000   0.0000000   0.0000000   0.0000000   0.0000000   0.0000000   0.0000000   0.0000000   0.0000000   0.0000000
 AtZNuc=   6.0000000   6.0000000   6.0000000   6.0000000   6.0000000   6.0000000   6.0000000   6.0000000   6.0000000   6.0000000

  Atom        21          22          23          24          25          26          27          28          29          30
 IAtWgt=          12          12          12          12          12          12          12          12          12          12
 AtmWgt=  12.0000000  12.0000000  12.0000000  12.0000000  12.0000000  12.0000000  12.0000000  12.0000000  12.0000000  12.0000000
 NucSpn=           0           0           0           0           0           0           0           0           0           0
 AtZEff=   3.6000000   3.6000000   3.6000000   3.6000000   3.6000000   3.6000000   3.6000000   3.6000000   3.6000000   3.6000000
 NQMom=    0.0000000   0.0000000   0.0000000   0.0000000   0.0000000   0.0000000   0.0000000   0.0000000   0.0000000   0.0000000
 NMagM=    0.0000000   0.0000000   0.0000000   0.0000000   0.0000000   0.0000000   0.0000000   0.0000000   0.0000000   0.0000000
 AtZNuc=   6.0000000   6.0000000   6.0000000   6.0000000   6.0000000   6.0000000   6.0000000   6.0000000   6.0000000   6.0000000

  Atom        31          32          33          34          35          36          37          38          39          40
 IAtWgt=          12          12          12          12          12          12          12          12          12          12
 AtmWgt=  12.0000000  12.0000000  12.0000000  12.0000000  12.0000000  12.0000000  12.0000000  12.0000000  12.0000000  12.0000000
 NucSpn=           0           0           0           0           0           0           0           0           0           0
 AtZEff=   3.6000000   3.6000000   3.6000000   3.6000000   3.6000000   3.6000000   3.6000000   3.6000000   3.6000000   3.6000000
 NQMom=    0.0000000   0.0000000   0.0000000   0.0000000   0.0000000   0.0000000   0.0000000   0.0000000   0.0000000   0.0000000
 NMagM=    0.0000000   0.0000000   0.0000000   0.0000000   0.0000000   0.0000000   0.0000000   0.0000000   0.0000000   0.0000000
 AtZNuc=   6.0000000   6.0000000   6.0000000   6.0000000   6.0000000   6.0000000   6.0000000   6.0000000   6.0000000   6.0000000

  Atom        41          42          43          44          45          46          47          48          49          50
 IAtWgt=          12          12          12          12          12          12          12          12          12          12
 AtmWgt=  12.0000000  12.0000000  12.0000000  12.0000000  12.0000000  12.0000000  12.0000000  12.0000000  12.0000000  12.0000000
 NucSpn=           0           0           0           0           0           0           0           0           0           0
 AtZEff=   3.6000000   3.6000000   3.6000000   3.6000000   3.6000000   3.6000000   3.6000000   3.6000000   3.6000000   3.6000000
 NQMom=    0.0000000   0.0000000   0.0000000   0.0000000   0.0000000   0.0000000   0.0000000   0.0000000   0.0000000   0.0000000
 NMagM=    0.0000000   0.0000000   0.0000000   0.0000000   0.0000000   0.0000000   0.0000000   0.0000000   0.0000000   0.0000000
 AtZNuc=   6.0000000   6.0000000   6.0000000   6.0000000   6.0000000   6.0000000   6.0000000   6.0000000   6.0000000   6.0000000

  Atom        51          52          53          54          55          56          57          58          59          60
 IAtWgt=          12          12          12          12          12          12          12          12          12          12
 AtmWgt=  12.0000000  12.0000000  12.0000000  12.0000000  12.0000000  12.0000000  12.0000000  12.0000000  12.0000000  12.0000000
 NucSpn=           0           0           0           0           0           0           0           0           0           0
 AtZEff=   3.6000000   3.6000000   3.6000000   3.6000000   3.6000000   3.6000000   3.6000000   3.6000000   3.6000000   3.6000000
 NQMom=    0.0000000   0.0000000   0.0000000   0.0000000   0.0000000   0.0000000   0.0000000   0.0000000   0.0000000   0.0000000
 NMagM=    0.0000000   0.0000000   0.0000000   0.0000000   0.0000000   0.0000000   0.0000000   0.0000000   0.0000000   0.0000000
 AtZNuc=   6.0000000   6.0000000   6.0000000   6.0000000   6.0000000   6.0000000   6.0000000   6.0000000   6.0000000   6.0000000

  Atom        61          62          63          64          65          66          67          68          69          70
 IAtWgt=          16           1          16           1          16           1          16           1          16           1
 AtmWgt=  15.9949146   1.0078250  15.9949146   1.0078250  15.9949146   1.0078250  15.9949146   1.0078250  15.9949146   1.0078250
 NucSpn=           0           1           0           1           0           1           0           1           0           1
 AtZEff=   5.6000000   1.0000000   5.6000000   1.0000000   5.6000000   1.0000000   5.6000000   1.0000000   5.6000000   1.0000000
 NQMom=    0.0000000   0.0000000   0.0000000   0.0000000   0.0000000   0.0000000   0.0000000   0.0000000   0.0000000   0.0000000
 NMagM=    0.0000000   2.7928460   0.0000000   2.7928460   0.0000000   2.7928460   0.0000000   2.7928460   0.0000000   2.7928460
 AtZNuc=   8.0000000   1.0000000   8.0000000   1.0000000   8.0000000   1.0000000   8.0000000   1.0000000   8.0000000   1.0000000

  Atom        71          72          73          74          75          76          77          78          79          80
 IAtWgt=          16           1          16           1          16           1          16           1          16           1
 AtmWgt=  15.9949146   1.0078250  15.9949146   1.0078250  15.9949146   1.0078250  15.9949146   1.0078250  15.9949146   1.0078250
 NucSpn=           0           1           0           1           0           1           0           1           0           1
 AtZEff=   5.6000000   1.0000000   5.6000000   1.0000000   5.6000000   1.0000000   5.6000000   1.0000000   5.6000000   1.0000000
 NQMom=    0.0000000   0.0000000   0.0000000   0.0000000   0.0000000   0.0000000   0.0000000   0.0000000   0.0000000   0.0000000
 NMagM=    0.0000000   2.7928460   0.0000000   2.7928460   0.0000000   2.7928460   0.0000000   2.7928460   0.0000000   2.7928460
 AtZNuc=   8.0000000   1.0000000   8.0000000   1.0000000   8.0000000   1.0000000   8.0000000   1.0000000   8.0000000   1.0000000

  Atom        81          82          83          84          85          86          87          88          89          90
 IAtWgt=          16           1          16           1          16           1          16           1          16           1
 AtmWgt=  15.9949146   1.0078250  15.9949146   1.0078250  15.9949146   1.0078250  15.9949146   1.0078250  15.9949146   1.0078250
 NucSpn=           0           1           0           1           0           1           0           1           0           1
 AtZEff=   5.6000000   1.0000000   5.6000000   1.0000000   5.6000000   1.0000000   5.6000000   1.0000000   5.6000000   1.0000000
 NQMom=    0.0000000   0.0000000   0.0000000   0.0000000   0.0000000   0.0000000   0.0000000   0.0000000   0.0000000   0.0000000
 NMagM=    0.0000000   2.7928460   0.0000000   2.7928460   0.0000000   2.7928460   0.0000000   2.7928460   0.0000000   2.7928460
 AtZNuc=   8.0000000   1.0000000   8.0000000   1.0000000   8.0000000   1.0000000   8.0000000   1.0000000   8.0000000   1.0000000

  Atom        91          92          93          94          95          96          97          98          99         100
 IAtWgt=          16           1          16           1          16           1          16           1          16           1
 AtmWgt=  15.9949146   1.0078250  15.9949146   1.0078250  15.9949146   1.0078250  15.9949146   1.0078250  15.9949146   1.0078250
 NucSpn=           0           1           0           1           0           1           0           1           0           1
 AtZEff=   5.6000000   1.0000000   5.6000000   1.0000000   5.6000000   1.0000000   5.6000000   1.0000000   5.6000000   1.0000000
 NQMom=    0.0000000   0.0000000   0.0000000   0.0000000   0.0000000   0.0000000   0.0000000   0.0000000   0.0000000   0.0000000
 NMagM=    0.0000000   2.7928460   0.0000000   2.7928460   0.0000000   2.7928460   0.0000000   2.7928460   0.0000000   2.7928460
 AtZNuc=   8.0000000   1.0000000   8.0000000   1.0000000   8.0000000   1.0000000   8.0000000   1.0000000   8.0000000   1.0000000

  Atom       101         102         103         104         105         106         107         108         109         110
 IAtWgt=          16           1          16           1          16           1          16           1          16           1
 AtmWgt=  15.9949146   1.0078250  15.9949146   1.0078250  15.9949146   1.0078250  15.9949146   1.0078250  15.9949146   1.0078250
 NucSpn=           0           1           0           1           0           1           0           1           0           1
 AtZEff=   5.6000000   1.0000000   5.6000000   1.0000000   5.6000000   1.0000000   5.6000000   1.0000000   5.6000000   1.0000000
 NQMom=    0.0000000   0.0000000   0.0000000   0.0000000   0.0000000   0.0000000   0.0000000   0.0000000   0.0000000   0.0000000
 NMagM=    0.0000000   2.7928460   0.0000000   2.7928460   0.0000000   2.7928460   0.0000000   2.7928460   0.0000000   2.7928460
 AtZNuc=   8.0000000   1.0000000   8.0000000   1.0000000   8.0000000   1.0000000   8.0000000   1.0000000   8.0000000   1.0000000

  Atom       111         112         113         114         115         116
 IAtWgt=          16           1          16           1          16           1
 AtmWgt=  15.9949146   1.0078250  15.9949146   1.0078250  15.9949146   1.0078250
 NucSpn=           0           1           0           1           0           1
 AtZEff=   5.6000000   1.0000000   5.6000000   1.0000000   5.6000000   1.0000000
 NQMom=    0.0000000   0.0000000   0.0000000   0.0000000   0.0000000   0.0000000
 NMagM=    0.0000000   2.7928460   0.0000000   2.7928460   0.0000000   2.7928460
 AtZNuc=   8.0000000   1.0000000   8.0000000   1.0000000   8.0000000   1.0000000
 Leave Link  101 at Tue May 24 15:17:24 2022, MaxMem=  1342177280 cpu:              10.9 elap:               0.5
 (Enter /home/mkliu/g16/l103.exe)

 GradGradGradGradGradGradGradGradGradGradGradGradGradGradGradGradGradGrad
 Berny optimization.
 Initialization pass.
                           ----------------------------
                           !    Initial Parameters    !
                           ! (Angstroms and Degrees)  !
 --------------------------                            --------------------------
 ! Name  Definition              Value          Derivative Info.                !
 --------------------------------------------------------------------------------
 ! R1    R(1,2)                  1.5285         estimate D2E/DX2                !
 ! R2    R(1,4)                  1.5248         estimate D2E/DX2                !
 ! R3    R(1,8)                  1.5073         estimate D2E/DX2                !
 ! R4    R(1,85)                 1.4368         estimate D2E/DX2                !
 ! R5    R(2,3)                  1.5292         estimate D2E/DX2                !
 ! R6    R(2,11)                 1.3333         estimate D2E/DX2                !
 ! R7    R(3,5)                  1.5244         estimate D2E/DX2                !
 ! R8    R(3,14)                 1.4941         estimate D2E/DX2                !
 ! R9    R(3,61)                 1.4308         estimate D2E/DX2                !
 ! R10   R(4,5)                  1.3364         estimate D2E/DX2                !
 ! R11   R(4,6)                  1.5042         estimate D2E/DX2                !
 ! R12   R(5,17)                 1.5158         estimate D2E/DX2                !
 ! R13   R(6,7)                  1.5226         estimate D2E/DX2                !
 ! R14   R(6,19)                 1.5323         estimate D2E/DX2                !
 ! R15   R(6,105)                1.4352         estimate D2E/DX2                !
 ! R16   R(7,9)                  1.5026         estimate D2E/DX2                !
 ! R17   R(7,21)                 1.3355         estimate D2E/DX2                !
 ! R18   R(8,9)                  1.5194         estimate D2E/DX2                !
 ! R19   R(8,10)                 1.3342         estimate D2E/DX2                !
 ! R20   R(9,24)                 1.5313         estimate D2E/DX2                !
 ! R21   R(9,115)                1.4352         estimate D2E/DX2                !
 ! R22   R(10,12)                1.5011         estimate D2E/DX2                !
 ! R23   R(10,25)                1.5205         estimate D2E/DX2                !
 ! R24   R(11,12)                1.5362         estimate D2E/DX2                !
 ! R25   R(11,13)                1.5275         estimate D2E/DX2                !
 ! R26   R(12,28)                1.5256         estimate D2E/DX2                !
 ! R27   R(12,83)                1.4334         estimate D2E/DX2                !
 ! R28   R(13,15)                1.578          estimate D2E/DX2                !
 ! R29   R(13,29)                1.5273         estimate D2E/DX2                !
 ! R30   R(13,63)                1.4302         estimate D2E/DX2                !
 ! R31   R(14,15)                1.5223         estimate D2E/DX2                !
 ! R32   R(14,16)                1.3351         estimate D2E/DX2                !
 ! R33   R(15,32)                1.5267         estimate D2E/DX2                !
 ! R34   R(15,65)                1.4349         estimate D2E/DX2                !
 ! R35   R(16,18)                1.4969         estimate D2E/DX2                !
 ! R36   R(16,33)                1.5201         estimate D2E/DX2                !
 ! R37   R(17,18)                1.6008         estimate D2E/DX2                !
 ! R38   R(17,20)                1.5267         estimate D2E/DX2                !
 ! R39   R(17,77)                1.427          estimate D2E/DX2                !
 ! R40   R(18,36)                1.5204         estimate D2E/DX2                !
 ! R41   R(18,71)                1.4369         estimate D2E/DX2                !
 ! R42   R(19,20)                1.3329         estimate D2E/DX2                !
 ! R43   R(19,22)                1.5321         estimate D2E/DX2                !
 ! R44   R(20,37)                1.5151         estimate D2E/DX2                !
 ! R45   R(21,22)                1.5221         estimate D2E/DX2                !
 ! R46   R(21,23)                1.5015         estimate D2E/DX2                !
 ! R47   R(22,39)                1.5806         estimate D2E/DX2                !
 ! R48   R(22,103)               1.4262         estimate D2E/DX2                !
 ! R49   R(23,26)                1.5287         estimate D2E/DX2                !
 ! R50   R(23,41)                1.5198         estimate D2E/DX2                !
 ! R51   R(23,111)               1.4355         estimate D2E/DX2                !
 ! R52   R(24,25)                1.5321         estimate D2E/DX2                !
 ! R53   R(24,26)                1.3349         estimate D2E/DX2                !
 ! R54   R(25,27)                1.5026         estimate D2E/DX2                !
 ! R55   R(25,113)               1.4361         estimate D2E/DX2                !
 ! R56   R(26,43)                1.5268         estimate D2E/DX2                !
 ! R57   R(27,30)                1.5075         estimate D2E/DX2                !
 ! R58   R(27,44)                1.3296         estimate D2E/DX2                !
 ! R59   R(28,29)                1.3358         estimate D2E/DX2                !
 ! R60   R(28,30)                1.5063         estimate D2E/DX2                !
 ! R61   R(29,31)                1.4963         estimate D2E/DX2                !
 ! R62   R(30,46)                1.5975         estimate D2E/DX2                !
 ! R63   R(30,91)                1.4387         estimate D2E/DX2                !
 ! R64   R(31,34)                1.518          estimate D2E/DX2                !
 ! R65   R(31,47)                1.5292         estimate D2E/DX2                !
 ! R66   R(31,73)                1.4363         estimate D2E/DX2                !
 ! R67   R(32,33)                1.5303         estimate D2E/DX2                !
 ! R68   R(32,34)                1.3306         estimate D2E/DX2                !
 ! R69   R(33,35)                1.5682         estimate D2E/DX2                !
 ! R70   R(33,67)                1.4397         estimate D2E/DX2                !
 ! R71   R(34,49)                1.5248         estimate D2E/DX2                !
 ! R72   R(35,38)                1.5277         estimate D2E/DX2                !
 ! R73   R(35,50)                1.5213         estimate D2E/DX2                !
 ! R74   R(35,69)                1.4283         estimate D2E/DX2                !
 ! R75   R(36,37)                1.5266         estimate D2E/DX2                !
 ! R76   R(36,38)                1.3345         estimate D2E/DX2                !
 ! R77   R(37,40)                1.4999         estimate D2E/DX2                !
 ! R78   R(37,81)                1.4372         estimate D2E/DX2                !
 ! R79   R(38,52)                1.5322         estimate D2E/DX2                !
 ! R80   R(39,40)                1.5173         estimate D2E/DX2                !
 ! R81   R(39,42)                1.5327         estimate D2E/DX2                !
 ! R82   R(39,101)               1.4395         estimate D2E/DX2                !
 ! R83   R(40,53)                1.3326         estimate D2E/DX2                !
 ! R84   R(41,42)                1.3342         estimate D2E/DX2                !
 ! R85   R(41,45)                1.5192         estimate D2E/DX2                !
 ! R86   R(42,54)                1.536          estimate D2E/DX2                !
 ! R87   R(43,44)                1.5179         estimate D2E/DX2                !
 ! R88   R(43,45)                1.5946         estimate D2E/DX2                !
 ! R89   R(43,109)               1.4275         estimate D2E/DX2                !
 ! R90   R(44,48)                1.5098         estimate D2E/DX2                !
 ! R91   R(45,56)                1.4932         estimate D2E/DX2                !
 ! R92   R(45,107)               1.4378         estimate D2E/DX2                !
 ! R93   R(46,47)                1.5106         estimate D2E/DX2                !
 ! R94   R(46,48)                1.602          estimate D2E/DX2                !
 ! R95   R(46,93)                1.4147         estimate D2E/DX2                !
 ! R96   R(47,51)                1.3409         estimate D2E/DX2                !
 ! R97   R(48,57)                1.5043         estimate D2E/DX2                !
 ! R98   R(48,99)                1.4307         estimate D2E/DX2                !
 ! R99   R(49,50)                1.4936         estimate D2E/DX2                !
 ! R100  R(49,51)                1.5201         estimate D2E/DX2                !
 ! R101  R(49,75)                1.4296         estimate D2E/DX2                !
 ! R102  R(50,55)                1.3368         estimate D2E/DX2                !
 ! R103  R(51,58)                1.511          estimate D2E/DX2                !
 ! R104  R(52,53)                1.4881         estimate D2E/DX2                !
 ! R105  R(52,55)                1.5178         estimate D2E/DX2                !
 ! R106  R(52,79)                1.4334         estimate D2E/DX2                !
 ! R107  R(53,54)                1.5134         estimate D2E/DX2                !
 ! R108  R(54,59)                1.5835         estimate D2E/DX2                !
 ! R109  R(54,97)                1.4422         estimate D2E/DX2                !
 ! R110  R(55,60)                1.5042         estimate D2E/DX2                !
 ! R111  R(56,57)                1.3311         estimate D2E/DX2                !
 ! R112  R(56,59)                1.4977         estimate D2E/DX2                !
 ! R113  R(57,58)                1.5054         estimate D2E/DX2                !
 ! R114  R(58,60)                1.6032         estimate D2E/DX2                !
 ! R115  R(58,87)                1.4289         estimate D2E/DX2                !
 ! R116  R(59,60)                1.6037         estimate D2E/DX2                !
 ! R117  R(59,95)                1.4338         estimate D2E/DX2                !
 ! R118  R(60,89)                1.413          estimate D2E/DX2                !
 ! R119  R(61,62)                0.9709         estimate D2E/DX2                !
 ! R120  R(63,64)                0.9708         estimate D2E/DX2                !
 ! R121  R(65,66)                0.9711         estimate D2E/DX2                !
 ! R122  R(67,68)                0.9725         estimate D2E/DX2                !
 ! R123  R(69,70)                0.9738         estimate D2E/DX2                !
 ! R124  R(71,72)                0.9703         estimate D2E/DX2                !
 ! R125  R(73,74)                0.9709         estimate D2E/DX2                !
 ! R126  R(75,76)                0.9705         estimate D2E/DX2                !
 ! R127  R(77,78)                0.9768         estimate D2E/DX2                !
 ! R128  R(79,80)                0.9711         estimate D2E/DX2                !
 ! R129  R(81,82)                0.971          estimate D2E/DX2                !
 ! R130  R(83,84)                0.9708         estimate D2E/DX2                !
 ! R131  R(85,86)                0.9712         estimate D2E/DX2                !
 ! R132  R(87,88)                0.9704         estimate D2E/DX2                !
 ! R133  R(89,90)                0.976          estimate D2E/DX2                !
 ! R134  R(91,92)                0.9709         estimate D2E/DX2                !
 ! R135  R(93,94)                0.9736         estimate D2E/DX2                !
 ! R136  R(95,96)                0.9815         estimate D2E/DX2                !
 ! R137  R(97,98)                0.9723         estimate D2E/DX2                !
 ! R138  R(99,100)               0.9704         estimate D2E/DX2                !
 ! R139  R(101,102)              0.9721         estimate D2E/DX2                !
 ! R140  R(103,104)              0.9774         estimate D2E/DX2                !
 ! R141  R(105,106)              0.9713         estimate D2E/DX2                !
 ! R142  R(107,108)              0.9736         estimate D2E/DX2                !
 ! R143  R(109,110)              0.9773         estimate D2E/DX2                !
 ! R144  R(111,112)              0.9709         estimate D2E/DX2                !
 ! R145  R(113,114)              0.9706         estimate D2E/DX2                !
 ! R146  R(115,116)              0.9705         estimate D2E/DX2                !
 ! A1    A(2,1,4)              100.0539         estimate D2E/DX2                !
 ! A2    A(2,1,8)              110.0837         estimate D2E/DX2                !
 ! A3    A(2,1,85)             110.9964         estimate D2E/DX2                !
 ! A4    A(4,1,8)              109.3926         estimate D2E/DX2                !
 ! A5    A(4,1,85)             113.1882         estimate D2E/DX2                !
 ! A6    A(8,1,85)             112.4509         estimate D2E/DX2                !
 ! A7    A(1,2,3)              109.0694         estimate D2E/DX2                !
 ! A8    A(1,2,11)             123.3467         estimate D2E/DX2                !
 ! A9    A(3,2,11)             123.228          estimate D2E/DX2                !
 ! A10   A(2,3,5)              100.5852         estimate D2E/DX2                !
 ! A11   A(2,3,14)             108.5395         estimate D2E/DX2                !
 ! A12   A(2,3,61)             115.6906         estimate D2E/DX2                !
 ! A13   A(5,3,14)             107.1469         estimate D2E/DX2                !
 ! A14   A(5,3,61)             114.9359         estimate D2E/DX2                !
 ! A15   A(14,3,61)            109.318          estimate D2E/DX2                !
 ! A16   A(1,4,5)              112.7079         estimate D2E/DX2                !
 ! A17   A(1,4,6)              122.3019         estimate D2E/DX2                !
 ! A18   A(5,4,6)              123.8769         estimate D2E/DX2                !
 ! A19   A(3,5,4)              111.7688         estimate D2E/DX2                !
 ! A20   A(3,5,17)             124.2969         estimate D2E/DX2                !
 ! A21   A(4,5,17)             122.9074         estimate D2E/DX2                !
 ! A22   A(4,6,7)              109.8711         estimate D2E/DX2                !
 ! A23   A(4,6,19)             110.0979         estimate D2E/DX2                !
 ! A24   A(4,6,105)            108.3959         estimate D2E/DX2                !
 ! A25   A(7,6,19)              99.2606         estimate D2E/DX2                !
 ! A26   A(7,6,105)            113.3333         estimate D2E/DX2                !
 ! A27   A(19,6,105)           115.5959         estimate D2E/DX2                !
 ! A28   A(6,7,9)              122.7713         estimate D2E/DX2                !
 ! A29   A(6,7,21)             112.2994         estimate D2E/DX2                !
 ! A30   A(9,7,21)             124.0851         estimate D2E/DX2                !
 ! A31   A(1,8,9)              122.9561         estimate D2E/DX2                !
 ! A32   A(1,8,10)             123.7166         estimate D2E/DX2                !
 ! A33   A(9,8,10)             112.296          estimate D2E/DX2                !
 ! A34   A(7,9,8)              108.9678         estimate D2E/DX2                !
 ! A35   A(7,9,24)             109.6725         estimate D2E/DX2                !
 ! A36   A(7,9,115)            112.7532         estimate D2E/DX2                !
 ! A37   A(8,9,24)             100.3374         estimate D2E/DX2                !
 ! A38   A(8,9,115)            108.644          estimate D2E/DX2                !
 ! A39   A(24,9,115)           115.6033         estimate D2E/DX2                !
 ! A40   A(8,10,12)            123.7921         estimate D2E/DX2                !
 ! A41   A(8,10,25)            112.655          estimate D2E/DX2                !
 ! A42   A(12,10,25)           122.4185         estimate D2E/DX2                !
 ! A43   A(2,11,12)            122.8009         estimate D2E/DX2                !
 ! A44   A(2,11,13)            125.8925         estimate D2E/DX2                !
 ! A45   A(12,11,13)           108.1514         estimate D2E/DX2                !
 ! A46   A(10,12,11)           110.2275         estimate D2E/DX2                !
 ! A47   A(10,12,28)           108.8784         estimate D2E/DX2                !
 ! A48   A(10,12,83)           108.6793         estimate D2E/DX2                !
 ! A49   A(11,12,28)           100.078          estimate D2E/DX2                !
 ! A50   A(11,12,83)           115.5166         estimate D2E/DX2                !
 ! A51   A(28,12,83)           113.1205         estimate D2E/DX2                !
 ! A52   A(11,13,15)           114.2227         estimate D2E/DX2                !
 ! A53   A(11,13,29)            99.4051         estimate D2E/DX2                !
 ! A54   A(11,13,63)           107.7            estimate D2E/DX2                !
 ! A55   A(15,13,29)           112.231          estimate D2E/DX2                !
 ! A56   A(15,13,63)           111.0391         estimate D2E/DX2                !
 ! A57   A(29,13,63)           111.6889         estimate D2E/DX2                !
 ! A58   A(3,14,15)            124.0179         estimate D2E/DX2                !
 ! A59   A(3,14,16)            123.6695         estimate D2E/DX2                !
 ! A60   A(15,14,16)           111.9197         estimate D2E/DX2                !
 ! A61   A(13,15,14)           112.5972         estimate D2E/DX2                !
 ! A62   A(13,15,32)           115.0902         estimate D2E/DX2                !
 ! A63   A(13,15,65)           111.3709         estimate D2E/DX2                !
 ! A64   A(14,15,32)            99.3964         estimate D2E/DX2                !
 ! A65   A(14,15,65)           111.0709         estimate D2E/DX2                !
 ! A66   A(32,15,65)           106.6367         estimate D2E/DX2                !
 ! A67   A(14,16,18)           127.2043         estimate D2E/DX2                !
 ! A68   A(14,16,33)           111.3058         estimate D2E/DX2                !
 ! A69   A(18,16,33)           121.487          estimate D2E/DX2                !
 ! A70   A(5,17,18)            112.5324         estimate D2E/DX2                !
 ! A71   A(5,17,20)            108.4412         estimate D2E/DX2                !
 ! A72   A(5,17,77)            111.7993         estimate D2E/DX2                !
 ! A73   A(18,17,20)           103.8724         estimate D2E/DX2                !
 ! A74   A(18,17,77)           109.8139         estimate D2E/DX2                !
 ! A75   A(20,17,77)           110.0719         estimate D2E/DX2                !
 ! A76   A(16,18,17)           112.5127         estimate D2E/DX2                !
 ! A77   A(16,18,36)           107.7728         estimate D2E/DX2                !
 ! A78   A(16,18,71)           111.0772         estimate D2E/DX2                !
 ! A79   A(17,18,36)           104.5529         estimate D2E/DX2                !
 ! A80   A(17,18,71)           108.2219         estimate D2E/DX2                !
 ! A81   A(36,18,71)           112.5829         estimate D2E/DX2                !
 ! A82   A(6,19,20)            121.9893         estimate D2E/DX2                !
 ! A83   A(6,19,22)            108.3785         estimate D2E/DX2                !
 ! A84   A(20,19,22)           126.4841         estimate D2E/DX2                !
 ! A85   A(17,20,19)           123.8252         estimate D2E/DX2                !
 ! A86   A(17,20,37)           111.4902         estimate D2E/DX2                !
 ! A87   A(19,20,37)           123.2047         estimate D2E/DX2                !
 ! A88   A(7,21,22)            112.0345         estimate D2E/DX2                !
 ! A89   A(7,21,23)            123.4291         estimate D2E/DX2                !
 ! A90   A(22,21,23)           123.8083         estimate D2E/DX2                !
 ! A91   A(19,22,21)            99.0304         estimate D2E/DX2                !
 ! A92   A(19,22,39)           113.4672         estimate D2E/DX2                !
 ! A93   A(19,22,103)          110.9778         estimate D2E/DX2                !
 ! A94   A(21,22,39)           113.2195         estimate D2E/DX2                !
 ! A95   A(21,22,103)          109.3061         estimate D2E/DX2                !
 ! A96   A(39,22,103)          110.3487         estimate D2E/DX2                !
 ! A97   A(21,23,26)           109.8766         estimate D2E/DX2                !
 ! A98   A(21,23,41)           108.2297         estimate D2E/DX2                !
 ! A99   A(21,23,111)          109.6724         estimate D2E/DX2                !
 ! A100  A(26,23,41)           101.1724         estimate D2E/DX2                !
 ! A101  A(26,23,111)          114.2518         estimate D2E/DX2                !
 ! A102  A(41,23,111)          113.2465         estimate D2E/DX2                !
 ! A103  A(9,24,25)            109.1579         estimate D2E/DX2                !
 ! A104  A(9,24,26)            123.0869         estimate D2E/DX2                !
 ! A105  A(25,24,26)           122.6353         estimate D2E/DX2                !
 ! A106  A(10,25,24)           100.1129         estimate D2E/DX2                !
 ! A107  A(10,25,27)           109.3616         estimate D2E/DX2                !
 ! A108  A(10,25,113)          113.2822         estimate D2E/DX2                !
 ! A109  A(24,25,27)           109.9472         estimate D2E/DX2                !
 ! A110  A(24,25,113)          116.673          estimate D2E/DX2                !
 ! A111  A(27,25,113)          107.2494         estimate D2E/DX2                !
 ! A112  A(23,26,24)           123.0305         estimate D2E/DX2                !
 ! A113  A(23,26,43)           111.408          estimate D2E/DX2                !
 ! A114  A(24,26,43)           123.1736         estimate D2E/DX2                !
 ! A115  A(25,27,30)           121.4517         estimate D2E/DX2                !
 ! A116  A(25,27,44)           123.9689         estimate D2E/DX2                !
 ! A117  A(30,27,44)           114.0636         estimate D2E/DX2                !
 ! A118  A(12,28,29)           111.5767         estimate D2E/DX2                !
 ! A119  A(12,28,30)           121.2293         estimate D2E/DX2                !
 ! A120  A(29,28,30)           126.7512         estimate D2E/DX2                !
 ! A121  A(13,29,28)           112.452          estimate D2E/DX2                !
 ! A122  A(13,29,31)           123.9589         estimate D2E/DX2                !
 ! A123  A(28,29,31)           123.0245         estimate D2E/DX2                !
 ! A124  A(27,30,28)           108.5983         estimate D2E/DX2                !
 ! A125  A(27,30,46)           103.7293         estimate D2E/DX2                !
 ! A126  A(27,30,91)           112.3736         estimate D2E/DX2                !
 ! A127  A(28,30,46)           113.658          estimate D2E/DX2                !
 ! A128  A(28,30,91)           110.2296         estimate D2E/DX2                !
 ! A129  A(46,30,91)           108.1611         estimate D2E/DX2                !
 ! A130  A(29,31,34)           109.4361         estimate D2E/DX2                !
 ! A131  A(29,31,47)           108.4424         estimate D2E/DX2                !
 ! A132  A(29,31,73)           113.357          estimate D2E/DX2                !
 ! A133  A(34,31,47)           100.3943         estimate D2E/DX2                !
 ! A134  A(34,31,73)           110.2042         estimate D2E/DX2                !
 ! A135  A(47,31,73)           114.1916         estimate D2E/DX2                !
 ! A136  A(15,32,33)           106.9366         estimate D2E/DX2                !
 ! A137  A(15,32,34)           125.3194         estimate D2E/DX2                !
 ! A138  A(33,32,34)           125.168          estimate D2E/DX2                !
 ! A139  A(16,33,32)            99.3163         estimate D2E/DX2                !
 ! A140  A(16,33,35)           113.737          estimate D2E/DX2                !
 ! A141  A(16,33,67)           108.6383         estimate D2E/DX2                !
 ! A142  A(32,33,35)           114.7508         estimate D2E/DX2                !
 ! A143  A(32,33,67)           113.592          estimate D2E/DX2                !
 ! A144  A(35,33,67)           106.7399         estimate D2E/DX2                !
 ! A145  A(31,34,32)           123.7369         estimate D2E/DX2                !
 ! A146  A(31,34,49)           108.9533         estimate D2E/DX2                !
 ! A147  A(32,34,49)           123.6046         estimate D2E/DX2                !
 ! A148  A(33,35,38)           113.1468         estimate D2E/DX2                !
 ! A149  A(33,35,50)           112.7405         estimate D2E/DX2                !
 ! A150  A(33,35,69)           111.396          estimate D2E/DX2                !
 ! A151  A(38,35,50)            99.2361         estimate D2E/DX2                !
 ! A152  A(38,35,69)           112.2033         estimate D2E/DX2                !
 ! A153  A(50,35,69)           107.4318         estimate D2E/DX2                !
 ! A154  A(18,36,37)           111.4607         estimate D2E/DX2                !
 ! A155  A(18,36,38)           122.7761         estimate D2E/DX2                !
 ! A156  A(37,36,38)           123.3465         estimate D2E/DX2                !
 ! A157  A(20,37,36)           101.1569         estimate D2E/DX2                !
 ! A158  A(20,37,40)           108.3363         estimate D2E/DX2                !
 ! A159  A(20,37,81)           114.0311         estimate D2E/DX2                !
 ! A160  A(36,37,40)           109.4313         estimate D2E/DX2                !
 ! A161  A(36,37,81)           114.5518         estimate D2E/DX2                !
 ! A162  A(40,37,81)           108.9746         estimate D2E/DX2                !
 ! A163  A(35,38,36)           126.122          estimate D2E/DX2                !
 ! A164  A(35,38,52)           107.8128         estimate D2E/DX2                !
 ! A165  A(36,38,52)           122.3474         estimate D2E/DX2                !
 ! A166  A(22,39,40)           112.9856         estimate D2E/DX2                !
 ! A167  A(22,39,42)           114.604          estimate D2E/DX2                !
 ! A168  A(22,39,101)          109.4462         estimate D2E/DX2                !
 ! A169  A(40,39,42)            98.8027         estimate D2E/DX2                !
 ! A170  A(40,39,101)          111.0276         estimate D2E/DX2                !
 ! A171  A(42,39,101)          109.6058         estimate D2E/DX2                !
 ! A172  A(37,40,39)           124.188          estimate D2E/DX2                !
 ! A173  A(37,40,53)           123.4972         estimate D2E/DX2                !
 ! A174  A(39,40,53)           111.8206         estimate D2E/DX2                !
 ! A175  A(23,41,42)           124.4232         estimate D2E/DX2                !
 ! A176  A(23,41,45)           111.3375         estimate D2E/DX2                !
 ! A177  A(42,41,45)           122.9259         estimate D2E/DX2                !
 ! A178  A(39,42,41)           124.8298         estimate D2E/DX2                !
 ! A179  A(39,42,54)           107.5109         estimate D2E/DX2                !
 ! A180  A(41,42,54)           124.155          estimate D2E/DX2                !
 ! A181  A(26,43,44)           108.9029         estimate D2E/DX2                !
 ! A182  A(26,43,45)           103.7442         estimate D2E/DX2                !
 ! A183  A(26,43,109)          111.8876         estimate D2E/DX2                !
 ! A184  A(44,43,45)           111.7571         estimate D2E/DX2                !
 ! A185  A(44,43,109)          110.3045         estimate D2E/DX2                !
 ! A186  A(45,43,109)          110.0963         estimate D2E/DX2                !
 ! A187  A(27,44,43)           123.1432         estimate D2E/DX2                !
 ! A188  A(27,44,48)           112.6829         estimate D2E/DX2                !
 ! A189  A(43,44,48)           123.6371         estimate D2E/DX2                !
 ! A190  A(41,45,43)           105.1666         estimate D2E/DX2                !
 ! A191  A(41,45,56)           108.3936         estimate D2E/DX2                !
 ! A192  A(41,45,107)          111.6773         estimate D2E/DX2                !
 ! A193  A(43,45,56)           112.7201         estimate D2E/DX2                !
 ! A194  A(43,45,107)          108.1948         estimate D2E/DX2                !
 ! A195  A(56,45,107)          110.6046         estimate D2E/DX2                !
 ! A196  A(30,46,47)           112.1906         estimate D2E/DX2                !
 ! A197  A(30,46,48)           104.315          estimate D2E/DX2                !
 ! A198  A(30,46,93)           110.6601         estimate D2E/DX2                !
 ! A199  A(47,46,48)           110.8678         estimate D2E/DX2                !
 ! A200  A(47,46,93)           106.0947         estimate D2E/DX2                !
 ! A201  A(48,46,93)           112.8574         estimate D2E/DX2                !
 ! A202  A(31,47,46)           121.8693         estimate D2E/DX2                !
 ! A203  A(31,47,51)           111.6233         estimate D2E/DX2                !
 ! A204  A(46,47,51)           126.3405         estimate D2E/DX2                !
 ! A205  A(44,48,46)           104.2614         estimate D2E/DX2                !
 ! A206  A(44,48,57)           106.0538         estimate D2E/DX2                !
 ! A207  A(44,48,99)           114.165          estimate D2E/DX2                !
 ! A208  A(46,48,57)           113.2605         estimate D2E/DX2                !
 ! A209  A(46,48,99)           107.974          estimate D2E/DX2                !
 ! A210  A(57,48,99)           111.0547         estimate D2E/DX2                !
 ! A211  A(34,49,50)           108.8605         estimate D2E/DX2                !
 ! A212  A(34,49,51)           100.5784         estimate D2E/DX2                !
 ! A213  A(34,49,75)           115.3242         estimate D2E/DX2                !
 ! A214  A(50,49,51)           107.2297         estimate D2E/DX2                !
 ! A215  A(50,49,75)           109.5892         estimate D2E/DX2                !
 ! A216  A(51,49,75)           114.6595         estimate D2E/DX2                !
 ! A217  A(35,50,49)           122.9147         estimate D2E/DX2                !
 ! A218  A(35,50,55)           112.7522         estimate D2E/DX2                !
 ! A219  A(49,50,55)           124.0711         estimate D2E/DX2                !
 ! A220  A(47,51,49)           112.0925         estimate D2E/DX2                !
 ! A221  A(47,51,58)           123.6718         estimate D2E/DX2                !
 ! A222  A(49,51,58)           123.1427         estimate D2E/DX2                !
 ! A223  A(38,52,53)           110.1782         estimate D2E/DX2                !
 ! A224  A(38,52,55)           100.4487         estimate D2E/DX2                !
 ! A225  A(38,52,79)           116.115          estimate D2E/DX2                !
 ! A226  A(53,52,55)           107.9562         estimate D2E/DX2                !
 ! A227  A(53,52,79)           108.3936         estimate D2E/DX2                !
 ! A228  A(55,52,79)           113.3492         estimate D2E/DX2                !
 ! A229  A(40,53,52)           124.0955         estimate D2E/DX2                !
 ! A230  A(40,53,54)           112.4603         estimate D2E/DX2                !
 ! A231  A(52,53,54)           123.1357         estimate D2E/DX2                !
 ! A232  A(42,54,53)            98.4145         estimate D2E/DX2                !
 ! A233  A(42,54,59)           114.0147         estimate D2E/DX2                !
 ! A234  A(42,54,97)           109.9238         estimate D2E/DX2                !
 ! A235  A(53,54,59)           115.2909         estimate D2E/DX2                !
 ! A236  A(53,54,97)           110.1518         estimate D2E/DX2                !
 ! A237  A(59,54,97)           108.6867         estimate D2E/DX2                !
 ! A238  A(50,55,52)           111.1131         estimate D2E/DX2                !
 ! A239  A(50,55,60)           126.6741         estimate D2E/DX2                !
 ! A240  A(52,55,60)           122.2113         estimate D2E/DX2                !
 ! A241  A(45,56,57)           127.0806         estimate D2E/DX2                !
 ! A242  A(45,56,59)           119.4388         estimate D2E/DX2                !
 ! A243  A(57,56,59)           113.2888         estimate D2E/DX2                !
 ! A244  A(48,57,56)           123.1867         estimate D2E/DX2                !
 ! A245  A(48,57,58)           123.3303         estimate D2E/DX2                !
 ! A246  A(56,57,58)           113.2541         estimate D2E/DX2                !
 ! A247  A(51,58,57)           104.9741         estimate D2E/DX2                !
 ! A248  A(51,58,60)           114.4859         estimate D2E/DX2                !
 ! A249  A(51,58,87)           112.6682         estimate D2E/DX2                !
 ! A250  A(57,58,60)           103.3846         estimate D2E/DX2                !
 ! A251  A(57,58,87)           113.1132         estimate D2E/DX2                !
 ! A252  A(60,58,87)           107.933          estimate D2E/DX2                !
 ! A253  A(54,59,56)           113.2026         estimate D2E/DX2                !
 ! A254  A(54,59,60)           116.9426         estimate D2E/DX2                !
 ! A255  A(54,59,95)           108.3631         estimate D2E/DX2                !
 ! A256  A(56,59,60)           103.1086         estimate D2E/DX2                !
 ! A257  A(56,59,95)           106.0066         estimate D2E/DX2                !
 ! A258  A(60,59,95)           108.5967         estimate D2E/DX2                !
 ! A259  A(55,60,58)           110.7165         estimate D2E/DX2                !
 ! A260  A(55,60,59)           113.2826         estimate D2E/DX2                !
 ! A261  A(55,60,89)           106.4835         estimate D2E/DX2                !
 ! A262  A(58,60,59)           103.7054         estimate D2E/DX2                !
 ! A263  A(58,60,89)           113.1033         estimate D2E/DX2                !
 ! A264  A(59,60,89)           109.6991         estimate D2E/DX2                !
 ! A265  A(3,61,62)            106.8852         estimate D2E/DX2                !
 ! A266  A(13,63,64)           107.5423         estimate D2E/DX2                !
 ! A267  A(15,65,66)           107.7041         estimate D2E/DX2                !
 ! A268  A(33,67,68)           107.547          estimate D2E/DX2                !
 ! A269  A(35,69,70)           106.2952         estimate D2E/DX2                !
 ! A270  A(18,71,72)           107.8868         estimate D2E/DX2                !
 ! A271  A(31,73,74)           106.8289         estimate D2E/DX2                !
 ! A272  A(49,75,76)           106.8036         estimate D2E/DX2                !
 ! A273  A(17,77,78)           105.004          estimate D2E/DX2                !
 ! A274  A(52,79,80)           107.0963         estimate D2E/DX2                !
 ! A275  A(37,81,82)           107.0658         estimate D2E/DX2                !
 ! A276  A(12,83,84)           106.7903         estimate D2E/DX2                !
 ! A277  A(1,85,86)            106.6909         estimate D2E/DX2                !
 ! A278  A(58,87,88)           106.8552         estimate D2E/DX2                !
 ! A279  A(60,89,90)           104.8708         estimate D2E/DX2                !
 ! A280  A(30,91,92)           107.2665         estimate D2E/DX2                !
 ! A281  A(46,93,94)           106.028          estimate D2E/DX2                !
 ! A282  A(59,95,96)           104.9761         estimate D2E/DX2                !
 ! A283  A(54,97,98)           107.3834         estimate D2E/DX2                !
 ! A284  A(48,99,100)          106.6551         estimate D2E/DX2                !
 ! A285  A(39,101,102)         107.6883         estimate D2E/DX2                !
 ! A286  A(22,103,104)         105.1299         estimate D2E/DX2                !
 ! A287  A(6,105,106)          107.0822         estimate D2E/DX2                !
 ! A288  A(45,107,108)         107.3074         estimate D2E/DX2                !
 ! A289  A(43,109,110)         104.9975         estimate D2E/DX2                !
 ! A290  A(23,111,112)         107.0577         estimate D2E/DX2                !
 ! A291  A(25,113,114)         107.1225         estimate D2E/DX2                !
 ! A292  A(9,115,116)          107.1519         estimate D2E/DX2                !
 ! D1    D(4,1,2,3)            -23.2999         estimate D2E/DX2                !
 ! D2    D(4,1,2,11)           133.8512         estimate D2E/DX2                !
 ! D3    D(8,1,2,3)           -138.3794         estimate D2E/DX2                !
 ! D4    D(8,1,2,11)            18.7717         estimate D2E/DX2                !
 ! D5    D(85,1,2,3)            96.4608         estimate D2E/DX2                !
 ! D6    D(85,1,2,11)         -106.3881         estimate D2E/DX2                !
 ! D7    D(2,1,4,5)             14.6132         estimate D2E/DX2                !
 ! D8    D(2,1,4,6)           -153.7504         estimate D2E/DX2                !
 ! D9    D(8,1,4,5)            130.2163         estimate D2E/DX2                !
 ! D10   D(8,1,4,6)            -38.1473         estimate D2E/DX2                !
 ! D11   D(85,1,4,5)          -103.5396         estimate D2E/DX2                !
 ! D12   D(85,1,4,6)            88.0968         estimate D2E/DX2                !
 ! D13   D(2,1,8,9)            148.1458         estimate D2E/DX2                !
 ! D14   D(2,1,8,10)           -19.3362         estimate D2E/DX2                !
 ! D15   D(4,1,8,9)             39.134          estimate D2E/DX2                !
 ! D16   D(4,1,8,10)          -128.3479         estimate D2E/DX2                !
 ! D17   D(85,1,8,9)           -87.53           estimate D2E/DX2                !
 ! D18   D(85,1,8,10)          104.988          estimate D2E/DX2                !
 ! D19   D(2,1,85,86)         -172.157          estimate D2E/DX2                !
 ! D20   D(4,1,85,86)          -60.5756         estimate D2E/DX2                !
 ! D21   D(8,1,85,86)           64.0244         estimate D2E/DX2                !
 ! D22   D(1,2,3,5)             23.2494         estimate D2E/DX2                !
 ! D23   D(1,2,3,14)           135.5222         estimate D2E/DX2                !
 ! D24   D(1,2,3,61)          -101.2121         estimate D2E/DX2                !
 ! D25   D(11,2,3,5)          -133.9345         estimate D2E/DX2                !
 ! D26   D(11,2,3,14)          -21.6617         estimate D2E/DX2                !
 ! D27   D(11,2,3,61)          101.604          estimate D2E/DX2                !
 ! D28   D(1,2,11,12)            0.4161         estimate D2E/DX2                !
 ! D29   D(1,2,11,13)         -157.0849         estimate D2E/DX2                !
 ! D30   D(3,2,11,12)          154.3934         estimate D2E/DX2                !
 ! D31   D(3,2,11,13)           -3.1076         estimate D2E/DX2                !
 ! D32   D(2,3,5,4)            -14.0711         estimate D2E/DX2                !
 ! D33   D(2,3,5,17)           154.5957         estimate D2E/DX2                !
 ! D34   D(14,3,5,4)          -127.4099         estimate D2E/DX2                !
 ! D35   D(14,3,5,17)           41.2569         estimate D2E/DX2                !
 ! D36   D(61,3,5,4)           110.9055         estimate D2E/DX2                !
 ! D37   D(61,3,5,17)          -80.4277         estimate D2E/DX2                !
 ! D38   D(2,3,14,15)           40.7338         estimate D2E/DX2                !
 ! D39   D(2,3,14,16)         -131.4843         estimate D2E/DX2                !
 ! D40   D(5,3,14,15)          148.5663         estimate D2E/DX2                !
 ! D41   D(5,3,14,16)          -23.6518         estimate D2E/DX2                !
 ! D42   D(61,3,14,15)         -86.2852         estimate D2E/DX2                !
 ! D43   D(61,3,14,16)         101.4967         estimate D2E/DX2                !
 ! D44   D(2,3,61,62)           55.0083         estimate D2E/DX2                !
 ! D45   D(5,3,61,62)          -61.6376         estimate D2E/DX2                !
 ! D46   D(14,3,61,62)         177.8639         estimate D2E/DX2                !
 ! D47   D(1,4,5,3)             -0.3681         estimate D2E/DX2                !
 ! D48   D(1,4,5,17)          -169.2184         estimate D2E/DX2                !
 ! D49   D(6,4,5,3)            167.7821         estimate D2E/DX2                !
 ! D50   D(6,4,5,17)            -1.0682         estimate D2E/DX2                !
 ! D51   D(1,4,6,7)             37.8588         estimate D2E/DX2                !
 ! D52   D(1,4,6,19)           146.1867         estimate D2E/DX2                !
 ! D53   D(1,4,6,105)          -86.4766         estimate D2E/DX2                !
 ! D54   D(5,4,6,7)           -129.1906         estimate D2E/DX2                !
 ! D55   D(5,4,6,19)           -20.8627         estimate D2E/DX2                !
 ! D56   D(5,4,6,105)          106.4741         estimate D2E/DX2                !
 ! D57   D(3,5,17,18)          -28.5688         estimate D2E/DX2                !
 ! D58   D(3,5,17,20)         -142.8974         estimate D2E/DX2                !
 ! D59   D(3,5,17,77)           95.5684         estimate D2E/DX2                !
 ! D60   D(4,5,17,18)          138.8761         estimate D2E/DX2                !
 ! D61   D(4,5,17,20)           24.5475         estimate D2E/DX2                !
 ! D62   D(4,5,17,77)          -96.9867         estimate D2E/DX2                !
 ! D63   D(4,6,7,9)            -38.7272         estimate D2E/DX2                !
 ! D64   D(4,6,7,21)           131.1361         estimate D2E/DX2                !
 ! D65   D(19,6,7,9)          -154.1399         estimate D2E/DX2                !
 ! D66   D(19,6,7,21)           15.7234         estimate D2E/DX2                !
 ! D67   D(105,6,7,9)           82.6956         estimate D2E/DX2                !
 ! D68   D(105,6,7,21)        -107.4411         estimate D2E/DX2                !
 ! D69   D(4,6,19,20)           17.8244         estimate D2E/DX2                !
 ! D70   D(4,6,19,22)         -143.3059         estimate D2E/DX2                !
 ! D71   D(7,6,19,20)          133.0627         estimate D2E/DX2                !
 ! D72   D(7,6,19,22)          -28.0676         estimate D2E/DX2                !
 ! D73   D(105,6,19,20)       -105.398          estimate D2E/DX2                !
 ! D74   D(105,6,19,22)         93.4717         estimate D2E/DX2                !
 ! D75   D(4,6,105,106)        177.2189         estimate D2E/DX2                !
 ! D76   D(7,6,105,106)         54.9717         estimate D2E/DX2                !
 ! D77   D(19,6,105,106)       -58.6665         estimate D2E/DX2                !
 ! D78   D(6,7,9,8)             38.9511         estimate D2E/DX2                !
 ! D79   D(6,7,9,24)           147.8794         estimate D2E/DX2                !
 ! D80   D(6,7,9,115)          -81.7604         estimate D2E/DX2                !
 ! D81   D(21,7,9,8)          -129.71           estimate D2E/DX2                !
 ! D82   D(21,7,9,24)          -20.7817         estimate D2E/DX2                !
 ! D83   D(21,7,9,115)         109.5785         estimate D2E/DX2                !
 ! D84   D(6,7,21,22)            2.5802         estimate D2E/DX2                !
 ! D85   D(6,7,21,23)         -167.9632         estimate D2E/DX2                !
 ! D86   D(9,7,21,22)          172.2872         estimate D2E/DX2                !
 ! D87   D(9,7,21,23)            1.7438         estimate D2E/DX2                !
 ! D88   D(1,8,9,7)            -39.5516         estimate D2E/DX2                !
 ! D89   D(1,8,9,24)          -154.673          estimate D2E/DX2                !
 ! D90   D(1,8,9,115)           83.6495         estimate D2E/DX2                !
 ! D91   D(10,8,9,7)           129.2121         estimate D2E/DX2                !
 ! D92   D(10,8,9,24)           14.0906         estimate D2E/DX2                !
 ! D93   D(10,8,9,115)        -107.5868         estimate D2E/DX2                !
 ! D94   D(1,8,10,12)            0.3538         estimate D2E/DX2                !
 ! D95   D(1,8,10,25)          168.4087         estimate D2E/DX2                !
 ! D96   D(9,8,10,12)         -168.31           estimate D2E/DX2                !
 ! D97   D(9,8,10,25)           -0.2551         estimate D2E/DX2                !
 ! D98   D(7,9,24,25)         -137.1816         estimate D2E/DX2                !
 ! D99   D(7,9,24,26)           18.0165         estimate D2E/DX2                !
 ! D100  D(8,9,24,25)          -22.5936         estimate D2E/DX2                !
 ! D101  D(8,9,24,26)          132.6046         estimate D2E/DX2                !
 ! D102  D(115,9,24,25)         94.0059         estimate D2E/DX2                !
 ! D103  D(115,9,24,26)       -110.796          estimate D2E/DX2                !
 ! D104  D(7,9,115,116)        -53.7458         estimate D2E/DX2                !
 ! D105  D(8,9,115,116)       -174.6423         estimate D2E/DX2                !
 ! D106  D(24,9,115,116)        73.5386         estimate D2E/DX2                !
 ! D107  D(8,10,12,11)          19.0239         estimate D2E/DX2                !
 ! D108  D(8,10,12,28)         127.8741         estimate D2E/DX2                !
 ! D109  D(8,10,12,83)        -108.5066         estimate D2E/DX2                !
 ! D110  D(25,10,12,11)       -147.8987         estimate D2E/DX2                !
 ! D111  D(25,10,12,28)        -39.0485         estimate D2E/DX2                !
 ! D112  D(25,10,12,83)         84.5708         estimate D2E/DX2                !
 ! D113  D(8,10,25,24)         -13.6867         estimate D2E/DX2                !
 ! D114  D(8,10,25,27)        -129.1534         estimate D2E/DX2                !
 ! D115  D(8,10,25,113)        111.2836         estimate D2E/DX2                !
 ! D116  D(12,10,25,24)        154.5561         estimate D2E/DX2                !
 ! D117  D(12,10,25,27)         39.0894         estimate D2E/DX2                !
 ! D118  D(12,10,25,113)       -80.4735         estimate D2E/DX2                !
 ! D119  D(2,11,12,10)         -19.2757         estimate D2E/DX2                !
 ! D120  D(2,11,12,28)        -133.8404         estimate D2E/DX2                !
 ! D121  D(2,11,12,83)         104.3727         estimate D2E/DX2                !
 ! D122  D(13,11,12,10)        141.6835         estimate D2E/DX2                !
 ! D123  D(13,11,12,28)         27.1188         estimate D2E/DX2                !
 ! D124  D(13,11,12,83)        -94.6682         estimate D2E/DX2                !
 ! D125  D(2,11,13,15)          12.3825         estimate D2E/DX2                !
 ! D126  D(2,11,13,29)         132.055          estimate D2E/DX2                !
 ! D127  D(2,11,13,63)        -111.4526         estimate D2E/DX2                !
 ! D128  D(12,11,13,15)       -147.8319         estimate D2E/DX2                !
 ! D129  D(12,11,13,29)        -28.1595         estimate D2E/DX2                !
 ! D130  D(12,11,13,63)         88.3329         estimate D2E/DX2                !
 ! D131  D(10,12,28,29)       -130.7769         estimate D2E/DX2                !
 ! D132  D(10,12,28,30)         42.0776         estimate D2E/DX2                !
 ! D133  D(11,12,28,29)        -15.1883         estimate D2E/DX2                !
 ! D134  D(11,12,28,30)        157.6663         estimate D2E/DX2                !
 ! D135  D(83,12,28,29)        108.2898         estimate D2E/DX2                !
 ! D136  D(83,12,28,30)        -78.8556         estimate D2E/DX2                !
 ! D137  D(10,12,83,84)       -176.7586         estimate D2E/DX2                !
 ! D138  D(11,12,83,84)         58.784          estimate D2E/DX2                !
 ! D139  D(28,12,83,84)        -55.7125         estimate D2E/DX2                !
 ! D140  D(11,13,15,14)          4.4233         estimate D2E/DX2                !
 ! D141  D(11,13,15,32)        117.3866         estimate D2E/DX2                !
 ! D142  D(11,13,15,65)       -121.1002         estimate D2E/DX2                !
 ! D143  D(29,13,15,14)       -107.7533         estimate D2E/DX2                !
 ! D144  D(29,13,15,32)          5.21           estimate D2E/DX2                !
 ! D145  D(29,13,15,65)        126.7232         estimate D2E/DX2                !
 ! D146  D(63,13,15,14)        126.4455         estimate D2E/DX2                !
 ! D147  D(63,13,15,32)       -120.5912         estimate D2E/DX2                !
 ! D148  D(63,13,15,65)          0.922          estimate D2E/DX2                !
 ! D149  D(11,13,29,28)         18.9789         estimate D2E/DX2                !
 ! D150  D(11,13,29,31)       -152.6143         estimate D2E/DX2                !
 ! D151  D(15,13,29,28)        140.1083         estimate D2E/DX2                !
 ! D152  D(15,13,29,31)        -31.4849         estimate D2E/DX2                !
 ! D153  D(63,13,29,28)        -94.4453         estimate D2E/DX2                !
 ! D154  D(63,13,29,31)         93.9615         estimate D2E/DX2                !
 ! D155  D(11,13,63,64)       -177.4812         estimate D2E/DX2                !
 ! D156  D(15,13,63,64)         56.7731         estimate D2E/DX2                !
 ! D157  D(29,13,63,64)        -69.3295         estimate D2E/DX2                !
 ! D158  D(3,14,15,13)         -32.7964         estimate D2E/DX2                !
 ! D159  D(3,14,15,32)        -155.1014         estimate D2E/DX2                !
 ! D160  D(3,14,15,65)          92.8898         estimate D2E/DX2                !
 ! D161  D(16,14,15,13)        140.2267         estimate D2E/DX2                !
 ! D162  D(16,14,15,32)         17.9216         estimate D2E/DX2                !
 ! D163  D(16,14,15,65)        -94.0872         estimate D2E/DX2                !
 ! D164  D(3,14,16,18)          -5.1944         estimate D2E/DX2                !
 ! D165  D(3,14,16,33)         175.4135         estimate D2E/DX2                !
 ! D166  D(15,14,16,18)       -178.246          estimate D2E/DX2                !
 ! D167  D(15,14,16,33)          2.3619         estimate D2E/DX2                !
 ! D168  D(13,15,32,33)       -151.6319         estimate D2E/DX2                !
 ! D169  D(13,15,32,34)         10.8605         estimate D2E/DX2                !
 ! D170  D(14,15,32,33)        -31.1318         estimate D2E/DX2                !
 ! D171  D(14,15,32,34)        131.3606         estimate D2E/DX2                !
 ! D172  D(65,15,32,33)         84.3219         estimate D2E/DX2                !
 ! D173  D(65,15,32,34)       -113.1856         estimate D2E/DX2                !
 ! D174  D(13,15,65,66)         62.1242         estimate D2E/DX2                !
 ! D175  D(14,15,65,66)        -64.2427         estimate D2E/DX2                !
 ! D176  D(32,15,65,66)       -171.5643         estimate D2E/DX2                !
 ! D177  D(14,16,18,17)         19.6445         estimate D2E/DX2                !
 ! D178  D(14,16,18,36)        134.3838         estimate D2E/DX2                !
 ! D179  D(14,16,18,71)       -101.8559         estimate D2E/DX2                !
 ! D180  D(33,16,18,17)       -161.0196         estimate D2E/DX2                !
 ! D181  D(33,16,18,36)        -46.2804         estimate D2E/DX2                !
 ! D182  D(33,16,18,71)         77.4799         estimate D2E/DX2                !
 ! D183  D(14,16,33,32)        -21.476          estimate D2E/DX2                !
 ! D184  D(14,16,33,35)       -143.8617         estimate D2E/DX2                !
 ! D185  D(14,16,33,67)         97.4283         estimate D2E/DX2                !
 ! D186  D(18,16,33,32)        159.0918         estimate D2E/DX2                !
 ! D187  D(18,16,33,35)         36.7061         estimate D2E/DX2                !
 ! D188  D(18,16,33,67)        -82.0039         estimate D2E/DX2                !
 ! D189  D(5,17,18,16)          -2.703          estimate D2E/DX2                !
 ! D190  D(5,17,18,36)        -119.3809         estimate D2E/DX2                !
 ! D191  D(5,17,18,71)         120.4099         estimate D2E/DX2                !
 ! D192  D(20,17,18,16)        114.3763         estimate D2E/DX2                !
 ! D193  D(20,17,18,36)         -2.3015         estimate D2E/DX2                !
 ! D194  D(20,17,18,71)       -122.5107         estimate D2E/DX2                !
 ! D195  D(77,17,18,16)       -127.9305         estimate D2E/DX2                !
 ! D196  D(77,17,18,36)        115.3916         estimate D2E/DX2                !
 ! D197  D(77,17,18,71)         -4.8176         estimate D2E/DX2                !
 ! D198  D(5,17,20,19)         -27.5202         estimate D2E/DX2                !
 ! D199  D(5,17,20,37)         138.9578         estimate D2E/DX2                !
 ! D200  D(18,17,20,19)       -147.4168         estimate D2E/DX2                !
 ! D201  D(18,17,20,37)         19.0612         estimate D2E/DX2                !
 ! D202  D(77,17,20,19)         95.0691         estimate D2E/DX2                !
 ! D203  D(77,17,20,37)        -98.4529         estimate D2E/DX2                !
 ! D204  D(5,17,77,78)        -105.2085         estimate D2E/DX2                !
 ! D205  D(18,17,77,78)         20.4387         estimate D2E/DX2                !
 ! D206  D(20,17,77,78)        134.2031         estimate D2E/DX2                !
 ! D207  D(16,18,36,37)       -134.8389         estimate D2E/DX2                !
 ! D208  D(16,18,36,38)         28.0252         estimate D2E/DX2                !
 ! D209  D(17,18,36,37)        -14.9303         estimate D2E/DX2                !
 ! D210  D(17,18,36,38)        147.9339         estimate D2E/DX2                !
 ! D211  D(71,18,36,37)        102.319          estimate D2E/DX2                !
 ! D212  D(71,18,36,38)        -94.8168         estimate D2E/DX2                !
 ! D213  D(16,18,71,72)        -19.2072         estimate D2E/DX2                !
 ! D214  D(17,18,71,72)       -143.1859         estimate D2E/DX2                !
 ! D215  D(36,18,71,72)        101.7628         estimate D2E/DX2                !
 ! D216  D(6,19,20,17)           6.775          estimate D2E/DX2                !
 ! D217  D(6,19,20,37)        -158.1538         estimate D2E/DX2                !
 ! D218  D(22,19,20,17)        164.3339         estimate D2E/DX2                !
 ! D219  D(22,19,20,37)         -0.5948         estimate D2E/DX2                !
 ! D220  D(6,19,22,21)          29.357          estimate D2E/DX2                !
 ! D221  D(6,19,22,39)         149.6348         estimate D2E/DX2                !
 ! D222  D(6,19,22,103)        -85.4437         estimate D2E/DX2                !
 ! D223  D(20,19,22,21)       -130.695          estimate D2E/DX2                !
 ! D224  D(20,19,22,39)        -10.4172         estimate D2E/DX2                !
 ! D225  D(20,19,22,103)       114.5042         estimate D2E/DX2                !
 ! D226  D(17,20,37,36)        -27.3441         estimate D2E/DX2                !
 ! D227  D(17,20,37,40)       -142.3422         estimate D2E/DX2                !
 ! D228  D(17,20,37,81)         96.1361         estimate D2E/DX2                !
 ! D229  D(19,20,37,36)        139.2323         estimate D2E/DX2                !
 ! D230  D(19,20,37,40)         24.2343         estimate D2E/DX2                !
 ! D231  D(19,20,37,81)        -97.2874         estimate D2E/DX2                !
 ! D232  D(7,21,22,19)         -19.6162         estimate D2E/DX2                !
 ! D233  D(7,21,22,39)        -140.0765         estimate D2E/DX2                !
 ! D234  D(7,21,22,103)         96.4733         estimate D2E/DX2                !
 ! D235  D(23,21,22,19)        150.8851         estimate D2E/DX2                !
 ! D236  D(23,21,22,39)         30.4248         estimate D2E/DX2                !
 ! D237  D(23,21,22,103)       -93.0254         estimate D2E/DX2                !
 ! D238  D(7,21,23,26)          19.7118         estimate D2E/DX2                !
 ! D239  D(7,21,23,41)         129.345          estimate D2E/DX2                !
 ! D240  D(7,21,23,111)       -106.6649         estimate D2E/DX2                !
 ! D241  D(22,21,23,26)       -149.7265         estimate D2E/DX2                !
 ! D242  D(22,21,23,41)        -40.0933         estimate D2E/DX2                !
 ! D243  D(22,21,23,111)        83.8969         estimate D2E/DX2                !
 ! D244  D(19,22,39,40)         -4.1311         estimate D2E/DX2                !
 ! D245  D(19,22,39,42)       -116.2835         estimate D2E/DX2                !
 ! D246  D(19,22,39,101)       120.1397         estimate D2E/DX2                !
[...]
 ! D569  D(97,54,59,60)       -105.3565         -DE/DX =    0.0                 !
 ! D570  D(97,54,59,95)         17.7118         -DE/DX =    0.0                 !
 ! D571  D(42,54,97,98)       -148.8835         -DE/DX =    0.0                 !
 ! D572  D(53,54,97,98)        -41.4972         -DE/DX =    0.0                 !
 ! D573  D(59,54,97,98)         85.6967         -DE/DX =    0.0                 !
 ! D574  D(50,55,60,58)        -23.78           -DE/DX =    0.0                 !
 ! D575  D(50,55,60,59)       -139.7886         -DE/DX =    0.0                 !
 ! D576  D(50,55,60,89)         99.5462         -DE/DX =    0.0                 !
 ! D577  D(52,55,60,58)        155.7548         -DE/DX =    0.0                 !
 ! D578  D(52,55,60,59)         39.7462         -DE/DX =    0.0                 !
 ! D579  D(52,55,60,89)        -80.919          -DE/DX =    0.0                 !
 ! D580  D(45,56,57,48)          4.2392         -DE/DX =    0.0                 !
 ! D581  D(45,56,57,58)        178.9022         -DE/DX =    0.0                 !
 ! D582  D(59,56,57,48)        179.1297         -DE/DX =    0.0                 !
 ! D583  D(59,56,57,58)         -6.2073         -DE/DX =    0.0                 !
 ! D584  D(45,56,59,54)        -41.9408         -DE/DX =    0.0                 !
 ! D585  D(45,56,59,60)       -169.2401         -DE/DX =    0.0                 !
 ! D586  D(45,56,59,95)         76.7154         -DE/DX =    0.0                 !
 ! D587  D(57,56,59,54)        142.7388         -DE/DX =    0.0                 !
 ! D588  D(57,56,59,60)         15.4395         -DE/DX =    0.0                 !
 ! D589  D(57,56,59,95)        -98.6049         -DE/DX =    0.0                 !
 ! D590  D(48,57,58,51)         48.304          -DE/DX =    0.0                 !
 ! D591  D(48,57,58,60)        168.6129         -DE/DX =    0.0                 !
 ! D592  D(48,57,58,87)        -74.9201         -DE/DX =    0.0                 !
 ! D593  D(56,57,58,51)       -126.3501         -DE/DX =    0.0                 !
 ! D594  D(56,57,58,60)         -6.0413         -DE/DX =    0.0                 !
 ! D595  D(56,57,58,87)        110.4257         -DE/DX =    0.0                 !
 ! D596  D(51,58,60,55)          6.2976         -DE/DX =    0.0                 !
 ! D597  D(51,58,60,59)        128.1147         -DE/DX =    0.0                 !
 ! D598  D(51,58,60,89)       -113.1182         -DE/DX =    0.0                 !
 ! D599  D(57,58,60,55)       -107.2939         -DE/DX =    0.0                 !
 ! D600  D(57,58,60,59)         14.5231         -DE/DX =    0.0                 !
 ! D601  D(57,58,60,89)        133.2902         -DE/DX =    0.0                 !
 ! D602  D(87,58,60,55)        132.6319         -DE/DX =    0.0                 !
 ! D603  D(87,58,60,59)       -105.5511         -DE/DX =    0.0                 !
 ! D604  D(87,58,60,89)         13.216          -DE/DX =    0.0                 !
 ! D605  D(51,58,87,88)        -63.1501         -DE/DX =    0.0                 !
 ! D606  D(57,58,87,88)         55.7126         -DE/DX =    0.0                 !
 ! D607  D(60,58,87,88)        169.4577         -DE/DX =    0.0                 !
 ! D608  D(54,59,60,55)        -22.4279         -DE/DX =    0.0                 !
 ! D609  D(54,59,60,58)       -142.5161         -DE/DX =    0.0                 !
 ! D610  D(54,59,60,89)         96.3987         -DE/DX =    0.0                 !
 ! D611  D(56,59,60,55)        102.4713         -DE/DX =    0.0                 !
 ! D612  D(56,59,60,58)        -17.6169         -DE/DX =    0.0                 !
 ! D613  D(56,59,60,89)       -138.7021         -DE/DX =    0.0                 !
 ! D614  D(95,59,60,55)       -145.3761         -DE/DX =    0.0                 !
 ! D615  D(95,59,60,58)         94.5357         -DE/DX =    0.0                 !
 ! D616  D(95,59,60,89)        -26.5495         -DE/DX =    0.0                 !
 ! D617  D(54,59,95,96)        -14.3701         -DE/DX =    0.0                 !
 ! D618  D(56,59,95,96)       -136.1791         -DE/DX =    0.0                 !
 ! D619  D(60,59,95,96)        113.6106         -DE/DX =    0.0                 !
 ! D620  D(55,60,89,90)        155.0313         -DE/DX =    0.0                 !
 ! D621  D(58,60,89,90)        -83.1452         -DE/DX =    0.0                 !
 ! D622  D(59,60,89,90)         32.0904         -DE/DX =    0.0                 !
 --------------------------------------------------------------------------------
 Lowest energy point so far.  Saving SCF results.
 Largest change from initial coordinates is atom    0       0.000 Angstoms.
 GradGradGradGradGradGradGradGradGradGradGradGradGradGradGradGradGradGrad

 Leave Link  103 at Tue May 24 15:29:42 2022, MaxMem=  1342177280 cpu:              36.6 elap:               1.6
 (Enter /home/mkliu/g16/l202.exe)
 Stoichiometry    C60H28O28
 Framework group  C1[X(C60H28O28)]
 Deg. of freedom   342
 Full point group                 C1      NOp   1
 RotChk:  IX=2 Diff= 0.00D+00
 Largest Abelian subgroup         C1      NOp   1
 Largest concise Abelian subgroup C1      NOp   1
                         Standard orientation:                         
 ---------------------------------------------------------------------
 Center     Atomic      Atomic             Coordinates (Angstroms)
 Number     Number       Type             X           Y           Z
 ---------------------------------------------------------------------
      1          6           0       -2.799399    0.266458   -2.677117
      2          6           0       -3.202446    1.097877   -1.459488
      3          6           0       -3.865798    0.184270   -0.428057
      4          6           0       -2.706837   -1.114629   -2.037597
      5          6           0       -3.282146   -1.164684   -0.832366
      6          6           0       -1.822593   -2.198715   -2.590257
      7          6           0       -0.519080   -1.595811   -3.095906
      8          6           0       -1.435244    0.686003   -3.161768
      9          6           0       -0.457343   -0.277069   -3.813453
     10          6           0       -0.867612    1.854153   -2.856127
     11          6           0       -2.632520    2.261605   -1.145399
     12          6           0       -1.512396    2.893289   -1.985722
     13          6           0       -2.602992    2.898514    0.242626
     14          6           0       -3.317252    0.514809    0.921876
     15          6           0       -3.047742    1.932055    1.408007
     16          6           0       -2.868009   -0.401300    1.782873
     17          6           0       -3.122446   -2.342643    0.108077
     18          6           0       -2.919980   -1.889484    1.630032
     19          6           0       -1.269874   -3.059908   -1.449717
     20          6           0       -1.820587   -3.062203   -0.235886
     21          6           0        0.552118   -2.252472   -2.643318
     22          6           0        0.167591   -3.458955   -1.798654
     23          6           0        1.954652   -1.730384   -2.764616
     24          6           0        0.868225    0.420799   -3.496287
     25          6           0        0.604006    1.907150   -3.235019
     26          6           0        1.928542   -0.220087   -2.999430
     27          6           0        1.406611    2.370307   -2.052120
     28          6           0       -0.537366    3.284889   -0.879687
     29          6           0       -1.120027    3.255301    0.322026
     30          6           0        0.926827    3.491994   -1.166566
     31          6           0       -0.353821    3.363707    1.602713
     32          6           0       -1.972280    1.637585    2.450811
     33          6           0       -2.272101    0.249360    3.020665
     34          6           0       -0.809215    2.274980    2.557493
     35          6           0       -1.024556   -0.508601    3.593710
     36          6           0       -1.557615   -2.443469    2.015580
     37          6           0       -1.075345   -3.488345    1.012556
     38          6           0       -0.749815   -1.834111    2.885697
     39          6           0        1.092267   -3.652710   -0.531486
     40          6           0        0.393658   -3.306752    0.770283
     41          6           0        2.609520   -1.804200   -1.395176
     42          6           0        2.262502   -2.667232   -0.438766
     43          6           0        3.045005    0.482782   -2.230880
     44          6           0        2.486707    1.743358   -1.595751
     45          6           0        3.481994   -0.588384   -1.133409
     46          6           0        1.856124    3.377223    0.127707
     47          6           0        1.086318    2.919118    1.343979
     48          6           0        2.971794    2.302212   -0.279788
     49          6           0        0.410878    1.692345    3.262465
     50          6           0        0.285467    0.204381    3.294082
     51          6           0        1.501233    2.031077    2.258932
     52          6           0        0.764134   -2.069391    2.902321
     53          6           0        1.204711   -2.668423    1.613274
     54          6           0        2.597128   -2.485805    1.049312
     55          6           0        1.264780   -0.637252    2.948109
     56          6           0        3.230792   -0.119806    0.261921
     57          6           0        3.045447    1.134829    0.666075
     58          6           0        2.790512    1.251281    2.145170
     59          6           0        3.289128   -1.102893    1.390298
     60          6           0        2.688598   -0.274898    2.625492
     61          8           0       -5.295054    0.234190   -0.383400
     62          1           0       -5.611932    0.048576   -1.282169
     63          8           0       -3.426413    4.067255    0.202380
     64          1           0       -3.373984    4.492291    1.073662
     65          8           0       -4.177609    2.456828    2.120005
     66          1           0       -4.916543    2.523349    1.493490
     67          8           0       -3.267098    0.256205    4.061113
     68          1           0       -3.966443    0.876851    3.793911
     69          8           0       -1.113775   -0.662035    5.010927
     70          1           0       -2.042372   -0.487634    5.246722
     71          8           0       -3.985952   -2.452339    2.412025
     72          1           0       -4.234757   -1.802443    3.088254
     73          8           0       -0.468891    4.651689    2.227841
     74          1           0        0.011811    5.280860    1.665874
     75          8           0        0.644614    2.181868    4.585153
     76          1           0        0.700810    3.148578    4.520683
     77          8           0       -4.221641   -3.247798    0.015053
     78          1           0       -4.747703   -3.090660    0.822975
     79          8           0        1.264850   -2.880746    3.972664
     80          1           0        1.100578   -2.396983    4.798552
     81          8           0       -1.319639   -4.849403    1.404080
     82          1           0       -2.281631   -4.980657    1.393517
     83          8           0       -1.905958    4.000210   -2.807053
     84          1           0       -2.270733    4.675089   -2.212144
     85          8           0       -3.796686    0.346726   -3.708286
     86          1           0       -3.543645   -0.295288   -4.391635
     87          8           0        3.869275    1.864408    2.853719
     88          1           0        4.026888    2.725863    2.435729
     89          8           0        3.443781   -0.541379    3.789699
     90          1           0        4.352213   -0.697522    3.468720
     91          8           0        1.139686    4.786097   -1.758138
     92          1           0        1.012706    4.689577   -2.715824
     93          8           0        2.403975    4.637913    0.462206
     94          1           0        2.588105    5.083907   -0.383388
     95          8           0        4.681549   -1.342574    1.634266
     96          1           0        4.755262   -2.314498    1.749299
     97          8           0        3.457222   -3.554803    1.493500
     98          1           0        3.257987   -3.717369    2.431210
     99          8           0        4.229471    2.979606   -0.359127
    100          1           0        4.875197    2.330495   -0.680667
    101          8           0        1.593691   -5.001764   -0.505903
    102          1           0        0.938656   -5.551621   -0.043771
    103          8           0        0.189181   -4.630224   -2.612103
    104          1           0        0.792803   -5.247748   -2.154212
    105          8           0       -2.552522   -2.905944   -3.603530
    106          1           0       -1.950695   -3.570340   -3.977451
    107          8           0        4.876050   -0.883964   -1.324656
    108          1           0        5.260658   -1.047927   -0.445372
    109          8           0        4.152322    0.801301   -3.073576
    110          1           0        4.932318    0.427860   -2.618224
    111          8           0        2.660830   -2.471469   -3.771045
    112          1           0        3.564261   -2.117292   -3.804183
    113          8           0        0.879473    2.810750   -4.316682
    114          1           0        0.254660    2.602073   -5.029529
    115          8           0       -0.782112   -0.387674   -5.207045
    116          1           0       -0.202428   -1.069382   -5.582796
 ---------------------------------------------------------------------
 Rotational constants (GHZ):           0.0341163           0.0335613           0.0327906
 Leave Link  202 at Tue May 24 15:29:44 2022, MaxMem=  1342177280 cpu:               0.2 elap:               0.0
 (Enter /home/mkliu/g16/l9999.exe)
 1\1\GINC-NODE03\FOpt\RB3LYP\6-31G(d,p)\C60H28O28\MKLIU\24-May-2022\0\\
 #P opt b3lyp/6-31G(d, p) empiricaldispersion=GD3 scrf=SMD Guess=TCheck
  Geom=allcheck\\force\\0,1\C,2.799399118,0.2664580368,2.6771174711\C,3
 .20244606,1.0978769207,1.4594883973\C,3.865797554,0.1842703129,0.42805
 66417\C,2.706836676,-1.114628996,2.0375968849\C,3.2821463776,-1.164683
 8951,0.8323664267\C,1.8225933202,-2.1987151135,2.590257388\C,0.5190804
 909,-1.5958105083,3.0959055073\C,1.4352441164,0.6860033078,3.161768375
 4\C,0.4573427061,-0.2770685317,3.8134530292\C,0.8676119938,1.854153266
 8,2.8561270018\C,2.6325200088,2.261605316,1.1453987247\C,1.5123962968,
 2.8932893337,1.9857223042\C,2.6029918228,2.8985142211,-0.2426260588\C,
 3.3172515988,0.5148085203,-0.9218762304\C,3.0477423565,1.9320547163,-1
 .40800669\C,2.8680087581,-0.401300177,-1.7828730514\C,3.122446422,-2.3
 426428003,-0.1080768898\C,2.9199801738,-1.8894844947,-1.6300320244\C,1
 .2698743803,-3.0599082393,1.4497167036\C,1.8205866158,-3.0622034703,0.
 2358861519\C,-0.5521177726,-2.2524715854,2.6433182938\C,-0.1675914626,
 -3.4589546904,1.7986536737\C,-1.9546515182,-1.7303842488,2.7646157052\
 C,-0.8682246864,0.4207992825,3.4962870376\C,-0.6040056806,1.9071503902
 ,3.2350190046\C,-1.9285420126,-0.2200872706,2.9994301182\C,-1.40661112
 18,2.3703065485,2.05211991\C,0.53736586,3.2848889146,0.8796874207\C,1.
 1200272056,3.255300583,-0.3220255803\C,-0.9268272519,3.4919938868,1.16
 65658561\C,0.3538209698,3.3637066432,-1.602712594\C,1.9722799967,1.637
 5850804,-2.4508110056\C,2.2721006765,0.2493595894,-3.0206651216\C,0.80
 92154288,2.2749798141,-2.557492559\C,1.0245556763,-0.5086012958,-3.593
 7100142\C,1.5576150015,-2.4434690169,-2.0155795536\C,1.075345084,-3.48
 83445488,-1.0125555922\C,0.7498148104,-1.8341112116,-2.8856974068\C,-1
 .092266984,-3.6527103328,0.5314857901\C,-0.3936576188,-3.3067516373,-0
 .7702830747\C,-2.6095202083,-1.804200008,1.3951763235\C,-2.2625022766,
 -2.6672317358,0.4387658108\C,-3.0450050011,0.4827818073,2.2308795021\C
 ,-2.4867067838,1.7433580592,1.595750977\C,-3.4819938237,-0.5883837147,
 1.1334090793\C,-1.8561237011,3.3772234873,-0.1277071678\C,-1.086317969
 9,2.9191180522,-1.3439794316\C,-2.9717943181,2.3022118411,0.2797881281
 \C,-0.4108776802,1.6923452432,-3.2624647085\C,-0.2854668965,0.20438083
 93,-3.2940821409\C,-1.5012330204,2.031077028,-2.2589323777\C,-0.764134
 3508,-2.0693908217,-2.902320829\C,-1.204710817,-2.668423137,-1.6132737
 043\C,-2.5971282336,-2.4858054671,-1.0493115486\C,-1.2647804352,-0.637
 2517906,-2.9481085556\C,-3.2307919411,-0.1198057537,-0.2619212755\C,-3
 .0454471316,1.1348291446,-0.666075165\C,-2.7905118197,1.2512811217,-2.
 1451698169\C,-3.2891277284,-1.1028933275,-1.3902976572\C,-2.6885982194
 ,-0.2748984785,-2.6254920698\O,5.2950535363,0.234189935,0.383399651\H,
 5.6119320911,0.0485760828,1.2821692658\O,3.4264129529,4.0672551822,-0.
 2023799626\H,3.3739844996,4.4922912803,-1.073662437\O,4.1776085676,2.4
 568278323,-2.1200046338\H,4.9165427322,2.523349417,-1.4934897471\O,3.2
 670982882,0.2562049944,-4.0611126303\H,3.9664425897,0.8768506055,-3.79
 3911015\O,1.1137746511,-0.6620354143,-5.0109269348\H,2.0423715903,-0.4
 876341389,-5.2467223152\O,3.9859520492,-2.452338963,-2.4120249314\H,4.
 2347573321,-1.8024426125,-3.0882540637\O,0.4688906951,4.6516885197,-2.
 2278409202\H,-0.0118106908,5.2808595391,-1.6658739299\O,-0.644614307,2
 .1818681816,-4.5851526051\H,-0.7008095475,3.1485781669,-4.520683225\O,
 4.221640506,-3.2477983053,-0.0150534991\H,4.7477027934,-3.0906595842,-
 0.8229746882\O,-1.2648497938,-2.8807459026,-3.9726644092\H,-1.10057798
 28,-2.3969830902,-4.798552423\O,1.3196391377,-4.8494032091,-1.40407986
 67\H,2.2816314789,-4.9806574151,-1.3935167862\O,1.905958481,4.00021003
 77,2.8070526276\H,2.2707329745,4.675088627,2.212144443\O,3.7966860629,
 0.346725859,3.7082863707\H,3.5436446877,-0.2952876441,4.391635201\O,-3
 .8692747034,1.8644076735,-2.8537188211\H,-4.0268883539,2.7258630188,-2
 .4357285238\O,-3.443780763,-0.5413792675,-3.7896990598\H,-4.3522127389
 ,-0.6975218221,-3.4687198602\O,-1.1396864239,4.7860971972,1.7581377004
 \H,-1.0127056252,4.689576995,2.7158241572\O,-2.4039746385,4.637913067,
 -0.4622061144\H,-2.5881045077,5.0839065026,0.3833876253\O,-4.681548898
 1,-1.3425738196,-1.6342659441\H,-4.7552624651,-2.3144983574,-1.7492986
 114\O,-3.4572219212,-3.5548033598,-1.4934998016\H,-3.2579873221,-3.717
 3693062,-2.4312096002\O,-4.2294712315,2.9796058181,0.3591274045\H,-4.8
 751966081,2.3304946743,0.6806667982\O,-1.593691485,-5.0017637353,0.505
 9027573\H,-0.9386563298,-5.5516214869,0.0437714613\O,-0.1891811724,-4.
 6302242885,2.61210333\H,-0.7928029856,-5.2477478091,2.1542118489\O,2.5
 525224302,-2.9059435237,3.6035302758\H,1.9506953103,-3.570340368,3.977
 4511635\O,-4.8760498646,-0.8839641437,1.324655793\H,-5.2606578082,-1.0
 479268644,0.4453718923\O,-4.1523217987,0.8013010841,3.0735760118\H,-4.
 9323183494,0.4278602756,2.6182241818\O,-2.6608299342,-2.4714691831,3.7
 710446402\H,-3.5642606515,-2.1172917413,3.8041828746\O,-0.8794733819,2
 .8107500038,4.316681909\H,-0.2546603087,2.602072554,5.0295294016\O,0.7
 821119575,-0.3876739509,5.2070451999\H,0.2024276652,-1.069382112,5.582
 7961559\\Version=ES64L-G16RevA.03\State=1-A\HF=-4409.4743055\RMSD=5.59
 1e-09\RMSF=9.615e-06\Dipole=0.2566201,0.1056242,0.0386146\Quadrupole=1
 7.9783922,1.9713433,-19.9497355,11.3832087,-18.5946736,1.5086349\PG=C0
 1 [X(C60H28O28)]\\@


 FROM AN ANONYMOUS WRITER, ON PERSPECTIVE:

 MAN, DESPITE HIS ARTISTIC PRETENSIONS, HIS SOPHISTICATION AND MANY 
 ACCOMPLISHMENTS, OWES THE FACT OF HIS EXISTENCE TO A SIX-INCH LAYER OF 
 TOPSOIL AND THE FACT THAT IT RAINS.
 Job cpu time:       0 days  4 hours 48 minutes 47.2 seconds.
 Elapsed time:       0 days  0 hours 12 minutes 14.1 seconds.
 File lengths (MBytes):  RWF=   1736 Int=      0 D2E=      0 Chk=    175 Scr=      1
 Normal termination of Gaussian 16 at Tue May 24 15:29:47 2022.
