63
 energy: -142.091135727521 gnorm: 0.143993292577 xtb: 6.4.1 (a3dbbd7)
C        -1.29585809763920    0.00401118881931    3.54517689231029
C        -0.36796043466059   -1.17243305044266    3.30515820987539
C         0.98298838984909   -0.72191219210780    3.27512267957929
C         0.98156472691728    0.71960753564614    3.26971969840148
C        -0.37066843430553    1.17924059866277    3.30150764324135
C         2.33648296598357   -2.58548060321166    0.57950289371033
C         3.18657767566203   -1.41946403917212    0.57781419536533
C         2.94957050634668   -0.69854930588343    1.80123308089156
C         1.95308396825138   -1.41752165469557    2.55613481597303
C         1.57961582984989   -2.57968580834158    1.80518673258983
C         3.18767024138397    1.40991878537575    0.57593180017933
C         2.33807592119235    2.57402574463448    0.57591940987423
C         1.57683795447400    2.56605672116665    1.79975339077111
C         1.95304946478205    1.40835201085528    2.55205927541471
C         2.95072023090319    0.68875745027160    1.80098024590342
C        -0.36516779392141    3.42666371311492    0.57921714402649
C        -1.72924376731069    3.01648005687427    0.58287705229366
C        -2.09463355901587    2.46231282969886    1.94730853737491
C        -0.73027134368917    2.28553619224850    2.58224921046650
C         0.24829448370074    2.97593693088527    1.80334175247540
C        -3.37466967439567    0.70300551329579    0.57574930039426
C        -3.39003092771629   -0.73268815670587    0.56838248256510
C        -2.76818811346571   -1.16356142396752    1.78871572205038
C        -2.38904763717889    0.02437925858140    2.53264263708558
C        -2.74834472581071    1.12995086235998    1.81420011509538
C        -1.73481952354600   -3.00995345707075    0.57938225067925
C        -0.36149853487188   -3.44686666226009    0.58178847329193
C         0.25217194576597   -2.99475012297255    1.80551622011247
C        -0.72930832450935   -2.27346636848304    2.56467955460776
C        -1.97147545437730   -2.28746259180062    1.79868366143107
C        -0.24419850633136   -3.01431906314620   -1.82647673825261
C         0.74940205395547   -2.29291975806330   -2.58286291039202
C         1.97453700920709   -2.29239152825096   -1.82543977569151
C         1.74139873391846   -3.01127177396538   -0.59946235539016
C         0.36858334361035   -3.45436466601281   -0.59762914030018
C         2.79442417375665   -1.17031401238235   -1.82833550582627
C         2.41574661868216   -0.00512369138436   -2.58546959698227
C         2.79806943058290    1.16104826437995   -1.83045397159780
C         3.41356646756867    0.71553904959985   -0.60565027126811
C         3.41126633543504   -0.72579612437446   -0.60436594375932
C         1.98256115237360    2.28538932475628   -1.82964816243890
C         0.75350030248264    2.28551308222168   -2.58573232043658
C        -0.23508280223273    3.00436687434747   -1.82344140510130
C         0.37359850933878    3.44286488634390   -0.60220138875814
C         1.74684322375821    3.00246743965493   -0.60372642363152
C        -1.55566653240424    2.56818250404503   -1.80941223602174
C        -1.93859434660526    1.40592010808590   -2.57168095899201
C        -2.93551210472019    0.68461262540438   -1.82146846795257
C        -3.16898901543324    1.39767486955451   -0.59605965569985
C        -2.30435127708354    2.57332623889815   -0.58497549494069
C        -2.94114405324375   -0.70773319319533   -1.83440725651199
C        -1.94505174587464   -1.42387954866205   -2.59102123509086
C        -1.56548890453788   -2.59170746569988   -1.83211639417485
C        -2.32839595521473   -2.59312664308342   -0.60918315809929
C        -3.17773883520354   -1.43218193780650   -0.61434027481289
C        -0.98775846768414   -0.72638522805960   -3.31322849835342
C        -0.98659864734294    0.71557045446948   -3.30737103344774
C         0.38544609972999    1.16109326157285   -3.31071431262535
C         1.23106807690940   -0.00470839623161   -3.31198800118088
C         0.38446650877846   -1.17000629315169   -3.31255499434049
Cl       -1.95494402211016   -0.00808767691631    5.23350834623694
Cl       -3.13453400293270    3.62205440046694    2.87428256889563
Cl       -2.97144178529958   -3.46492470435954    2.74194943018881
63
 energy: -142.115840088144 gnorm: 0.066321368955 xtb: 6.4.1 (a3dbbd7)
C        -1.29603352407481    0.00461023630031    3.54127758076879
C        -0.36403052482925   -1.16535076615005    3.29319873403267
C         0.98760282395349   -0.71928185404503    3.27476095751440
C         0.98258885702920    0.72160084172598    3.26869566983379
C        -0.37089536867383    1.17973706321809    3.29818729069838
C         2.34034690162951   -2.58485267933909    0.57693971716190
C         3.18854158539522   -1.41835854534644    0.57646958911705
C         2.95186780999926   -0.69708046698711    1.80016517600364
C         1.95704078692517   -1.41587752061934    2.55586932243454
C         1.58468404646047   -2.57701640439909    1.80320984361496
C         3.18819901472433    1.41080443628505    0.57536510948986
C         2.33849477436704    2.57507425454623    0.57536398508873
C         1.57728570017225    2.56730026434080    1.79887985441254
C         1.95397477363866    1.40983574615098    2.55097984889575
C         2.95217362115292    0.69024713252345    1.80018135055700
C        -0.36421526900548    3.42931532181601    0.57849127209438
C        -1.72920138028077    3.02260717547102    0.58077618499119
C        -2.09472365746427    2.46966586486561    1.94501577912360
C        -0.73053589356083    2.28736847036113    2.58014352559317
C         0.24862371605627    2.97797989014451    1.80271878604935
C        -3.37574040378016    0.71887908035650    0.57450038726791
C        -3.37953025900686   -0.71872308485391    0.57131301923595
C        -2.78309855419552   -1.14708662846085    1.79798035829062
C        -2.38141065202402    0.02521479656305    2.52078797323824
C        -2.75221245420602    1.14354572260902    1.80672874556926
C        -1.72157300573544   -3.01113315691914    0.56772347342980
C        -0.35595471860036   -3.44215462565749    0.57486657395693
C         0.25665295728892   -2.98749917258804    1.79914181610397
C        -0.71841888846682   -2.26674823387421    2.55795433436687
C        -2.02741363823996   -2.36410593614244    1.85959028542079
C        -0.23831880578904   -3.01778264331265   -1.83207847935012
C         0.75307302482964   -2.29349602133266   -2.58631574294120
C         1.97854595649083   -2.29232217707206   -1.82907758103732
C         1.74628842988813   -3.01167129354849   -0.60325456394455
C         0.37540096859533   -3.45674690770671   -0.60590624754420
C         2.79642587047228   -1.16943336678153   -1.83036538381003
C         2.41662410601055   -0.00427406447023   -2.58684959906548
C         2.79859321914087    1.16152578417813   -1.83154900948152
C         3.41388975997432    0.71625385281175   -0.60682554850663
C         3.41252016244842   -0.72453330615915   -0.60599130475005
C         1.98247775328265    2.28573294164918   -1.83062057043651
C         0.75473282591816    2.28638953634482   -2.58673507141990
C        -0.23396438104368    3.00607299919612   -1.82469247434127
C         0.37465505878494    3.44421791835786   -0.60280451456070
C         1.74710908374016    3.00307488897807   -0.60417861545696
C        -1.55407615969283    2.57185609099209   -1.81193293478174
C        -1.93798697341462    1.40786466450188   -2.57291249726765
C        -2.93628743111188    0.69055666307495   -1.82393370906853
C        -3.17073113510289    1.40846506318272   -0.60132750204942
C        -2.30420255817258    2.58031384981423   -0.58836398774521
C        -2.93906519213850   -0.70515163904454   -1.83236796604311
C        -1.94262120315313   -1.42221168818144   -2.58853601698248
C        -1.56036390134316   -2.59293570838668   -1.83532009074488
C        -2.31314164226793   -2.58732909990292   -0.60997308531991
C        -3.17005309158900   -1.42392083204523   -0.61167332258214
C        -0.98624758339358   -0.72581011012000   -3.31285862937519
C        -0.98554412713317    0.71637573080983   -3.30813951442772
C         0.38585619415423    1.16143827962674   -3.31137945775206
C         1.23171191496952   -0.00414875523970   -3.31289535025167
C         0.38552993286694   -1.16958526272004   -3.31358273299781
Cl       -1.95467477097774   -0.01003229369721    5.22986611855846
Cl       -3.13396992138932    3.62783527531946    2.87572399623796
Cl       -3.05076956602107   -3.56828395658082    2.81383238616439
63
 energy: -142.122829062774 gnorm: 0.019303737387 xtb: 6.4.1 (a3dbbd7)
C        -1.29545170360969    0.00360027236339    3.54001887485087
C        -0.36925126425027   -1.16815819877506    3.28755269281842
C         0.98358205997174   -0.71726231938296    3.26596653684487
C         0.98138694781025    0.72330594503309    3.26441493162401
C        -0.37189831445983    1.18076382355757    3.29502100319676
C         2.34108479771632   -2.58185147348625    0.57420400822586
C         3.18920384700943   -1.41604418663583    0.57383447401832
C         2.95309595865210   -0.69460456315908    1.79803950609252
C         1.95523907187418   -1.41199215475276    2.55077208128444
C         1.58209369424283   -2.57162924502783    1.79929963741187
C         3.18890022154615    1.41287046383602    0.57340074970301
C         2.33947421086273    2.57742639339015    0.57329133353494
C         1.57822250577198    2.56965087450033    1.79658091615497
C         1.95423959065762    1.41196593160980    2.54851425923255
C         2.95342449884502    0.69277353244603    1.79819191574170
C        -0.36272286706497    3.43296071749729    0.57641696222579
C        -1.72831253008449    3.02884864940576    0.57839640664910
C        -2.09316954214489    2.47077326968247    1.94120346234173
C        -0.72996008413275    2.28930779826195    2.57762337059947
C         0.24951322149205    2.98030713227243    1.80059064595605
C        -3.36650662434773    0.72371217547961    0.57560489420148
C        -3.36517814722613   -0.71683164911953    0.57621754560494
C        -2.77189719945774   -1.13996068341274    1.79908772127910
C        -2.37058641312694    0.01329785624023    2.51105938666611
C        -2.75092545531515    1.14671768301240    1.80139698489481
C        -1.71988148390918   -3.01765088809447    0.56731704593896
C        -0.35913281659139   -3.43495793621344    0.57289735423609
C         0.25257819689614   -2.97915712159129    1.79673926151432
C        -0.72147172960440   -2.27184040663225    2.56236167504522
C        -2.07591436477399   -2.43709884315907    1.91541809969663
C        -0.23350614130287   -3.01549685144206   -1.83247923953196
C         0.75671284566810   -2.29302046345660   -2.58997340564610
C         1.98230168647553   -2.29084054704400   -1.83250057602725
C         1.74845772741926   -3.00990235361264   -0.60616625501947
C         0.37758360953638   -3.45400481044822   -0.60879763594090
C         2.79937956320153   -1.16734028271840   -1.83342806366440
C         2.41887044046598   -0.00203799698545   -2.58949605290099
C         2.80032121163570    1.16363177368184   -1.83412817575117
C         3.41497536780524    0.71833797383601   -0.60931280356977
C         3.41449914022684   -0.72194414195823   -0.60888972009573
C         1.98346372234023    2.28759433173445   -1.83318456099982
C         0.75714713522063    2.28888500921704   -2.58925126781306
C        -0.23213592447661    3.00929273160111   -1.82748204498050
C         0.37656945190306    3.44716349848428   -0.60491529831499
C         1.74810404801080    3.00529239572481   -0.60626562880582
C        -1.55179207677098    2.57697961202494   -1.81548552807748
C        -1.93633921796947    1.41091928097993   -2.57518929054845
C        -2.93428248437976    0.69643629283086   -1.82600215016195
C        -3.16697642353562    1.41503174111151   -0.60407292492765
C        -2.30373662942221    2.58731965903907   -0.59207285729390
C        -2.93474072151378   -0.70148772430993   -1.82772970610351
C        -1.93890218827704   -1.41752137481413   -2.58375873174165
C        -1.55489731204515   -2.58664913366627   -1.82859704606122
C        -2.30457648382096   -2.58604005285560   -0.60234800378776
C        -3.16623500833789   -1.41895803376953   -0.60756817724807
C        -0.98382687826188   -0.72338465478012   -3.31281321347183
C        -0.98334428597018    0.71889195099468   -3.31030634501913
C         0.38754565359324    1.16326606286729   -3.31322894917247
C         1.23351654943980   -0.00226628555559   -3.31476334788301
C         0.38753634274025   -1.16793431671246   -3.31529386698620
Cl       -1.95897095870632   -0.01159301354011    5.22437248062618
Cl       -3.13113194229018    3.62996269968639    2.87488918903058
Cl       -3.11686310736947   -3.64100419085957    2.86906300158544
63
 energy: -142.123355165904 gnorm: 0.012125641685 xtb: 6.4.1 (a3dbbd7)
C        -1.29603313515940    0.00153563206342    3.54160007222031
C        -0.37292247782850   -1.17359351570077    3.28982838027862
C         0.97995236835657   -0.71833093501667    3.26055208844366
C         0.97970099339612    0.72181667098612    3.26062384496117
C        -0.37298445247054    1.17900869992156    3.29282056637970
C         2.34017710037469   -2.57966193864343    0.57265833547119
C         3.18926474110174   -1.41477037382845    0.57207914585540
C         2.95288688977718   -0.69362065682302    1.79625531604698
C         1.95312695413462   -1.41079546225613    2.54713733143847
C         1.57899333650153   -2.56988856096573    1.79664242558082
C         3.18960992577828    1.41422328406988    0.57202492220823
C         2.34010359946561    2.57871671248954    0.57212373497507
C         1.57843279857812    2.57009692080510    1.79527747080746
C         1.95348153804956    1.41168551314474    2.54654953040453
C         2.95339128232731    0.69364067334951    1.79637419598524
C        -0.36206742328893    3.43454840340147    0.57521879090168
C        -1.72752001048360    3.03066364306589    0.57699395168733
C        -2.09206726325343    2.46963889134108    1.93907683852511
C        -0.72970093377388    2.28820605552327    2.57554180269044
C         0.24972036306484    2.98030500541735    1.79918075063875
C        -3.36075646792015    0.72276841601548    0.57627209876181
C        -3.36065396175462   -0.71975953915895    0.57821711916091
C        -2.76269055228714   -1.14293765762628    1.79949471320433
C        -2.36805640172749    0.00601589423016    2.51001426078001
C        -2.74901842652621    1.14544292107103    1.79937950417759
C        -1.72536711391491   -3.02644358000851    0.57311017859740
C        -0.36214266476048   -3.43474673565643    0.57443692288640
C         0.24958617414006   -2.97909518072253    1.79811747357245
C        -0.72741071550569   -2.28123942973666    2.57036408583588
C        -2.08672934998080   -2.45820984126505    1.93094188587925
C        -0.23229770619855   -3.01277528297262   -1.83052698859127
C         0.75778265418207   -2.29162011771624   -2.59077399616756
C         1.98358159191997   -2.28949402552349   -1.83392941773878
C         1.74823926813241   -3.00792373724228   -0.60713650373567
C         0.37715672330617   -3.45130372351240   -0.60742605924685
C         2.80099726316941   -1.16592582174510   -1.83528229423732
C         2.42054596565508   -0.00029406311210   -2.59125947799410
C         2.80166749667725    1.16542068000798   -1.83569489153805
C         3.41618858220580    0.71988255293224   -0.61082548553548
C         3.41581806575351   -0.72040777745649   -0.61059953268959
C         1.98448349825847    2.28936792908859   -1.83466721810138
C         0.75859615988192    2.29113364467912   -2.59095157172894
C        -0.23118488969887    3.01180120871112   -1.82931250052547
C         0.37760962585834    3.44931915379446   -0.60621858228461
C         1.74885223564918    3.00702762531364   -0.60747092654527
C        -1.55090913282253    2.58007693026197   -1.81765767056783
C        -1.93530962834774    1.41296882436648   -2.57647308892015
C        -2.93249195106139    0.69865835639052   -1.82627764937441
C        -3.16480000395453    1.41682579286892   -0.60464700157088
C        -2.30341006915934    2.58979009350413   -0.59392279362255
C        -2.93256761654267   -0.69944995804870   -1.82546482992214
C        -1.93645152533728   -1.41442806735004   -2.57960263169107
C        -1.55278173554449   -2.58244636212878   -1.82229029965292
C        -2.30518831863859   -2.58858175443159   -0.59709723276738
C        -3.16588093814867   -1.41819283757000   -0.60587427349781
C        -0.98244159125251   -0.72130490971329   -3.31175034317547
C        -0.98206555567339    0.72088551909432   -3.31130947272661
C         0.38885877454889    1.16522454143471   -3.31462814288154
C         1.23482829670652   -0.00043311674998   -3.31608878075732
C         0.38866336099249   -1.16607082793929   -3.31546467852529
Cl       -1.96476797390351   -0.00577277558912    5.22220112022470
Cl       -3.12983054947318    3.63079482765263    2.87302311293289
Cl       -3.12929209706956   -3.65115081635504    2.88074990608080
63
 energy: -142.123555353507 gnorm: 0.006221043811 xtb: 6.4.1 (a3dbbd7)
C        -1.29639352938074    0.00038617692588    3.54365004987759
C        -0.37430043327552   -1.17663375824069    3.29191358039479
C         0.97833353261899   -0.71937130243252    3.25783312467701
C         0.97891876432129    0.72033724152718    3.25839468213681
C        -0.37330138263666    1.17747991148613    3.29213337270093
C         2.33959727782021   -2.57834993145574    0.57179680993324
C         3.18961306825233   -1.41432073864797    0.57133866501638
C         2.95311627792357   -0.69329689448602    1.79542879854435
C         1.95238975357713   -1.41032608255859    2.54534671727593
C         1.57718511902716   -2.56882999685194    1.79483726724023
C         3.19019688906141    1.41479950143673    0.57147737970359
C         2.34043712537248    2.57907832470186    0.57182720075551
C         1.57847870347790    2.56982067432487    1.79492584659985
C         1.95325515157214    1.41109464573493    2.54573965608911
C         2.95350754550416    0.69385585160189    1.79551180719712
C        -0.36215874540475    3.43466674022168    0.57497525557337
C        -1.72736006698389    3.03069640052498    0.57643870244624
C        -2.09128082428490    2.46786178549848    1.93811416687925
C        -0.72955982208651    2.28688327055336    2.57477638652454
C         0.24964418665431    2.97947467661682    1.79872379615942
C        -3.35714653031380    0.72177207808497    0.57665544763304
C        -3.35835944455918   -0.72210809612343    0.57837292509259
C        -2.75446845521655   -1.14519897969406    1.79878859821431
C        -2.36673389055506    0.00081595630332    2.50988645913112
C        -2.74823655740667    1.14429426882547    1.79749073363637
C        -1.72931120355168   -3.03113212812717    0.57710280001413
C        -0.36381029514574   -3.43393427045319    0.57530066718927
C         0.24815828478314   -2.97863799617132    1.79888498480053
C        -0.73116442418031   -2.28649620317618    2.57532857051854
C        -2.09090572783697   -2.46749478876293    1.93812558807276
C        -0.23194602590007   -3.01118229627447   -1.82939616797029
C         0.75820728214084   -2.29077777303908   -2.59123131885847
C         1.98410884150224   -2.28895021264338   -1.83483639168034
C         1.74791696534788   -3.00663063003623   -0.60759058058286
C         0.37674554416285   -3.44901197919179   -0.60627742113457
C         2.80189537180784   -1.16545001747719   -1.83624834221963
C         2.42138142777867    0.00039301685551   -2.59209249509198
C         2.80221428919131    1.16606375167271   -1.83623080509967
C         3.41694446038402    0.72042697587585   -0.61140065114316
C         3.41673638066163   -0.71989505842918   -0.61139177224368
C         1.98469183555412    2.28986148881908   -1.83503914916423
C         0.75904080548685    2.29202324526587   -2.59157670285484
C        -0.23114145026315    3.01277664927251   -1.83000895545490
C         0.37779768299586    3.44999460512892   -0.60651901163132
C         1.74888698922204    3.00750727116028   -0.60768700049184
C        -1.55099402528375    2.58163501131710   -1.81892928704964
C        -1.93518049810243    1.41406045444239   -2.57748057402977
C        -2.93202882635804    0.69979227154180   -1.82669643084601
C        -3.16449382107825    1.41784363991501   -0.60538785209306
C        -2.30386998176236    2.59059396084775   -0.59489973873847
C        -2.93199298867841   -0.69820826071207   -1.82528803083712
C        -1.93522724796292   -1.41252031734613   -2.57702226997843
C        -1.55168879494918   -2.57992346679059   -1.81834538219819
C        -2.30583257644787   -2.58979156905696   -0.59428273930845
C        -3.16630785981746   -1.41758949519651   -0.60571726091535
C        -0.98193193689022   -0.72019424832809   -3.31130747391046
C        -0.98171181924808    0.72183837590357   -3.31188897005297
C         0.38938354881071    1.16615735161756   -3.31537710430067
C         1.23542863353698    0.00048925125317   -3.31681336351600
C         0.38908337011939   -1.16497804993837   -3.31534439168526
Cl       -1.96880424957786    0.00019337528836    5.22100134222772
Cl       -3.12998242032382    3.63033756113739    2.87204713394797
Cl       -3.13116425872545   -3.64724958561032    2.88239666015890
63
 energy: -142.123617797839 gnorm: 0.002741578048 xtb: 6.4.1 (a3dbbd7)
C        -1.29616229229955    0.00005867879142    3.54472938609664
C        -0.37375780609410   -1.17725762764581    3.29276919775510
C         0.97852351504591   -0.71987551231288    3.25788256780215
C         0.97893546117369    0.71974644354671    3.25824968826144
C        -0.37313207590741    1.17690186453234    3.29236586009106
C         2.33957754980742   -2.57821188109144    0.57174197610352
C         3.18986905648149   -1.41443621507697    0.57145000250794
C         2.95339244431630   -0.69340697100777    1.79548347996709
C         1.95275408783806   -1.41045066608471    2.54541806620369
C         1.57709487336000   -2.56874269489057    1.79449159068663
C         3.19023633594490    1.41475397356773    0.57163063443962
C         2.34032818314514    2.57889018950800    0.57204020550232
C         1.57829389144845    2.56944512189339    1.79514114673246
C         1.95330864214004    1.41080028180397    2.54596326279946
C         2.95358679557225    0.69373546930585    1.79565726192603
C        -0.36258011075799    3.43413919292873    0.57513687027204
C        -1.72764745840752    3.03019926514627    0.57646093585331
C        -2.09110999057273    2.46681398250876    1.93799962992139
C        -0.72966874477551    2.28618835971421    2.57482433876290
C         0.24937016704150    2.97882003520784    1.79882611988658
C        -3.35621433709660    0.72163728284076    0.57691842193940
C        -3.35747002810434   -0.72254656141846    0.57767225643592
C        -2.75001681777289   -1.14543554335627    1.79777654022608
C        -2.36587125519988   -0.00096368184719    2.50977554335286
C        -2.74847490112728    1.14409962873138    1.79652804272251
C        -1.72987326515013   -3.03106070353401    0.57788296733378
C        -0.36389299040284   -3.43318070143753    0.57531356325587
C         0.24827446229425   -2.97813618229037    1.79888142220390
C        -0.73158812523133   -2.28696280112531    2.57602924228430
C        -2.09143734977255   -2.46834499089508    1.93931224717985
C        -0.23203429089263   -3.01111797254703   -1.82931350832600
C         0.75820639404976   -2.29077609283304   -2.59134333506111
C         1.98404370669619   -2.28906332373840   -1.83499539287336
C         1.74781207446438   -3.00645569319240   -0.60756724524623
C         0.37667949068325   -3.44838097382380   -0.60595718568930
C         2.80191609160626   -1.16557378548612   -1.83624538572676
C         2.42126662395787    0.00027954760776   -2.59198151402559
C         2.80201944607553    1.16592590248367   -1.83604084506465
C         3.41690835862165    0.72029458158679   -0.61123370003150
C         3.41687086674935   -0.72002213347812   -0.61134369599941
C         1.98435562418926    2.28957362067265   -1.83477702024997
C         0.75873930279456    2.29179710516765   -2.59139627139837
C        -0.23154092838005    3.01254455939692   -1.82987114029042
C         0.37749380501483    3.44970168098394   -0.60632434811058
C         1.74850365357381    3.00720347966024   -0.60740852486317
C        -1.55142247392759    2.58169436484319   -1.81914964668503
C        -1.93556488455856    1.41412161047300   -2.57780781796516
C        -2.93249102440199    0.69987426946015   -1.82691409293943
C        -3.16529965977586    1.41822220299031   -0.60595675294974
C        -2.30452932016158    2.59039463179278   -0.59505591043584
C        -2.93249313136511   -0.69809369378009   -1.82615908896956
C        -1.93533297051548   -1.41230907871478   -2.57659664630858
C        -1.55154957161549   -2.57961747719177   -1.81757738005861
C        -2.30556001661139   -2.58962974602408   -0.59395627585986
C        -3.16647725437750   -1.41719649704197   -0.60605912105598
C        -0.98214948581443   -0.72024042718131   -3.31142237187261
C        -0.98202659035865    0.72171604355859   -3.31188962213621
C         0.38918854712578    1.16607856752113   -3.31537778851363
C         1.23527818743946    0.00046713060198   -3.31677796172496
C         0.38893205945176   -1.16492410687835   -3.31513805700795
Cl       -1.96985556021700    0.00192827956824    5.22032022652948
Cl       -3.13060485046138    3.62961458300735    2.87255120234283
Cl       -3.12942514151460   -3.63842656104680    2.87867129134229
63
 energy: -142.123631214104 gnorm: 0.001396216298 xtb: 6.4.1 (a3dbbd7)
C        -1.29586553233551    0.00006132685072    3.54488628382091
C        -0.37301716875235   -1.17704025619415    3.29286755103665
C         0.97909513818872   -0.71996304108785    3.25873918637150
C         0.97918087414677    0.71977377365462    3.25878774161997
C        -0.37292222892089    1.17690533043287    3.29265516176330
C         2.33976631323515   -2.57850275843315    0.57198581756459
C         3.18991218100895   -1.41458139350422    0.57170971097526
C         2.95349743969284   -0.69356993887973    1.79577159324571
C         1.95320771165987   -1.41069563747629    2.54600672879195
C         1.57762250020551   -2.56907114189089    1.79489200489571
C         3.19005218051206    1.41459521120431    0.57179887003555
C         2.34011415523551    2.57870084275234    0.57218599716074
C         1.57812232659426    2.56927532540162    1.79530045159003
C         1.95338003216941    1.41076334759195    2.54623800284501
C         2.95359631834005    0.69360286659336    1.79589956722752
C        -0.36287059671833    3.43377005319796    0.57526529131143
C        -1.72794701079284    3.02995749722674    0.57662419636668
C        -2.09121081787991    2.46662210042430    1.93814776440225
C        -0.72980619183719    2.28604871172379    2.57501052260684
C         0.24917969373678    2.97861328762465    1.79896417306814
C        -3.35662496197169    0.72190175166870    0.57707211790874
C        -3.35724004402856   -0.72202373373309    0.57714241440733
C        -2.74892640047241   -1.14479003260048    1.79716803259094
C        -2.36540076562077   -0.00067826785688    2.50960763466140
C        -2.74891650129342    1.14438696539624    1.79645622481009
C        -1.72893864964253   -3.02984444618570    0.57723738861697
C        -0.36340806303474   -3.43314091169791    0.57515461191289
C         0.24877705081530   -2.97815590894494    1.79878876821880
C        -0.73068562299441   -2.28604185724961    2.57522034726840
C        -2.09118429720173   -2.46693142427020    1.93856487761631
C        -0.23208222628071   -3.01156009781827   -1.82955854719538
C         0.75815997157911   -2.29101991476399   -2.59127217314981
C         1.98390079442662   -2.28923313907892   -1.83480369250306
C         1.74789726016656   -3.00670907131200   -0.60740332664362
C         0.37681886376242   -3.44875004890663   -0.60607661265852
C         2.80167646051942   -1.16569692510168   -1.83597974891376
C         2.42093764413940    0.00008752331325   -2.59169446472129
C         2.80171336761296    1.16575012576367   -1.83582979450756
C         3.41664467940591    0.72013132400651   -0.61103462541176
C         3.41666192931967   -0.72016518710908   -0.61112198943518
C         1.98404974406780    2.28934310155473   -1.83456674134972
C         0.75836137529783    2.29145219984504   -2.59112119497224
C        -0.23186201467760    3.01215340257578   -1.82959886183936
C         0.37720337786567    3.44937019323574   -0.60615225185071
C         1.74820766609473    3.00694477777915   -0.60722872966225
C        -1.55171193215999    2.58129600251564   -1.81891493301043
C        -1.93591686860211    1.41385356548221   -2.57770245060454
C        -2.93306320037922    0.69960576922745   -1.82689500259076
C        -3.16601264238194    1.41820989997188   -0.60616644906815
C        -2.30490296021818    2.59006634693171   -0.59488627755946
C        -2.93280719293792   -0.69842973603886   -1.82670347859757
C        -1.93570752048642   -1.41277851540992   -2.57710261022873
C        -1.55168407989712   -2.58018591764620   -1.81820325624733
C        -2.30503894882653   -2.58934170672871   -0.59448867068059
C        -3.16621814492885   -1.41713768906755   -0.60617788077575
C        -0.98239416103022   -0.72059538894787   -3.31162248810463
C        -0.98237090708556    0.72136872771874   -3.31166957688116
C         0.38886410135884    1.16579493503732   -3.31513745352085
C         1.23498641811755    0.00023603772689   -3.31653256458759
C         0.38875408322202   -1.16520287166289   -3.31504874928361
Cl       -1.96943528597135    0.00105825878898    5.22008260689766
Cl       -3.13076907472767    3.62945544694644    2.87342293438806