63
 energy: -142.083174992639 gnorm: 0.137569442730 xtb: 6.4.1 (a3dbbd7)
C        -1.29585809770389    0.00401118895665    3.54517689253707
C        -0.36796043462932   -1.17243305037605    3.30515820978008
C         0.98298838983527   -0.72191219207564    3.27512267938171
C         0.98156472667820    0.71960753568128    3.26971969810914
C        -0.37066843460465    1.17924059903467    3.30150764336582
C         2.33648296603916   -2.58548060331365    0.57950289353032
C         3.18657767574002   -1.41946403927647    0.57781419519059
C         2.94957050639235   -0.69854930596759    1.80123308070154
C         1.95308396824160   -1.41752165468763    2.55613481575760
C         1.57961582989334   -2.57968580837377    1.80518673242103
C         3.18767024140451    1.40991878522763    0.57593180000620
C         2.33807592116844    2.57402574447607    0.57591940981122
C         1.57683795432701    2.56605672107525    1.79975339071644
C         1.95304946465436    1.40835201077487    2.55205927518980
C         2.95072023087345    0.68875745016373    1.80098024572921
C        -0.36516779407368    3.42666371337356    0.57921714423118
C        -1.72924376763824    3.01648005769000    0.58287705261872
C        -2.09463355992581    2.46231283092052    1.94730853815858
C        -0.73027134402217    2.28553619303067    2.58224921102021
C         0.24829448349984    2.97593693112150    1.80334175266563
C        -3.37466967425340    0.70300551354290    0.57574930054980
C        -3.39003092747716   -0.73268815647906    0.56838248265369
C        -2.76818811332164   -1.16356142379097    1.78871572221350
C        -2.38904763706855    0.02437925876362    2.53264263719760
C        -2.74834472563595    1.12995086275151    1.81420011519069
C        -1.73481952350512   -3.00995345714269    0.57938225060336
C        -0.36149853481650   -3.44686666227317    0.58178847315895
C         0.25217194581416   -2.99475012292755    1.80551621994623
C        -0.72930832442940   -2.27346636839910    2.56467955448571
C        -1.97147545426586   -2.28746259170963    1.79868366133100
C        -0.24419850626392   -3.01431906333444   -1.82647673840836
C         0.74940205407495   -2.29291975825760   -2.58286291053874
C         1.97453700933417   -2.29239152843074   -1.82543977586922
C         1.74139873400736   -3.01127177410490   -0.59946235558356
C         0.36858334367966   -3.45436466613801   -0.59762914044760
C         2.79442417392884   -1.17031401259636   -1.82833550603033
C         2.41574661888024   -0.00512369156855   -2.58546959716668
C         2.79806943075341    1.16104826420258   -1.83045397172065
C         3.41356646771945    0.71553904943849   -0.60565027142670
C         3.41126633561149   -0.72579612454708   -0.60436594395851
C         1.98256115248497    2.28538932455247   -1.82964816243281
C         0.75350030257848    2.28551308199782   -2.58573232036207
C        -0.23508280213456    3.00436687409655   -1.82344140492918
C         0.37359850932028    3.44286488622179   -0.60220138863872
C         1.74684322376492    3.00246743943424   -0.60372642363492
C        -1.55566653231806    2.56818250386052   -1.80941223575869
C        -1.93859434646944    1.40592010794080   -2.57168095880615
C        -2.93551210457882    0.68461262535792   -1.82146846772098
C        -3.16898901542976    1.39767486975662   -0.59605965548237
C        -2.30435127723071    2.57332623923171   -0.58497549467516
C        -2.94114405309208   -0.70773319324488   -1.83440725641731
C        -1.94505174577217   -1.42387954875747   -2.59102123506710
C        -1.56548890447542   -2.59170746585215   -1.83211639425372
C        -2.32839595515909   -2.59312664323360   -0.60918315818311
C        -3.17773883494341   -1.43218193772331   -0.61434027474195
C        -0.98775846759569   -0.72638522820754   -3.31322849837523
C        -0.98659864719709    0.71557045430270   -3.30737103326374
C         0.38544609985482    1.16109326139683   -3.31071431261235
C         1.23106807703669   -0.00470839638716   -3.31198800126459
C         0.38446650889097   -1.17000629330740   -3.31255499443923
Cl       -1.95494402230001   -0.00808767739961    5.23350834621500
Cl       -3.13453400437008    3.62205440029917    2.87428256883422
Cl       -2.94813304996413   -2.15791722202405   -3.90674027475830
63
 energy: -142.107223107773 gnorm: 0.059198847733 xtb: 6.4.1 (a3dbbd7)
C        -1.29519163489646    0.00445227501861    3.54883928435231
C        -0.36723533067799   -1.17160067546089    3.30809706651612
C         0.98343562248774   -0.72094857102669    3.27710966834645
C         0.98194335439034    0.71976975583140    3.27148085040828
C        -0.37034030037886    1.17938526190491    3.30305453716581
C         2.33676595979260   -2.58463332407137    0.58128068017060
C         3.18752903773887   -1.41931172283760    0.57891358991602
C         2.94981905975551   -0.69814505850187    1.80146353166539
C         1.95336330039162   -1.41702601889068    2.55714642972866
C         1.58023694257112   -2.57930832246298    1.80756201687245
C         3.18866640046776    1.41060370005319    0.57670878502410
C         2.33894004336410    2.57469382201647    0.57673879241872
C         1.57706542259076    2.56590029279762    1.80050342011735
C         1.95339010578851    1.40849146854438    2.55223012365152
C         2.95099169206151    0.68918072467504    1.80163399762947
C        -0.36508739873021    3.42690700148232    0.58049610626673
C        -1.72902420398319    3.01640657740420    0.58444577870925
C        -2.09452042176491    2.46275136012416    1.94914372301472
C        -0.73008338690000    2.28544832221086    2.58349983129493
C         0.24836012349985    2.97579100988263    1.80396016064474
C        -3.37841037039739    0.70463793033445    0.58304011105518
C        -3.39212732957165   -0.72811438237508    0.57653325400843
C        -2.76785226923643   -1.16230204121612    1.79453102051022
C        -2.38876272504873    0.02454514556823    2.53761538331734
C        -2.74818818601559    1.13033706462806    1.81841020036484
C        -1.73177372324390   -3.01270187527099    0.58766980437644
C        -0.36089454535989   -3.45040950782331    0.58894776512634
C         0.25298896841391   -2.99527183433850    1.81027811269968
C        -0.72846168536666   -2.27359790742949    2.56939783003526
C        -1.97023551634258   -2.28718052008851    1.80374207521833
C        -0.24129588128514   -3.00741503526973   -1.81377622416008
C         0.75264929703315   -2.28930617942955   -2.57946884348849
C         1.97405130752711   -2.29037846061680   -1.82399389833055
C         1.74130789920482   -3.01033699317352   -0.59694873432964
C         0.37080560633062   -3.45726858523789   -0.59122294553421
C         2.79831485019275   -1.16810773760885   -1.82765135405831
C         2.42326649099695   -0.00086336509667   -2.58564350797117
C         2.80303521411897    1.16451446295381   -1.82930826061834
C         3.41591626391215    0.71682312764981   -0.60439801173197
C         3.41275603950294   -0.72501820432922   -0.60423122882416
C         1.98746090189398    2.28901525430943   -1.82849165310812
C         0.76021271685542    2.29130159826848   -2.58595176313777
C        -0.23171072853200    3.00620981932527   -1.82243097095592
C         0.37468347426702    3.44359100475257   -0.60179212715124
C         1.74875172949417    3.00425470081329   -0.60231786690579
C        -1.55402627083711    2.56659312503320   -1.80865238599264
C        -1.93379691163856    1.40824236368672   -2.56919728692774
C        -2.92814684383547    0.68516952437170   -1.80901771821081
C        -3.17114540732334    1.40091336940024   -0.59005049644050
C        -2.30426277541274    2.57279707008632   -0.58287507605764
C        -2.94142098482158   -0.70065806709607   -1.81959999318853
C        -2.00648753269493   -1.46863081869393   -2.66919577209354
C        -1.55908104640167   -2.59288722228523   -1.81664772515570
C        -2.31933798822269   -2.58685808473150   -0.60267619700395
C        -3.16990715976900   -1.42469243721257   -0.60779661261793
C        -0.97297402199621   -0.71578045295887   -3.33301882887935
C        -0.97348573217181    0.71619751580017   -3.30111667783267
C         0.39740993114898    1.16845465830755   -3.31245173652827
C         1.24212780374852    0.00404578594610   -3.31382875129704
C         0.38896656946550   -1.15816783695065   -3.30601560478545
Cl       -1.95344233563279   -0.00811023914864    5.23722480930529
Cl       -3.13434372954823    3.62280916325666    2.87525016250649
Cl       -3.03434402115289   -2.22137365803724   -4.01161281278616
63
 energy: -142.113175395284 gnorm: 0.013508458465 xtb: 6.4.1 (a3dbbd7)
C        -1.29347352991835    0.00580069781105    3.55325530032742
C        -0.36546319587309   -1.17014790070353    3.31228901991167
C         0.98485194257111   -0.71918269372087    3.28057439436428
C         0.98339379505583    0.72100144244930    3.27471517884644
C        -0.36890229265000    1.18076586751574    3.30650900677403
C         2.33752832278842   -2.58257049799580    0.58349154405516
C         3.18913180767228   -1.41780701420326    0.58154420793429
C         2.95096126105045   -0.69650859105816    1.80329272230843
C         1.95432746355212   -1.41553608055730    2.55921352627359
C         1.58170690731282   -2.57822232109440    1.81080271763733
C         3.19089888267405    1.41224854453400    0.57908214523702
C         2.34096170053617    2.57625380586597    0.57909251697817
C         1.57865513805232    2.56679115325400    1.80303346168673
C         1.95477930229465    1.40967168590388    2.55414052396840
C         2.95247107307654    0.69080754447042    1.80412875833765
C        -0.36339930500042    3.42765296772810    0.58328337145480
C        -1.72706877149701    3.01589912384287    0.58652058752805
C        -2.09345657120371    2.46376864138638    1.95212846965485
C        -0.72885363977871    2.28639276762282    2.58633913914891
C         0.24978590177620    2.97638104940049    1.80608785857516
C        -3.37494078817084    0.70372488613690    0.58690297027523
C        -3.38912341422146   -0.72538440596272    0.57815099443271
C        -2.76561413371969   -1.16012722743477    1.79724263773893
C        -2.38696982605429    0.02512857198138    2.54177423771846
C        -2.74778041230577    1.13135858226727    1.82279464892461
C        -1.72795393552956   -3.00943252771698    0.58943718926375
C        -0.36021723524882   -3.44678485708263    0.59273848317902
C         0.25457082889493   -2.99509514421340    1.81479282131285
C        -0.72696925097707   -2.27224482146866    2.57343754202456
C        -1.96754134391462   -2.28501415473831    1.80577070216833
C        -0.24572996426680   -3.00279914853115   -1.81182665088967
C         0.75370960123563   -2.28941257501803   -2.57982295283036
C         1.97130336419284   -2.28643418036459   -1.82266797615987
C         1.74053749570079   -3.00618198334058   -0.59461834103539
C         0.36932980648838   -3.44897316595857   -0.58909003273301
C         2.80127379108015   -1.16576504998576   -1.82518559371304
C         2.42574336240141    0.00182859505099   -2.58261332284107
C         2.80768611225673    1.16757797534505   -1.82742975229005
C         3.41906312177324    0.71906689929688   -0.60189402503342
C         3.41420234624807   -0.72338312123269   -0.60254627170550
C         1.99184588072195    2.29242233755732   -1.82669305311648
C         0.76373840147351    2.29263788524909   -2.58285776584527
C        -0.22863498829677    3.00751183491652   -1.81968232120237
C         0.37651692453251    3.44420715496451   -0.59985130774297
C         1.75167074816992    3.00643623978137   -0.59971121881927
C        -1.55137435833545    2.56273789598077   -1.80788432539214
C        -1.93319767853859    1.40964548628174   -2.57013146508589
C        -2.92435637087418    0.67926342010359   -1.80671399913959
C        -3.16357492227942    1.39716785812321   -0.58805569464807
C        -2.30119552930872    2.57083322957238   -0.58074613815630
C        -2.94578361963319   -0.70129677578591   -1.82052571847601
C        -2.06210518042637   -1.50941113863662   -2.73582184488856
C        -1.56131152342079   -2.59679745902035   -1.81757215662212
C        -2.30946523569979   -2.57943666438147   -0.60594745404976
C        -3.16079121319506   -1.41744557531015   -0.61092134357210
C        -0.96826573267845   -0.71252733637798   -3.33161505948362
C        -0.97064809805637    0.70905650292129   -3.29419376784387
C         0.40041537896869    1.16881387115837   -3.30728379693520
C         1.24376729579436    0.00649831242148   -3.30873655374947
C         0.38294784071290   -1.15356191497269   -3.29889065679993
Cl       -1.94988929012378   -0.00754247628634    5.24218295043757
Cl       -3.13314356278947    3.62515548678251    2.87643059414912
Cl       -3.09276715525575   -2.26565239775715   -4.09408182549339
63
 energy: -142.113478967650 gnorm: 0.008106411624 xtb: 6.4.1 (a3dbbd7)
C        -1.29274065945411    0.00641895486282    3.55543977392187
C        -0.36453189284678   -1.16960908048481    3.31439282333145
C         0.98579334946782   -0.71848024779737    3.28272503050693
C         0.98436928681849    0.72170607853428    3.27664552382040
C        -0.36801301784229    1.18140447139778    3.30839548707830
C         2.33734037882433   -2.58105055236445    0.58432407099425
C         3.18983211045243   -1.41695765688046    0.58302699546301
C         2.95173917178276   -0.69566378017948    1.80470002853576
C         1.95513243448469   -1.41478516912739    2.56081396832645
C         1.58228203861038   -2.57716389888840    1.81217824145414
C         3.19197301729397    1.41306968855967    0.58040366296233
C         2.34186505918754    2.57714301366519    0.58037474323953
C         1.57956577764303    2.56751347213833    1.80456915542353
C         1.95564558228760    1.41040988214659    2.55558294412248
C         2.95342997872269    0.69169802806680    1.80568740989665
C        -0.36260918654116    3.42792870937433    0.58472771969552
C        -1.72587650875632    3.01479633581065    0.58720485491881
C        -2.09254573655774    2.46409059298185    1.95339302471797
C        -0.72801717838982    2.28686694190215    2.58793670505148
C         0.25059440724516    2.97693148351164    1.80750660893684
C        -3.37221350790880    0.70278604422750    0.58705971961567
C        -3.38598571815911   -0.72541181689166    0.57677181493512
C        -2.76364065260665   -1.15889655208497    1.79709560036917
C        -2.38606739552811    0.02565632060460    2.54316935282345
C        -2.74726159533991    1.13188133179250    1.82412492623284
C        -1.72676427139898   -3.00620621367505    0.58808934485218
C        -0.36004072377727   -3.44377968824960    0.59289696641905
C         0.25531598707544   -2.99435722526859    1.81604520049527
C        -0.72614015429848   -2.27137178034533    2.57469927931862
C        -1.96576688343419   -2.28334125992261    1.80541160317822
C        -0.24870810896997   -3.00352791901617   -1.81503507115735
C         0.75432178568134   -2.29112218081612   -2.58126056105907
C         1.97041207208194   -2.28499688008054   -1.82243125889811
C         1.73923571985901   -3.00311688552278   -0.59390956244641
C         0.36742525864094   -3.44378146069610   -0.58966551873082
C         2.80184106188328   -1.16508306653191   -1.82376284125185
C         2.42518912323143    0.00238445623383   -2.58073286541976
C         2.80864134132603    1.16829773715814   -1.82635084413205
C         3.42022423427917    0.71993963221190   -0.60064496015213
C         3.41460385339876   -0.72273475520715   -0.60136538486697
C         1.99266054172664    2.29319572433585   -1.82567373511474
C         0.76397107612349    2.29192009923697   -2.58101210885141
C        -0.22805057010185    3.00766838617306   -1.81827301158122
C         0.37700282900442    3.44430387992320   -0.59866438114693
C         1.75262180419285    3.00733294557395   -0.59847329884145
C        -1.55056360428229    2.56147018354714   -1.80786163191896
C        -1.93464804472220    1.41068759601881   -2.57167928618171
C        -2.92585359145221    0.67642879569110   -1.80989061742686
C        -3.15947900054566    1.39369222047236   -0.58877818937133
C        -2.29908686779336    2.56854338048198   -0.58019307771912
C        -2.95150574308292   -0.70470592744173   -1.82769009692254
C        -2.07628874902635   -1.51992229433018   -2.75093825578578
C        -1.56624810636548   -2.60145178888659   -1.82479706964734
C        -2.30760018035387   -2.57821824135200   -0.60954348856312
C        -3.15904609226176   -1.41619248232686   -0.61442141141507
C        -0.97048784886841   -0.71420563562789   -3.32792614548308
C        -0.97295499175549    0.70556790989268   -3.29328644345418
C         0.39918671733111    1.16729169615950   -3.30378536385753
C         1.24201186051775    0.00582244006114   -3.30517869346319
C         0.37897031759451   -1.15467494711613   -3.29791045790869
Cl       -1.94676247309556   -0.00632663957422    5.24535404154656
Cl       -3.13083640239480    3.62737320492775    2.87679489167940
Cl       -3.09904898904046   -2.27125649422270   -4.11083804476068
63
 energy: -142.113577386317 gnorm: 0.004687301833 xtb: 6.4.1 (a3dbbd7)
C        -1.29267088930843    0.00647493304497    3.55640953308094
C        -0.36424816607488   -1.16971093338163    3.31541198803770
C         0.98608345223581   -0.71842971253907    3.28365981821310
C         0.98458551060229    0.72180155391208    3.27725346555945
C        -0.36782903820329    1.18145792863155    3.30884262214287
C         2.33726481539738   -2.58061909637526    0.58460116441019
C         3.19014146921309   -1.41681631317203    0.58358424958046
C         2.95202114438014   -0.69550236552156    1.80521914274748
C         1.95551134838083   -1.41467129385907    2.56157035891236
C         1.58255222347460   -2.57679066399094    1.81273665711933
C         3.19217219761472    1.41321363622288    0.58066051400102
C         2.34195024287954    2.57738493398600    0.58061791893554
C         1.57968256093184    2.56768504854826    1.80496976493778
C         1.95572238254952    1.41051094309827    2.55587339464579
C         2.95363147302838    0.69188790415342    1.80611311050989
C        -0.36253733187119    3.42825645608125    0.58526963519085
C        -1.72563075833231    3.01441756288739    0.58739259460942
C        -2.09236358169280    2.46431706391897    1.95384165304923
C        -0.72782489022276    2.28690470062627    2.58836817058597
C         0.25070676643128    2.97721559439091    1.80798238076161
C        -3.37097822907418    0.70250048067255    0.58716030144176
C        -3.38363820885106   -0.72547982404991    0.57604234145965
C        -2.76246597542180   -1.15824215598550    1.79698176823114
C        -2.38610194149084    0.02602739875474    2.54398359348868
C        -2.74738969736848    1.13235159615679    1.82500807281219
C        -1.72598902837676   -3.00413207771984    0.58735836079335
C        -0.35980570490430   -3.44254615288799    0.59292921898291
C         0.25580872264282   -2.99431285846296    1.81671266086776
C        -0.72570427103265   -2.27137333966964    2.57531838647537
C        -1.96472763867589   -2.28249987085835    1.80517203970033
C        -0.24992178272054   -3.00395513202073   -1.81669979167524
C         0.75540148284258   -2.29267898780204   -2.58214864539740
C         1.97045480449410   -2.28481500066945   -1.82254278015798
C         1.73845167210206   -3.00156399714396   -0.59364518324464
C         0.36628957650472   -3.44116550763100   -0.58999199637777
C         2.80222072135301   -1.16511997214060   -1.82321168104528
C         2.42471767052185    0.00242366094408   -2.58000776372571
C         2.80866793706484    1.16835617702340   -1.82606990275679
C         3.42057203689570    0.72009588091281   -0.60036905629804
C         3.41472395983239   -0.72273411323618   -0.60099833676031
C         1.99258187754711    2.29331311871681   -1.82541629101483
C         0.76373208692291    2.29151769648431   -2.58029053232514
C        -0.22813681294896    3.00801864237075   -1.81771078673742
C         0.37688596635181    3.44446828136387   -0.59827474633860
C         1.75273446135961    3.00771813428029   -0.59818963133008
C        -1.55055420249196    2.56149405048791   -1.80801605846874
C        -1.93585813477135    1.41212632234918   -2.57253187522723
C        -2.92673614491275    0.67528644847889   -1.81160100081327
C        -3.15749601421210    1.39168980357761   -0.58917332562700
C        -2.29810376452146    2.56724450355512   -0.57998613404515
C        -2.95435738907559   -0.70653569136466   -1.83195761303630
C        -2.08235344084393   -1.52445347065902   -2.75700004953110
C        -1.56878439741224   -2.60379098450978   -1.82911053385356
C        -2.30618726675060   -2.57739380680165   -0.61121803353841
C        -3.15760672339406   -1.41523619274504   -0.61602760788886
C        -0.97194677843117   -0.71527184725183   -3.32367519533137
C        -0.97483553472425    0.70369188541034   -3.29255457424019
C         0.39819041008046    1.16622868238539   -3.30153617147686
C         1.24068403178836    0.00529271651726   -3.30290013336325
C         0.37663250940133   -1.15581986259218   -3.29718238589012
Cl       -1.94522761769644   -0.00546392756773    5.24684926568592
Cl       -3.12904202138548    3.62924196243567    2.87686734824435
Cl       -3.09590840781393   -2.26966143300358   -4.11515584136394
63
 energy: -142.113617612605 gnorm: 0.002427268027 xtb: 6.4.1 (a3dbbd7)
C        -1.29282671538513    0.00638834841484    3.55651261012685
C        -0.36433117005441   -1.16992907851982    3.31557233222174
C         0.98598883405599   -0.71858131468536    3.28368921589883
C         0.98448072696564    0.72166958437763    3.27708836083054
C        -0.36790611794599    1.18134090815625    3.30859453343698
C         2.33726731820856   -2.58085812808183    0.58454295257000
C         3.19012748188076   -1.41701176194751    0.58351075375441
C         2.95195278811987   -0.69564360449453    1.80510090918282
C         1.95550687783797   -1.41480875283595    2.56160208880751
C         1.58253224098981   -2.57684405376158    1.81274956761370
C         3.19194239135260    1.41305436903210    0.58035060475499
C         2.34168880295484    2.57726158935940    0.58031364606792
C         1.57945817393165    2.56754844650637    1.80471280796472
C         1.95551079281466    1.41035556432589    2.55554857988011
C         2.95344745506358    0.69174803984823    1.80586109058311
C        -0.36281005112519    3.42842696918024    0.58521119194962
C        -1.72593343267106    3.01445109950706    0.58732622819505
C        -2.09254661267746    2.46436000738942    1.95385525397375
C        -0.72791583503783    2.28677962191336    2.58820660302549
C         0.25051686746023    2.97723891146352    1.80783613257536
C        -3.37094164259202    0.70257072348889    0.58731576833441
C        -3.38274934284657   -0.72554748075955    0.57594539161051
C        -2.76215342036916   -1.15807814021732    1.79696084739689
C        -2.38644637188720    0.02614306865880    2.54423290219325
C        -2.74777290287167    1.13258208683939    1.82540861891520
C        -1.72576134268660   -3.00347505589368    0.58728143916740
C        -0.35969497639660   -3.44259216562813    0.59302212773916
C         0.25594860803532   -2.99462443564925    1.81698244821027
C        -0.72563915772805   -2.27169316691399    2.57548664365605
C        -1.96445847812413   -2.28236585116307    1.80514256346075
C        -0.25004455288876   -3.00391654104951   -1.81680897997909
C         0.75617539413610   -2.29352799607071   -2.58237999468161
C         1.97076913928083   -2.28528992564491   -1.82276327534095
C         1.73821758973002   -3.00139916421918   -0.59364886257900
C         0.36586951796977   -3.44064358484918   -0.59000832808543
C         2.80240228567780   -1.16545890385986   -1.82325235625382
C         2.42454572084196    0.00224915634830   -2.58010427078608
C         2.80834538898161    1.16815371473726   -1.82625412129589
C         3.42043228383984    0.71993271140113   -0.60061010422458
C         3.41464071052642   -0.72298310554518   -0.60116905346008
C         1.99220322364337    2.29314246294651   -1.82559342305331
C         0.76342767008212    2.29145878627414   -2.58036618072486
C        -0.22848899985917    3.00831757010722   -1.81773787269803
C         0.37654568306543    3.44453838394123   -0.59841455167598
C         1.75246776586883    3.00771189425267   -0.59841030828308
C        -1.55097928656825    2.56195244057928   -1.80821444396090
C        -1.93646765049556    1.41308063727032   -2.57271258871666
C        -2.92684890371555    0.67512114344379   -1.81176744572602
C        -3.15717910182898    1.39102800407181   -0.58920934564183
C        -2.29810946215353    2.56690104468899   -0.57998318545057
C        -2.95467431896349   -0.70689963084195   -1.83297975874105
C        -2.08404869128561   -1.52574922787040   -2.75881519277328
C        -1.56918132663352   -2.60407975985555   -1.83014481380571
C        -2.30535178184501   -2.57691075098992   -0.61139179793430
C        -3.15674664357556   -1.41465403291345   -0.61619092555850
C        -0.97225493507705   -0.71549261163613   -3.32040290807146
C        -0.97558865460219    0.70303100512732   -3.29182501693495
C         0.39782316874898    1.16581207930122   -3.30076058472426
C         1.24015625844343    0.00513632339405   -3.30212710312504
C         0.37578717308430   -1.15629083375222   -3.29647124337376
Cl       -1.94474404078077   -0.00508352936082    5.24709435060636
Cl       -3.12816709848877    3.63018838133896    2.87686675548355
Cl       -3.08960158461479   -2.26541337190826   -4.11383944619338
63
 energy: -142.113629281886 gnorm: 0.001299480067 xtb: 6.4.1 (a3dbbd7)
C        -1.29290074382483    0.00634520648578    3.55627518407473
C        -0.36444524246953   -1.16998852605993    3.31533404496447
C         0.98585820113953   -0.71866327326527    3.28338519328154
C         0.98438023843594    0.72157605685772    3.27678894299642
C        -0.36797338680096    1.18127352210477    3.30829971369107
C         2.33728148367804   -2.58115531518280    0.58440346547037
C         3.19000498384051   -1.41718219786556    0.58325349536521
C         2.95181061001883   -0.69576546545943    1.80481061116584
C         1.95537930717230   -1.41490964204924    2.56133475446846
C         1.58241540712805   -2.57699111087884    1.81257239977450
C         3.19172290075321    1.41291484246144    0.58003627255755
C         2.34149313484998    2.57709319157116    0.58000908520171
C         1.57928454912199    2.56740727279364    1.80439099057784
C         1.95537587070923    1.41024868742345    2.55523101037777
C         2.95326753945501    0.69161439406497    1.80553073423525
C        -0.36301628407629    3.42839822647620    0.58496163713010
C        -1.72621961106074    3.01456239847969    0.58721246827400
C        -2.09271968890183    2.46429266043372    1.95373143108259
C        -0.72801568687493    2.28669104724168    2.58795468666016
C         0.25036597993069    2.97714815820086    1.80754405322951
C        -3.37136064426367    0.70269468070758    0.58743236077289
C        -3.38307676690899   -0.72558578476696    0.57617263700950
C        -2.76235706859033   -1.15819395338121    1.79701257529049
C        -2.38659470398839    0.02607088410855    2.54411792959115
C        -2.74797104649587    1.13255357529732    1.82538190985485
C        -1.72592630636838   -3.00381537442448    0.58751725405325
C        -0.35973411596863   -3.44304152820837    0.59311100890701
C         0.25585369268179   -2.99483415069851    1.81696128375035
C        -0.72574098718162   -2.27186437396536    2.57541417960216
C        -1.96464523235956   -2.28256910706272    1.80524113452747
C        -0.24981894182695   -3.00380598007128   -1.81627341037343
C         0.75623738953946   -2.29359658568376   -2.58221248443099
C         1.97089715277537   -2.28572377863856   -1.82288152039562
C         1.73833494032149   -3.00189818207778   -0.59373634119361
C         0.36594635403215   -3.44120139053972   -0.58988515926014
C         2.80236497277911   -1.16569746108176   -1.82348269524708
C         2.42458436912683    0.00208641098886   -2.58043613950641
C         2.80812630200386    1.16799629987765   -1.82650269399709
C         3.42019230340564    0.71977766469003   -0.60088226842084
C         3.41451013388075   -0.72314871502115   -0.60144515199005
C         1.99198254722064    2.29298588859276   -1.82582885581137
C         0.76327930747885    2.29155312760297   -2.58068705997582
C        -0.22872522429756    3.00837158467518   -1.81797668129181
C         0.37634512826408    3.44448139065551   -0.59868293783749
C         1.75224708763901    3.00754209403165   -0.59867411325871
C        -1.55133931224014    2.56220553172659   -1.80832026594924
C        -1.93651726281700    1.41316605749994   -2.57254273853119
C        -2.92669596393592    0.67532443876663   -1.81125352254784
C        -3.15766007748966    1.39124800669877   -0.58907486661145
C        -2.29852448835514    2.56714492075534   -0.58005535108470
C        -2.95399808848674   -0.70653952791091   -1.83209805906575
C        -2.08367533562040   -1.52547820239919   -2.75870638737706
C        -1.56863710650602   -2.60354407650421   -1.82925028662340
C        -2.30535361247188   -2.57691964614911   -0.61092345647941
C        -3.15677026919509   -1.41463400000633   -0.61574092977547
C        -0.97187399403487   -0.71521096531055   -3.31933132859278
C        -0.97539961120106    0.70319976732269   -3.29145968007756
C         0.39793525640541    1.16589699648844   -3.30108291810355
C         1.24026896897105    0.00521951971493   -3.30245912659073
C         0.37600360256598   -1.15616251107196   -3.29610711611564
Cl       -1.94488455269375   -0.00510377847089    5.24675160871951
Cl       -3.12822029871231    3.63014709478973    2.87686840577406