62
 energy: -137.510811269365 gnorm: 0.148778470331 xtb: 6.4.1 (a3dbbd7)
C        -1.29770965891222    0.00000000000000    3.53163224767276
C        -0.37107604425475   -1.17478800586359    3.31058196643012
C         0.97979757550459   -0.72157705231961    3.28110534952822
C         0.97979757550459    0.72157705231961    3.28110534952822
C        -0.37107604425475    1.17478800586360    3.31058196643013
C         2.33544184946295   -2.58264348698296    0.58346340581249
C         3.18207169571150   -1.41543014636129    0.58234433372313
C         2.94373959867916   -0.69404060100004    1.80708186552027
C         1.95046398470883   -1.41556779135961    2.56176558167067
C         1.57767488865866   -2.57871801508103    1.80912454278211
C         3.18207169571150    1.41543014636129    0.58234433372313
C         2.33544184946295    2.58264348698296    0.58346340581249
C         1.57767488865866    2.57871801508103    1.80912454278211
C         1.95046398470883    1.41556779135961    2.56176558167066
C         2.94373959867916    0.69404060100004    1.80708186552027
C        -0.36119281684147    3.44519252612879    0.58582996047390
C        -1.73469290191499    3.00153459982720    0.58916793337350
C        -1.97220713510261    2.29308475607878    1.81059639720294
C        -0.73400332666893    2.27691900303500    2.56853480078419
C         0.25309257506893    2.99789064535074    1.80898867763471
C        -3.39649784746455    0.71758744312072    0.57410478167568
C        -3.39649784746455   -0.71758744312072    0.57410478167568
C        -2.77168037603652   -1.14964415915414    1.80664876434809
C        -2.42168465399864    0.00000000000000    2.56054627302143
C        -2.77168037603652    1.14964415915414    1.80664876434809
C        -1.73469290191499   -3.00153459982719    0.58916793337351
C        -0.36119281684148   -3.44519252612879    0.58582996047390
C         0.25309257506893   -2.99789064535073    1.80898867763471
C        -0.73400332666892   -2.27691900303499    2.56853480078419
C        -1.97220713510261   -2.29308475607878    1.81059639720295
C        -0.24585893810850   -3.00970705822685   -1.82232538763502
C         0.74439012833927   -2.28841876480361   -2.57822875384061
C         1.97268106729833   -2.28861170675520   -1.82114897801170
C         1.74031203428013   -3.00832022201671   -0.59623578829480
C         0.36724813466371   -3.45114129717027   -0.59443426078026
C         2.79027372790168   -1.16551010025889   -1.82330670861298
C         2.41077011246349    0.00000000000000   -2.58030971859023
C         2.79027372790168    1.16551010025889   -1.82330670861298
C         3.40598095600767    0.72109250237888   -0.59875668403540
C         3.40598095600767   -0.72109250237888   -0.59875668403540
C         1.97268106729833    2.28861170675520   -1.82114897801170
C         0.74439012833927    2.28841876480360   -2.57822875384062
C        -0.24585893810850    3.00970705822685   -1.82232538763502
C         0.36724813466371    3.45114129717027   -0.59443426078026
C         1.74031203428013    3.00832022201671   -0.59623578829480
C        -1.56847069976934    2.58049680433801   -1.82122736601016
C        -1.94730857051169    1.41533687195356   -2.58360676406823
C        -2.94243160962768    0.69434475341889   -1.82977489504240
C        -3.17479380115303    1.41444285760430   -0.60326970185865
C        -2.32688654321742    2.58113588269429   -0.60086409487791
C        -2.94243160962768   -0.69434475341889   -1.82977489504240
C        -1.94730857051169   -1.41533687195356   -2.58360676406823
C        -1.56847069976934   -2.58049680433801   -1.82122736601016
C        -2.32688654321742   -2.58113588269429   -0.60086409487790
C        -3.17479380115303   -1.41444285760429   -0.60326970185865
C        -0.99138524268633   -0.72097607833148   -3.31029871234527
C        -0.99138524268633    0.72097607833148   -3.31029871234528
C         0.38054100031802    1.16548515734434   -3.30884687187952
C         1.22668597234242    0.00000000000000   -3.30783368151334
C         0.38054100031802   -1.16548515734434   -3.30884687187952
Cl       -1.93737486741132   -0.00000000000005    5.25509316806359
Cl        0.57200863761652    1.74871057418710   -5.01157652071281
62
 energy: -137.536119885474 gnorm: 0.071774752958 xtb: 6.4.1 (a3dbbd7)
C        -1.29832282535032    0.00311084696815    3.53184553215525
C        -0.37288547532491   -1.17278135904349    3.30931284083491
C         0.97953318529527   -0.72199865165168    3.28143441969984
C         0.98133584405006    0.72068445221108    3.28279417774936
C        -0.36974100690207    1.17627742583291    3.31018320968429
C         2.33340707928189   -2.58243579407632    0.58485958306613
C         3.18089852108015   -1.41468419088870    0.58343556962011
C         2.94589088188487   -0.69451769320961    1.80864976778819
C         1.94918918079024   -1.41584616689426    2.56166188492040
C         1.57654292709153   -2.57799261106239    1.80954556840989
C         3.18414756165623    1.41724069020587    0.58767183935698
C         2.34271642580085    2.58731691426566    0.59383941173882
C         1.58304066078412    2.58080239775682    1.81682409348561
C         1.95359359766811    1.41377182363085    2.56589165839876
C         2.94708413340547    0.69237544066058    1.81163278234187
C        -0.35623580878003    3.44745395181315    0.59322719124218
C        -1.73322538195740    3.00250471652464    0.59595450355451
C        -1.96815192144275    2.29839996211607    1.80885732688350
C        -0.73025315218628    2.27909382124750    2.56978979432924
C         0.25914208860459    3.00051363422217    1.81558052151136
C        -3.39589790056021    0.71337964395860    0.57342501640236
C        -3.39721258417156   -0.72247969604402    0.57394126809065
C        -2.77381891414277   -1.15179068188358    1.80423239807660
C        -2.42072029977907    0.00639251126395    2.55863222909327
C        -2.76864682249678    1.14753603158148    1.80732730416114
C        -1.73749275574574   -3.00259351128564    0.58947060735841
C        -0.36388242104867   -3.44596171133452    0.58788057585169
C         0.24940426889412   -2.99654409233217    1.80966080599870
C        -0.73599713628158   -2.27444984448292    2.56822801899411
C        -1.97750289890255   -2.29153921541252    1.81073923192039
C        -0.24712086033986   -3.01777789915789   -1.82055554541403
C         0.74719388065481   -2.29617483998823   -2.57367688260520
C         1.97315258806135   -2.29554478574701   -1.81997679502762
C         1.73862804262617   -3.01067962999577   -0.59445024227415
C         0.36525987999251   -3.45488918860553   -0.59266142552818
C         2.79065802078065   -1.16874517347362   -1.82065315865327
C         2.40256115895018   -0.00493324528153   -2.56911288009414
C         2.78763342049192    1.17022617800419   -1.81546368501451
C         3.40433302522587    0.72281520671156   -0.59582500532891
C         3.40463275111239   -0.72045932590981   -0.59747828293119
C         1.96936859722629    2.29198625397227   -1.80490203482583
C         0.74561911335221    2.31173399087440   -2.56600124653788
C        -0.23900773854830    3.00377194119091   -1.80931425151501
C         0.37349172026470    3.45750243653594   -0.58180445451155
C         1.74598105098706    3.01642827665863   -0.58272154375772
C        -1.57291799934469    2.57573337350372   -1.81118543187127
C        -1.95073107368917    1.40221981706506   -2.57151927356292
C        -2.95187564816892    0.68543677594894   -1.82929097871127
C        -3.17499306525411    1.40824177004956   -0.60229056075285
C        -2.32611953005395    2.57857641236785   -0.60198984197962
C        -2.94835734438056   -0.70389387397963   -1.82919721710267
C        -1.95147187147401   -1.42362428752769   -2.58041741600843
C        -1.56840744224307   -2.58720577575179   -1.82072766106512
C        -2.32981091780814   -2.58586718639911   -0.59959215312354
C        -3.17892138781275   -1.42228163808940   -0.60341508082996
C        -0.99205075981229   -0.72473467744688   -3.30110980169729
C        -1.00348647503705    0.70912949511160   -3.29717504436601
C         0.38787767898620    1.19777505675683   -3.40779035619788
C         1.22792895553983   -0.01309735663204   -3.29583918450740
C         0.38148640924050   -1.16866207807477   -3.29753615364651
Cl       -1.93645099014339    0.00098274437087    5.25570474991871
Cl        0.58312002799433    1.79348276246781   -5.14698173791966
62
 energy: -137.543418346076 gnorm: 0.019557704743 xtb: 6.4.1 (a3dbbd7)
C        -1.29747041195714    0.00540159592493    3.53184110727719
C        -0.37331004307477   -1.17149626004874    3.30973183568567
C         0.98020051295336   -0.72207968436149    3.28508979920943
C         0.98353035451017    0.72052012687704    3.28735832212642
C        -0.36763560678264    1.17832136268513    3.31251522798485
C         2.33090402514510   -2.58216920584961    0.58791039908711
C         3.17920997509145   -1.41389192117220    0.58665323483830
C         2.94895333607625   -0.69534000840218    1.81335093466908
C         1.94846650502223   -1.41608571847197    2.56450570297187
C         1.57525558984801   -2.57658982127035    1.81177105118324
C         3.18697141148441    1.41893478561964    0.59410341023622
C         2.34876876065828    2.58909368196881    0.60248499428404
C         1.58928199197736    2.58383568185688    1.82560144671343
C         1.95690243028548    1.41298961330753    2.57245265162729
C         2.94865881739353    0.69081979066373    1.81710405980256
C        -0.35032673800540    3.44547657170111    0.59866637417409
C        -1.73043671429395    3.00058130355679    0.60394868027669
C        -1.96244370400884    2.30216087302347    1.80718295551951
C        -0.72553036269200    2.28173873389523    2.57398929626845
C         0.26569917270557    3.00384353916812    1.82363853716640
C        -3.39240650779224    0.70720937447597    0.57356150646535
C        -3.40184215545448   -0.72994752251019    0.57461208337956
C        -2.77629671913793   -1.15662494312522    1.80057000830399
C        -2.41808542358803    0.01226481872954    2.55569523271626
C        -2.76603857304088    1.14303715080129    1.81093418312389
C        -1.74006872492744   -3.00644445815870    0.59033525797082
C        -0.36636824861283   -3.44770260747771    0.59143157557126
C         0.24615943538955   -2.99492372444966    1.81195553775779
C        -0.73650265062289   -2.27269211501565    2.57023252832274
C        -1.98083679775964   -2.28995251718252    1.81084507184946
C        -0.24907229756454   -3.02191717149080   -1.81785178189716
C         0.74721117534689   -2.29543594368765   -2.56909325713180
C         1.96796323783145   -2.29653160210254   -1.81628868603654
C         1.73640320938957   -3.01244279942867   -0.59141700580782
C         0.36274985103787   -3.45766369701797   -0.58971199311037
C         2.78175661276857   -1.16456069291597   -1.81588298247628
C         2.39153946680129   -0.00512248239300   -2.56658807393565
C         2.78629287931146    1.17485896791144   -1.81091377196742
C         3.40033354954097    0.72492230657399   -0.59223958036483
C         3.39962902278860   -0.71875497053648   -0.59456796827096
C         1.96367537160591    2.28827475967927   -1.79706405596538
C         0.73884098310725    2.31405681676255   -2.55429365472092
C        -0.23155553113351    2.99014278678349   -1.80664241899371
C         0.37764350506092    3.45290003667278   -0.57392036505425
C         1.74910410228278    3.01522906458131   -0.57497519935678
C        -1.57848543918579    2.57333203846687   -1.80572539450160
C        -1.94877790657251    1.39369091402648   -2.57033462008811
C        -2.94797570841967    0.67666025432590   -1.82647601919405
C        -3.17051522751643    1.39947845521103   -0.59966522835536
C        -2.31984826929165    2.57336087840358   -0.60485834911746
C        -2.95161755383775   -0.71297270263613   -1.82825811123443
C        -1.95269179740257   -1.42770219297999   -2.57644274654163
C        -1.56877590722852   -2.59259462576992   -1.82021866722234
C        -2.33341407201965   -2.59229477541405   -0.59758001982839
C        -3.18599570369939   -1.43225546273484   -0.60402174050252
C        -0.99116857177499   -0.71924205321382   -3.29059864733671
C        -1.00883349083235    0.70699195722028   -3.29955655236658
C         0.39340811861644    1.22719678093942   -3.50045938475273
C         1.22749886101734   -0.01330554217082   -3.29612919474186
C         0.38261540513071   -1.16152818503880   -3.28861987147033
Cl       -1.93912976035615    0.00698785203783    5.25215626552038
Cl        0.59097121699932    1.83466310736330   -5.25025537446376
62
 energy: -137.543856916806 gnorm: 0.010704529690 xtb: 6.4.1 (a3dbbd7)
C        -1.29711189187165    0.00588217976555    3.53311632644101
C        -0.37332978771548   -1.17094174612905    3.31054163897651
C         0.98038980110266   -0.72169840859266    3.28726789587835
C         0.98523765797302    0.72102285067516    3.29026553561138
C        -0.36628283880790    1.17874271524291    3.31413535757338
C         2.32923750416909   -2.58159125524297    0.58958934158602
C         3.17744698961882   -1.41322252650576    0.58811895370505
C         2.94933929354594   -0.69553171777491    1.81566423502805
C         1.94803419456810   -1.41604753236858    2.56634004260558
C         1.57420893234570   -2.57620067854802    1.81340481986895
C         3.18909418237721    1.41937749938248    0.59674251260288
C         2.35080783297775    2.58894119355991    0.60468678512929
C         1.59225847750815    2.58500001116005    1.82879661999203
C         1.95933140509681    1.41354847592861    2.57598534367409
C         2.95016312011248    0.69076128985364    1.81968972924230
C        -0.34779546767312    3.44338003912187    0.60004751178766
C        -1.72883681148950    2.99841752442943    0.60652865908093
C        -1.95998123689697    2.30186469455394    1.80688227842624
C        -0.72352594200136    2.28233161548315    2.57621469325287
C         0.26832028605467    3.00481944985600    1.82659513697338
C        -3.39172136021628    0.70480188501727    0.57355052739562
C        -3.40247328958690   -0.73271296048545    0.57542873019036
C        -2.77819828498707   -1.15978330141355    1.80084084522006
C        -2.41666384140728    0.01277437157372    2.55514548904784
C        -2.76476457902008    1.14025158402375    1.81210136949520
C        -1.74134446847989   -3.00908961499779    0.59138574223034
C        -0.36732181930095   -3.44895475369674    0.59324339546809
C         0.24502447659177   -2.99485268532554    1.81357749779488
C        -0.73669258702626   -2.27241471121880    2.57165800635889
C        -1.98180942220183   -2.29069875975314    1.81184053664701
C        -0.24994202365866   -3.02131205216293   -1.81607655598427
C         0.74542761374188   -2.29229088473266   -2.56699473999705
C         1.96437142785104   -2.29405658450614   -1.81381860314548
C         1.73513307222911   -3.01229610852065   -0.58966507818406
C         0.36180236116929   -3.45823810026093   -0.58796893596421
C         2.77533330014107   -1.16017176878039   -1.81363415244970
C         2.38925643239123   -0.00259724674251   -2.56986456951520
C         2.78796545560742    1.17661398629665   -1.81083918731115
C         3.39938543348524    0.72603583719147   -0.59085608602261
C         3.39565246416512   -0.71714081514935   -0.59296118683502
C         1.96323083987211    2.28675699785929   -1.79873148600750
C         0.73616955028973    2.30947570230927   -2.55508741000587
C        -0.22960550861777    2.98513469512024   -1.80959827990546
C         0.37845136619141    3.44753579081731   -0.57257915118195
C         1.74960765018735    3.01205402792704   -0.57436369201647
C        -1.58130881984915    2.57385785084628   -1.80562960885824
C        -1.94819216416277    1.39336055354795   -2.57423801880216
C        -2.94366489371145    0.67400068574555   -1.82583017772184
C        -3.16821440034859    1.39579234324372   -0.59895714326709
C        -2.31696166007762    2.57090041741884   -0.60572878455019
C        -2.95103002913142   -0.71544318925126   -1.82781035526934
C        -1.95161685351401   -1.42778416667434   -2.57594898384087
C        -1.56913200866042   -2.59338813102217   -1.81951815132721
C        -2.33503437172053   -2.59521371861263   -0.59665296207945
C        -3.18771938704590   -1.43551545047948   -0.60384839320009
C        -0.99116182549074   -0.71626940224269   -3.29061596370626
C        -1.00923389169284    0.71001457204447   -3.30886754594906
C         0.39414253796138    1.23280696688304   -3.52332740148241
C         1.22808515398187   -0.00956725213450   -3.30528322608117
C         0.38264060977631   -1.15756407702621   -3.28793526370898
Cl       -1.94273905996122    0.00965131228545    5.25035122813093
Cl        0.59100337183336    1.84539105537491   -5.26492713576919
62
 energy: -137.544003695322 gnorm: 0.005046237113 xtb: 6.4.1 (a3dbbd7)
C        -1.29692917702298    0.00597323553327    3.53382417020658
C        -0.37312817621476   -1.17059847742690    3.31054935499387
C         0.98055449281170   -0.72132706141147    3.28780699088553
C         0.98612283721479    0.72147376631598    3.29112264883063
C        -0.36567127761099    1.17903693504276    3.31446103581579
C         2.32861046710938   -2.58131424732247    0.59027162970378
C         3.17688076463729   -1.41306070824848    0.58861554565139
C         2.94959138127753   -0.69561982796234    1.81647863187528
C         1.94806641434644   -1.41598273092548    2.56690696330414
C         1.57391063282298   -2.57614544496134    1.81406274288576
C         3.19068046986987    1.41951469683875    0.59781496632753
C         2.35181790663472    2.58879562736410    0.60523548246962
C         1.59352111137510    2.58554925440551    1.82958437529640
C         1.96058501833722    1.41402589031784    2.57715959724386
C         2.95122044097597    0.69086166402765    1.82056245693868
C        -0.34673505661809    3.44256292824669    0.60030781335433
C        -1.72854264158483    2.99749828400571    0.60783461700300
C        -1.95917076967410    2.30201721205052    1.80652539468347
C        -0.72281017138997    2.28284138708466    2.57714971742377
C         0.26930698537071    3.00533466677300    1.82746112389298
C        -3.39181202810783    0.70385356831065    0.57332101414822
C        -3.40298078123441   -0.73388453718777    0.57587423398685
C        -2.77965700114757   -1.16165923315101    1.80084966617243
C        -2.41585896660702    0.01323935888638    2.55455347389797
C        -2.76462019821427    1.13884655769519    1.81282130195861
C        -1.74191402074048   -3.01060643597179    0.59175008033489
C        -0.36763563752617   -3.44983038476607    0.59391035575618
C         0.24473864147478   -2.99488671348786    1.81414731810645
C        -0.73653967300804   -2.27227962035584    2.57207003221628
C        -1.98196107381302   -2.29092304989007    1.81199410462241
C        -0.25034253475424   -3.02047176542805   -1.81490267078434
C         0.74418379719860   -2.29023012445760   -2.56546972242117
C         1.96273205894558   -2.29273328041079   -1.81249087541464
C         1.73480412779559   -3.01245589953575   -0.58879727828123
C         0.36170289566138   -3.45875571130276   -0.58712386815543
C         2.77170608821531   -1.15785905542257   -1.81252830021134
C         2.38827674004137   -0.00124295700606   -2.57140446945366
C         2.79007309516172    1.17726327322213   -1.81073960490856
C         3.39991362267439    0.72644716398863   -0.59021240800207
C         3.39343839551904   -0.71631467657580   -0.59226270612275
C         1.96365168898312    2.28550429563216   -1.80021817710723
C         0.73440598516301    2.30466941863040   -2.55555647574470
C        -0.22874636465747    2.98211664529788   -1.81212775358064
C         0.37859319996489    3.44367283845904   -0.57210770440055
C         1.74949665615394    3.00969771421838   -0.57458803292111
C        -1.58372136202826    2.57499912187164   -1.80558079338217
C        -1.94782286837042    1.39350445244168   -2.57629143941252
C        -2.94105189676749    0.67278783902236   -1.82559934331063
C        -3.16689373788198    1.39387286587969   -0.59873820708974
C        -2.31594557303791    2.57029933324357   -0.60645410083659
C        -2.95086493382147   -0.71640166198984   -1.82757390943024
C        -1.95070484220677   -1.42742504001799   -2.57537844176529
C        -1.56932650407319   -2.59345264527744   -1.81890207145016
C        -2.33609228187454   -2.59651582681884   -0.59618152460171
C        -3.18886968444619   -1.43694885849738   -0.60367788178985
C        -0.99113928255382   -0.71453877864568   -3.29008736931053
C        -1.00883045368024    0.71243047668644   -3.31422454127910
C         0.39447233231081    1.23474527810003   -3.53266280198244
C         1.22842205227199   -0.00682487209358   -3.31053939523776
C         0.38262115593536   -1.15528411019161   -3.28688973604637
Cl       -1.94483504558614    0.01075174404339    5.24843533669230
Cl        0.59019482859154    1.85009681729165   -5.26257201696885
62
 energy: -137.544047236997 gnorm: 0.002849611578 xtb: 6.4.1 (a3dbbd7)
C        -1.29697518942295    0.00602448879972    3.53406401836466
C        -0.37296501487969   -1.17038596755980    3.31022470306733
C         0.98061792807650   -0.72110056534218    3.28741889884534
C         0.98619516204030    0.72168479740192    3.29065586071132
C        -0.36563601910687    1.17923763377102    3.31405590717033
C         2.32873654529242   -2.58132587292611    0.59018779904004
C         3.17719462574655   -1.41321891011947    0.58845042777739
C         2.94969765081439   -0.69561184497229    1.81625523639812
C         1.94824257396069   -1.41586984733239    2.56665223427464
C         1.57404851689317   -2.57616400380396    1.81396759522663
C         3.19120115531766    1.41942631591547    0.59768364707404
C         2.35201607170703    2.58877397828117    0.60492351595551
C         1.59352538537048    2.58555278134050    1.82901148748531
C         1.96067397927020    1.41415160925130    2.57671908396299
C         2.95152078675134    0.69093685482668    1.82024818738151
C        -0.34676479577613    3.44275398498153    0.59998786661628
C        -1.72901456505336    2.99764352340773    0.60804593723145
C        -1.95937676793426    2.30250655073196    1.80622813033464
C        -0.72287016315797    2.28308809605640    2.57699028887548
C         0.26926325495298    3.00539603821231    1.82701297557971
C        -3.39217685923757    0.70395125263180    0.57309862400172
C        -3.40318813452289   -0.73388046669911    0.57583201825457
C        -2.78010801136588   -1.16197424173055    1.80053961430163
C        -2.41568683257520    0.01370632699794    2.55416766543636
C        -2.76495794792927    1.13874054960087    1.81304552684156
C        -1.74187508373220   -3.01073604486318    0.59161818235587
C        -0.36756079667455   -3.44994425400573    0.59378678572032
C         0.24486796201596   -2.99480738086189    1.81401668596833
C        -0.73634877348416   -2.27211853000072    2.57187409909094
C        -1.98169256489070   -2.29056902476141    1.81163397246167
C        -0.25032414717490   -3.02013625975567   -1.81467776134969
C         0.74392287181583   -2.28989702750358   -2.56507053958116
C         1.96281765998911   -2.29279807827509   -1.81238845336571
C         1.73504729524133   -3.01276796202525   -0.58877206130158
C         0.36197061339312   -3.45896741211904   -0.58708667701409
C         2.77118387663915   -1.15772979438093   -1.81252299359808
C         2.38802370245154   -0.00129772115510   -2.57124661807666
C         2.79099221003427    1.17709507933524   -1.81059134972902
C         3.40076792731753    0.72631371749161   -0.59029785431523
C         3.39328449160989   -0.71632342039687   -0.59236920287036
C         1.96380406527337    2.28474685332762   -1.80039043138897
C         0.73354984983161    2.30203982709676   -2.55490106230623
C        -0.22862724965341    2.98109628779437   -1.81293860172398
C         0.37849026739311    3.44256587687098   -0.57212712329771
C         1.74922172397546    3.00901648902499   -0.57486095721689
C        -1.58478436357991    2.57562170543109   -1.80541521353013
C        -1.94767222768896    1.39335638726120   -2.57626659643172
C        -2.94057168479581    0.67258551439903   -1.82561511793670
C        -3.16679529583973    1.39358047804877   -0.59882092197773
C        -2.31626365334380    2.57075164637073   -0.60687026614690
C        -2.95111086852921   -0.71648952698740   -1.82762656424305
C        -1.95045671071341   -1.42728496178364   -2.57515169833779
C        -1.56933486670304   -2.59336480410856   -1.81875846243887
C        -2.33633107931924   -2.59649264326979   -0.59618820516081
C        -3.18926982671378   -1.43708035354284   -0.60371478863810
C        -0.99108800709620   -0.71422740397414   -3.28932421138135
C        -1.00839930628792    0.71304524581278   -3.31460225341178
C         0.39468707261393    1.23507392650750   -3.53391388695430
C         1.22834192440387   -0.00611453244378   -3.31086736444738
C         0.38264353801670   -1.15486271391275   -3.28604288210959
Cl       -1.94503585132008    0.01065335908238    5.24734910989120
Cl        0.58985423888507    1.85113496873692   -5.25474741013972
62
 energy: -137.544059714249 gnorm: 0.001749759993 xtb: 6.4.1 (a3dbbd7)
C        -1.29710303290269    0.00609799442912    3.53420952700576
C        -0.37290936805870   -1.17029969802395    3.31004970568259
C         0.98061365430157   -0.72101794876288    3.28704973169584
C         0.98600744926036    0.72173414883053    3.29012262961290
C        -0.36575393844816    1.17934578975056    3.31372037798038
C         2.32897719828012   -2.58142282344537    0.58996657164347
C         3.17754642049593   -1.41336881475134    0.58821036920929
C         2.94969592753817   -0.69556668362120    1.81590038639542
C         1.94833745330878   -1.41576991738225    2.56634108762515
C         1.57420364484580   -2.57615540776575    1.81374600987634
C         3.19109929638140    1.41930924823030    0.59728364657620
C         2.35191983160536    2.58878315182380    0.60456966092403
C         1.59324600365886    2.58541984312807    1.82843455519302
C         1.96039931339662    1.41411387364462    2.57611583956173
C         2.95143228762871    0.69096941148729    1.81978515711734
C        -0.34706337748178    3.44308193531553    0.59967786774578
C        -1.72945621053829    2.99799309292542    0.60784357825064
C        -1.95971717680007    2.30286426717037    1.80609220995685
C        -0.72305503845438    2.28310728700957    2.57658655107921
C         0.26902579321218    3.00529228518926    1.82646344313376
C        -3.39236848371429    0.70424087658827    0.57300455857212
C        -3.40314891588213   -0.73359840602806    0.57566576272591
C        -2.77997478918132   -1.16166887655496    1.80031060817372
C        -2.41577783098173    0.01395298189030    2.55408607539579
C        -2.76517847141897    1.13902731795193    1.81303332516667
C        -1.74169329904377   -3.01038554035095    0.59147856409612
C        -0.36744362085417   -3.44973044527974    0.59357457614516
C         0.24501116505229   -2.99471412380738    1.81382904852742
C        -0.73626934708131   -2.27201950386726    2.57168774067552
C        -1.98146566725008   -2.29022944596924    1.81138022004816
C        -0.25020526124491   -3.02016301633318   -1.81485292215399
C         0.74409553878070   -2.29028627134597   -2.56526526990645
C         1.96330525518866   -2.29325031602876   -1.81268383461123
C         1.73527558579500   -3.01296020512054   -0.58898031710246
C         0.36214163224819   -3.45894934004948   -0.58725509642093
C         2.77180372164819   -1.15830319102435   -1.81284514921393
C         2.38810946384003   -0.00178780660330   -2.57087110637046
C         2.79094936560030    1.17675389957283   -1.81058053624058
C         3.40118505122539    0.72608418673618   -0.59059712748592
C         3.39383796178743   -0.71658905811658   -0.59265183412786
C         1.96365169062855    2.28443513811690   -1.79999754941970
C         0.73326533456100    2.30126302238860   -2.55403621718908
C        -0.22878824458762    2.98112604454271   -1.81275730942054
C         0.37839676237981    3.44291235703743   -0.57228218883234
C         1.74906231982494    3.00919676225912   -0.57498268290536
C        -1.58490473545141    2.57568241752135   -1.80534635215514
C        -1.94770183469348    1.39313053577174   -2.57579550153949
C        -2.94093415093321    0.67270662479038   -1.82568535199502
C        -3.16715913198965    1.39387297221993   -0.59895076854584
C        -2.31680217631351    2.57120379903056   -0.60701924910966
C        -2.95132651038644   -0.71637150961639   -1.82774522964680
C        -1.95056809006794   -1.42734843673860   -2.57521467182441
C        -1.56929580226593   -2.59333858396520   -1.81884210360062
C        -2.33618303659476   -2.59615089971969   -0.59631192100278
C        -3.18921471609858   -1.43685459705817   -0.60381380920288
C        -0.99107032224428   -0.71450349148863   -3.28902560546683
C        -1.00828511708379    0.71272753604988   -3.31348618121470
C         0.39487174976672    1.23513411842704   -3.53331254266775
C         1.22820965513544   -0.00647747504850   -3.30977505325150
C         0.38267539768526   -1.15522008373748   -3.28586282940626
Cl       -1.94451871648713    0.01038183461692    5.24707360777828
Cl        0.59012675806421    1.85126773734577   -5.24888812626446
62
 energy: -137.544062794083 gnorm: 0.000511102235 xtb: 6.4.1 (a3dbbd7)
C        -1.29723021788082    0.00615199358751    3.53439210534698
C        -0.37293855196329   -1.17030125733039    3.31006803370085
C         0.98056013396420   -0.72102704331505    3.28690541110447
C         0.98581233661999    0.72171039036712    3.28985407126484
C        -0.36586496693688    1.17938294967743    3.31361978122640