156
 energy: -481.438158587417 gnorm: 11.756492791364 xtb: 6.4.1 (a3dbbd7)
C        -1.23626340000000    0.00000000000000    3.32997640000000
C        -0.38202640000000   -1.17575640000000    3.32997640000000
C         1.00015810000000   -0.72665740000000    3.32997640000000
C         1.00015810000000    0.72665740000000    3.32997640000000
C        -0.38202640000000    1.17575640000000    3.32997640000000
C         2.34433560000000   -2.60145750000000    0.59464210000000
C         3.19857260000000   -1.42570110000000    0.59464210000000
C         2.96246730000000   -0.69904370000000    1.83090550000000
C         1.96230920000000   -1.42570110000000    2.59495830000000
C         1.58028280000000   -2.60145750000000    1.83090550000000
C         3.19857260000000    1.42570110000000    0.59464210000000
C         2.34433560000000    2.60145750000000    0.59464210000000
C         1.58028280000000    2.60145750000000    1.83090550000000
C         1.96230920000000    1.42570110000000    2.59495830000000
C         2.96246730000000    0.69904370000000    1.83090550000000
C        -0.36750900000000    3.48258920000000    0.59464210000000
C        -1.74969350000000    3.03349030000000    0.59464210000000
C        -1.98579880000000    2.30683290000000    1.83090550000000
C        -0.74953540000000    2.30683290000000    2.59495830000000
C         0.25062270000000    3.03349030000000    1.83090550000000
C        -3.42570570000000    0.72665740000000    0.59464210000000
C        -3.42570570000000   -0.72665740000000    0.59464210000000
C        -2.80757400000000   -1.17575640000000    1.83090550000000
C        -2.42554760000000    0.00000000000000    2.59495830000000
C        -2.80757400000000    1.17575640000000    1.83090550000000
C        -1.74969350000000   -3.03349030000000    0.59464210000000
C        -0.36750900000000   -3.48258920000000    0.59464210000000
C         0.25062270000000   -3.03349030000000    1.83090550000000
C        -0.74953540000000   -2.30683290000000    2.59495830000000
C        -1.98579880000000   -2.30683290000000    1.83090550000000
C        -0.25062270000000   -3.03349030000000   -1.83090550000000
C         0.74953540000000   -2.30683290000000   -2.59495830000000
C         1.98579880000000   -2.30683290000000   -1.83090550000000
C         1.74969350000000   -3.03349030000000   -0.59464210000000
C         0.36750900000000   -3.48258920000000   -0.59464210000000
C         2.80757400000000   -1.17575640000000   -1.83090550000000
C         2.42554760000000    0.00000000000000   -2.59495830000000
C         2.80757400000000    1.17575640000000   -1.83090550000000
C         3.42570570000000    0.72665740000000   -0.59464210000000
C         3.42570570000000   -0.72665740000000   -0.59464210000000
C         1.98579880000000    2.30683290000000   -1.83090550000000
C         0.74953540000000    2.30683290000000   -2.59495830000000
C        -0.25062270000000    3.03349030000000   -1.83090550000000
C         0.36750900000000    3.48258920000000   -0.59464210000000
C         1.74969350000000    3.03349030000000   -0.59464210000000
C        -1.58028280000000    2.60145750000000   -1.83090550000000
C        -1.96230920000000    1.42570110000000   -2.59495830000000
C        -2.96246730000000    0.69904370000000   -1.83090550000000
C        -3.19857260000000    1.42570110000000   -0.59464210000000
C        -2.34433560000000    2.60145750000000   -0.59464210000000
C        -2.96246730000000   -0.69904370000000   -1.83090550000000
C        -1.96230920000000   -1.42570110000000   -2.59495830000000
C        -1.58028280000000   -2.60145750000000   -1.83090550000000
C        -2.34433560000000   -2.60145750000000   -0.59464210000000
C        -3.19857260000000   -1.42570110000000   -0.59464210000000
C        -1.00015810000000   -0.72665740000000   -3.32997640000000
C        -1.00015810000000    0.72665740000000   -3.32997640000000
C         0.38202640000000    1.17575640000000   -3.32997640000000
C         1.23626340000000    0.00000000000000   -3.32997640000000
C         0.38202640000000   -1.17575640000000   -3.32997640000000
C        -1.76086815247998    0.00000000000000    4.78849957557021
F        -0.76911826531252    0.00000000000000    5.67468926254662
F        -2.50968386795825   -1.06794314680471    5.04863888333743
F        -2.50968386795825    1.06794314680471    5.04863888333743
C        -0.54413818249354   -1.67468516033722    4.78849957845317
F        -0.23767107904745   -0.73147481112462    5.67468925997942
F        -1.79120914301982   -2.05683909935453    5.04863874564184
F         0.24013968171955   -2.71686350152345    5.04863903502921
C         1.42457227037960   -1.03501233722714    4.78849957248258
F         0.62223011468481   -0.45207589682711    5.67468926529602
F         1.40265511061956   -2.33913928186680    5.04863905501621
F         2.65809836182651   -0.61117154425495    5.04863869666890
C         1.42457227037960    1.03501233722714    4.78849957248258
F         0.62223011468481    0.45207589682711    5.67468926529602
F         2.65809836182651    0.61117154425495    5.04863869666891
F         1.40265511061956    2.33913928186680    5.04863905501621
C        -0.54413818249354    1.67468516033722    4.78849957845317
F        -0.23767107904745    0.73147481112462    5.67468925997942
F        -1.79120914301982    2.05683909935453    5.04863874564184
F         0.24013968171955    2.71686350152345    5.04863903502921
C         3.37204091334889   -3.72927672645244    0.86730596148276
F         4.06564647311729   -3.51265957144658    1.98125763710227
F         4.25569947457670   -3.84739838595791   -0.11965645964809
F         2.78580317558591   -4.91533944031226    1.00324916143780
C         4.25247495652193   -1.01957928511255    2.62817407757680
F         4.45020405360863   -2.32910962270744    2.75037677428969
F         5.33704498641440   -0.51936149478958    2.04303305824604
F         4.21414295278388   -0.51936236815955    3.85992636334025
C        -1.08016271022039    3.32439912180418    3.71645041587937
F        -1.46215754230407    4.50005299330749    3.22571838851551
F        -2.06425285383526    2.89718320022386    4.50255037491024
F        -0.03290491502765    3.55721032900471    4.50254840735999
C        -4.92005227074660   -1.03501232949151    0.86730592957069
F        -5.35386609588658   -0.45207588830481    1.98125865327758
F        -5.70437742108406   -0.61117153086585   -0.11965558739362
F        -5.14292645153878   -2.33913927311179    1.00324714649869
C        -2.84103082519036   -3.32439911178427    2.62817407941587
F        -2.23127406184888   -4.50005340761388    2.75037746012492
F        -4.01248672303643   -3.55720929213525    2.04303264409737
F        -3.10404037880941   -2.89718378306488    3.85992609894427
C         2.50473491433418   -4.35941144902977   -0.86730593917895
F         2.08438487052912   -4.95213043104453   -1.98125838386969
F         3.81390519137296   -4.16837996597314   -1.00324768478856
F         2.34400857369757   -5.23632280881804    0.11965581818547
C         0.53602450593361   -4.99908416128281   -0.86730591619822
F         1.22448605650957   -5.23152837615597   -1.98125850960180
F        -0.63540201352706   -5.61404743764837   -1.00324736766175
F         1.18149064144157   -5.61404773804446    0.11965571789346
C         4.03961820246674   -1.67468514775899   -2.62817407948106
F         4.96930660042402   -0.73147479244130   -2.75037763231443
F         3.71458666614023   -2.05683907990834   -3.85992603200073
F         4.62303373288713   -2.71686348978893   -2.04303253910982
C         4.92005227074660   -1.03501232949151   -0.86730592957069
F         5.35386609588658   -0.45207588830481   -1.98125865327758
F         5.14292645153878   -2.33913927311179   -1.00324714649869
F         5.70437742108406   -0.61117153086585    0.11965558739362
C         2.84103082519036    3.32439911178427   -2.62817407941587
F         2.23127406184888    4.50005340761388   -2.75037746012492
F         3.10404037880941    2.89718378306488   -3.85992609894427
F         4.01248672303643    3.55720929213525   -2.04303264409737
C         1.08016271022039    3.32439912180418   -3.71645041587937
F         1.46215754230407    4.50005299330749   -3.22571838851551
F         2.06425285383526    2.89718320022386   -4.50255037491024
F         0.03290491502765    3.55721032900471   -4.50254840735999
C        -0.34440953624153    4.35941144868709   -2.62817404748705
F         0.83992598883967    4.95213069234126   -2.75037577510431
F        -0.80829780400759    4.16837989546168   -3.85992670963205
F        -1.15529636597892    5.23632261667420   -2.04303359185445
C         2.50473491433418    4.35941144902977   -0.86730593917895
F         2.08438487052912    4.95213043104453   -1.98125838386969
F         3.81390519137296    4.16837996597314   -1.00324768478856
F         2.34400857369757    5.23632280881804    0.11965581818547
C        -4.25247495652193   -1.01957928511255   -2.62817407757680
F        -4.45020405360858   -2.32910962270745   -2.75037677428972
F        -4.21414295278388   -0.51936236815950   -3.85992636334023
F        -5.33704498641440   -0.51936149478961   -2.04303305824600
C        -2.28376457660886   -3.72927671755932   -2.62817408867206
F        -3.59030321655004   -3.51265997057978   -2.75037870097715
F        -1.79618325340526   -3.84739782561576   -3.85992562899768
F        -2.14318168460923   -4.91533956626621   -2.04303190988614
C        -3.37204091334889   -3.72927672645244   -0.86730596148276
F        -4.06564647311728   -3.51265957144662   -1.98125763710229
F        -2.78580317558593   -4.91533944031228   -1.00324916143777
F        -4.25569947457673   -3.84739838595791    0.11965645964807
C        -4.58877084110522   -2.05459160147071   -0.86730597290559
F        -4.59709252483521   -2.78118520641283   -1.98125951001435
F        -5.53562669678859   -1.13053295630600   -1.00324569798425
F        -4.97417519512416   -2.85850196315549    0.11965482382298
C         1.76086815247998    0.00000000000000   -4.78849957557021
F         0.76911826531252    0.00000000000000   -5.67468926254662
F         2.50968386795825    1.06794314680471   -5.04863888333743
F         2.50968386795825   -1.06794314680471   -5.04863888333743
C         0.54413818249354   -1.67468516033722   -4.78849957845317
F         0.23767107904745   -0.73147481112462   -5.67468925997942
F        -0.24013968171955   -2.71686350152345   -5.04863903502921
F         1.79120914301982   -2.05683909935453   -5.04863874564184
156
 energy: -490.360857158827 gnorm: 9.303534109472 xtb: 6.4.1 (a3dbbd7)
C        -1.23569426455321    0.00048374890465    3.32170507487959
C        -0.38239357925356   -1.17688172953172    3.32355986828655
C         1.00077471418323   -0.72738143966533    3.32333537855489
C         1.00047733035505    0.72621842673475    3.32219244285162
C        -0.37956794396825    1.16873297912668    3.31709890433038
C         2.34209543394188   -2.59549146151296    0.59809506900102
C         3.19836940007678   -1.42628057348773    0.59455653008873
C         2.96251310676893   -0.69984430459978    1.83118447354211
C         1.96238050271471   -1.42691949858274    2.59368938656348
C         1.57959227873960   -2.60246884336975    1.83072733990802
C         3.19666445180539    1.42533395419577    0.59660090432619
C         2.34527779185539    2.59907387306063    0.59775405461545
C         1.58098559371589    2.60044066354452    1.83061640468586
C         1.96399902275388    1.42755617659130    2.59137591241991
C         2.96348223259089    0.70303403388534    1.83029128028680
C        -0.36968710041636    3.48255859544367    0.59637806341217
C        -1.74839017364831    3.03398795311064    0.59469175999436
C        -1.98686666266383    2.30785856563925    1.82992992259667
C        -0.74944320021089    2.30595940815005    2.58716998673343
C         0.25063070328213    3.03492161740793    1.82954546826390
C        -3.42634609528216    0.72794921479096    0.59604388179325
C        -3.41901828232079   -0.72248625000235    0.59781376834163
C        -2.80913866343655   -1.17373617207951    1.83179181654610
C        -2.42752466740871    0.00150890272329    2.59237330451322
C        -2.80694796871113    1.17468876999437    1.83072002615805
C        -1.74770781477706   -3.03382969849573    0.59503780427570
C        -0.36793317212149   -3.48288036350324    0.59802495934830
C         0.24991854716363   -3.03279830332280    1.82975314704383
C        -0.74825803591290   -2.30904280358612    2.59286092432016
C        -1.98589729788654   -2.30791890543962    1.83129139691558
C        -0.24924121629624   -3.03407100453553   -1.83110838466395
C         0.74969610310307   -2.30803676101705   -2.59575022176643
C         1.98555927120152   -2.30844141088176   -1.83102299753018
C         1.74733613067210   -3.02846126339299   -0.59638649655585
C         0.36425627311599   -3.47856638552797   -0.59405274242457
C         2.80433184134808   -1.17466265411609   -1.83094902083431
C         2.42727832239105    0.00023658124292   -2.59509753501888
C         2.80873250659148    1.17450823658641   -1.83036216994174
C         3.42694240543686    0.72786113311101   -0.59496403640143
C         3.42333494881953   -0.72473242090645   -0.59276238813709
C         1.98533537822838    2.30068100611675   -1.82783116073250
C         0.74782196551467    2.30132287302683   -2.59407249065802
C        -0.25249577243281    3.03141775115613   -1.82761614818998
C         0.36774406591479    3.48296149903901   -0.59487357725728
C         1.74798250706992    3.03144133981806   -0.59181841326300
C        -1.58348112191014    2.59903808223927   -1.83089553394685
C        -1.96201375572235    1.42578291931312   -2.59402967633558
C        -2.96286021713793    0.70283966501799   -1.83068698307088
C        -3.19733981693633    1.42646934121474   -0.59602450310491
C        -2.34427782363171    2.60065777732059   -0.59537695601868
C        -2.95668255492953   -0.69603114892963   -1.83004098653396
C        -1.96382171667490   -1.42686369999742   -2.59572280236272
C        -1.57681350339063   -2.59847923280048   -1.83052742464286
C        -2.33823346460722   -2.59868575268373   -0.59071983616979
C        -3.19178275798443   -1.42381187089691   -0.59292256776009
C        -0.99961562435039   -0.72395419152674   -3.33092756482391
C        -1.00108578641118    0.72560021743313   -3.33104261921037
C         0.38046843327787    1.17398843785306   -3.33022670333935
C         1.23579954827384    0.00136598139086   -3.32704714967420
C         0.38011989580105   -1.17610922423396   -3.32659494379554
C        -1.77167593189466   -0.00219464662680    4.76705512948452
F        -0.85251165383417   -0.00524443171106    5.70163334776990
F        -2.55341522586671   -1.02103074603884    5.05269060101548
F        -2.56428207063735    1.02340470700521    5.05238846468424
C        -0.55131702069488   -1.69495224571050    4.76597351278068
F        -0.26220273695196   -0.80908671262153    5.70125130211263
F        -1.75730231368830   -2.11134444393913    5.05302525587832
F         0.18055362983423   -2.74287242061862    5.05089227705777
C         1.44219829239812   -1.04711573274864    4.76665289487932
F         0.68886908429977   -0.50060526627145    5.70121430562708
F         1.46615274901259   -2.32517765420135    5.05090098404033
F         2.66198760689813   -0.67500789312843    5.05265518877900
C         1.43290762387483    1.04278592510123    4.76648304026162
F         0.69305989203974    0.49486463946529    5.70161812586440
F         2.66600195037221    0.67473553554821    5.05278380141701
F         1.47282428099461    2.33517537746155    5.05372712533811
C        -0.54116712948735    1.66588948685421    4.74858692957713
F        -0.26390130645604    0.81370574588359    5.70071013310018
F        -1.78040746367273    2.09821270486178    5.08106324220854
F         0.20692796748913    2.74338748350879    5.07985446209249
C         3.36494467316275   -3.71661537311851    0.87224309584019
F         4.06134123410379   -3.53373473608846    1.97003175695270
F         4.28532298455497   -3.83931022259428   -0.09987552206991
F         2.79359020578252   -4.92181595077309    1.03782264370742
C         4.25193697416656   -1.01798604298199    2.62788078527441
F         4.45819751385795   -2.31149911243887    2.76445165971040
F         5.33838427322685   -0.51885911356564    2.04550859144396
F         4.21704462373326   -0.51864484624889    3.86015756699820
C        -1.07924457455182    3.32115766295263    3.70002452734253
F        -1.46278387738260    4.50205124043462    3.22648367395210
F        -2.08910926019902    2.92005253592764    4.49513502632426
F        -0.02611227380707    3.59055198762774    4.49509258743919
C        -4.90669411461551   -1.02725962238019    0.87320569815261
F        -5.35596913755590   -0.45173791456638    1.98276609900243
F        -5.72223036691311   -0.58619210133364   -0.10268008496396
F        -5.15402071091774   -2.33803922259784    1.03556911789641
C        -2.83910107344051   -3.32425326456964    2.62836102577191
F        -2.23144600381105   -4.50172461759006    2.75104835837800
F        -4.01355185248412   -3.55951916229004    2.04648808510071
F        -3.10679754752953   -2.89872986091195    3.85986908694390
C         2.49032335846373   -4.33903475131566   -0.83838786304922
F         2.12916824149708   -4.95304622507260   -2.01180797500617
F         3.82421733203275   -4.17921897425360   -1.04355305928919
F         2.39134283019164   -5.23875955704468    0.09938809353267
C         0.53189834697824   -4.99219374045941   -0.85645542684161
F         1.18286138399788   -5.25197952615362   -1.99630276829689
F        -0.63572364572526   -5.61796482246758   -1.00347215996276
F         1.11606278128881   -5.64105063176748    0.12607223637578
C         4.03102617848075   -1.68034667444347   -2.62712180872643
F         4.95677713965706   -0.73919654241246   -2.79606938209218
F         3.71662059329552   -2.05892432691308   -3.86137788693426
F         4.59818154063676   -2.73948021614634   -2.10179608113678
C         4.91594724098630   -1.03731305159420   -0.85772933502038
F         5.38099348254570   -0.43110682584581   -1.94761105076301
F         5.17557843000483   -2.32032203451554   -0.94722122497041
F         5.70686575129995   -0.61038032663164    0.11799139553361
C         2.85185428813890    3.29418699446417   -2.62307144242791
F         2.28658190721500    4.50740001379721   -2.76605099306308
F         3.16274763376305    2.89637163353563   -3.83081859796960
F         4.02828159833227    3.52582426994622   -2.09754889393753
C         1.07016985604914    3.29218917398802   -3.72450774955954
F         1.45083113761873    4.51198683142432   -3.27986931674261
F         2.01161737674136    2.89877271085034   -4.54117767041251
F         0.07455442600445    3.52582890361167   -4.54093650484206
C        -0.36808846622896    4.34298029163501   -2.62595305802665
F         0.81204819366289    4.99785801134757   -2.73506108802712
F        -0.85708708439832    4.20209801391612   -3.83010619245655
F        -1.15606003201538    5.24037088071208   -2.04155533062362
C         2.51292081262741    4.34360254639935   -0.84612195873192
F         2.08327428722307    4.99772921260360   -1.94706969929013
F         3.80896872640014    4.20204125074360   -0.94637415761640
F         2.34309329897584    5.24031847387323    0.12106792713231
C        -4.24393158587185   -0.99607183183891   -2.61802897997062
F        -4.45819219316595   -2.31747385597632   -2.80660812971575
F        -4.21548726716032   -0.51984481010696   -3.86547332157882
F        -5.33629517590807   -0.47657444610339   -2.09920690939334
C        -2.25677873396868   -3.73207663654985   -2.62053628956105
F        -3.58035647719008   -3.52599135252099   -2.80541682751776
F        -1.79707331928423   -3.84829723025893   -3.86478601227344
F        -2.10951601062939   -4.92046195031527   -2.09944552470533
C        -3.35295027119198   -3.72447002581131   -0.84599409756699
F        -4.07536965027370   -3.56564429416992   -1.96763543755325
F        -2.81897584541123   -4.92273711031181   -0.94861936305246
F        -4.22359365221161   -3.90721417120039    0.12711114637293
C        -4.55589422311840   -2.03399168730605   -0.84110745926236
F        -4.65147062478715   -2.78246865688998   -1.97545010745227
F        -5.56990424465971   -1.16193119113638   -0.97991006295592
F        -5.01957180876125   -2.83761966716425    0.10847422704188
C         1.76771791402205    0.00228356448422   -4.78080481394383
F         0.79118336149997    0.03986244161379   -5.68392252055335
F         2.51207804409290    1.06806187576697   -5.05124648259356
F         2.54943378138709   -1.01403848800933   -5.05230340988947
C         0.54612468111396   -1.68231720959105   -4.78003315145728
F         0.20449471952235   -0.76506573633030   -5.68437051722789
F        -0.24171331673793   -2.71854455903876   -5.05045017142423
F         1.75411916573019   -2.11260248288506   -5.05088163356080
156
 energy: -498.063308850312 gnorm: 7.391002862379 xtb: 6.4.1 (a3dbbd7)
C        -1.23572214153866   -0.00078952292036    3.31276998192637
C        -0.38260788056068   -1.17756007152005    3.31871988367571
C         1.00166238541403   -0.72772730565738    3.31757766371572
C         1.00133369495194    0.72564583729715    3.31446913198274
C        -0.37736028568020    1.16207850672167    3.31075859957564
C         2.34247933086128   -2.59232186116090    0.60245729775003
C         3.19786203457675   -1.42666263179103    0.59488208087170
C         2.96621893498341   -0.70094674053629    1.83382705026736
C         1.96185215444199   -1.42864790899802    2.59293124978995
C         1.57822621139349   -2.60182255511504    1.83215788765704
C         3.19418231458359    1.42482282764624    0.59858395215871
C         2.34671245103709    2.59738835701762    0.60152406106786
C         1.58142204265398    2.59878361420671    1.82974339047118
C         1.96584425740824    1.42969237089091    2.58807752942602
C         2.96174941390554    0.70783447220108    1.82745724014917
C        -0.37187469783908    3.47999848448521    0.59821090608991
C        -1.74711285844347    3.03438860787632    0.59479339599001
C        -1.98833129370717    2.30841515374867    1.82876540446121
C        -0.75000137852180    2.30701259461056    2.58008589639095
C         0.25106430075743    3.03634443027871    1.82784180287164
C        -3.42615251271541    0.72961691870088    0.59742797606571
C        -3.41430380772550   -0.71780256435621    0.60283550407523
C        -2.81041951139190   -1.17124399378018    1.83222617474238
C        -2.42972545438267    0.00288208805846    2.59006844835341
C        -2.80644532518317    1.17366826797755    1.83002954903981
C        -1.74567048634884   -3.03426954040063    0.59600312905739
C        -0.36801504993100   -3.48195932537337    0.60150582727207
C         0.24924027359765   -3.03163977130716    1.82754859038976
C        -0.74623957696814   -2.31068786587386    2.59167248553588
C        -1.98662256481394   -2.31062214493511    1.83273663256661
C        -0.24761433385783   -3.03467445325776   -1.83158524773806
C         0.74960480246832   -2.30953236316862   -2.59649222900005
C         1.98546176344449   -2.31002429670638   -1.83138303498403
C         1.74705675906718   -3.02704929811904   -0.59924865509199
C         0.36075130855452   -3.47704245048959   -0.59387338572959
C         2.80169047967803   -1.17350957651354   -1.83170977137956
C         2.42923420144853    0.00108921761295   -2.59520776377845
C         2.80967812490034    1.17344931768859   -1.82917270386884
C         3.42752961366322    0.72967818338404   -0.59518491508924
C         3.42264832956177   -0.72255469808099   -0.59109062762355
C         1.98511869715512    2.29498687583254   -1.82586926640154
C         0.74680798806656    2.29756421339392   -2.59362573201784
C        -0.25353718555588    3.03154405233330   -1.82544988922244
C         0.36745936758638    3.48509393082562   -0.59472062993415
C         1.74653503864948    3.03145516873468   -0.58980603390838
C        -1.58758859947774    2.59711475884274   -1.83016073589123
C        -1.96208110131650    1.42586955741784   -2.59247890041081
C        -2.96090991577971    0.70758448765001   -1.82941847846760
C        -3.19586330636650    1.42724912051600   -0.59750132952362
C        -2.34411430948505    2.59920093698183   -0.59592957146641
C        -2.95465957110360   -0.69387643729135   -1.83193775236585
C        -1.96463663253485   -1.42747652146751   -2.59670682520952
C        -1.57484014966723   -2.59659602493930   -1.83166384201600
C        -2.33349833325893   -2.59779482705677   -0.58663639608868
C        -3.18994646705130   -1.42495001128322   -0.59198139565803
C        -0.99978776138928   -0.72048374834172   -3.33171919671943
C        -1.00194686089246    0.72394193150539   -3.32946561508798
C         0.37890675719693    1.17291687799832   -3.33224041552050
C         1.23533936108026    0.00366220121123   -3.32484966633461
C         0.37789881194697   -1.17663843049999   -3.32320917676454
C        -1.77755000110727   -0.00037830754017    4.75309343331973
F        -0.97195282875656   -0.01314407470762    5.72040160470842
F        -2.58283568319216   -0.99000443842640    5.05495267652988
F        -2.60014067889294    0.98978377320388    5.05253642514755
C        -0.55377288977938   -1.70518876907360    4.75459110746390
F        -0.30473222269800   -0.92218607516403    5.71785821819175
F        -1.73304277829185   -2.14522639548403    5.05648377196147
F         0.14259123712646   -2.75939376371897    5.05226626833607
C         1.45071503020723   -1.05370175306448    4.75533867574225
F         0.78952367707449   -0.56712876816941    5.71756041736795
F         1.50652327058953   -2.31626425245584    5.05230341723329
F         2.66255907632224   -0.71696825514759    5.05617636692298
C         1.43704868081758    1.04727701276598    4.75168865358020
F         0.79407229806335    0.55718514634769    5.72066568340052
F         2.67130047968597    0.71696286011878    5.05504743160772
F         1.52184283659776    2.32862848310426    5.05321474786363
C        -0.53071309112294    1.63771538931640    4.70954755814094
F        -0.30374812224410    0.93612374364448    5.71518591492597
F        -1.78000164734798    2.12851612856780    5.12321935896973
F         0.18791187049522    2.76602950374249    5.12148438461160
C         3.35774211948113   -3.70210050423596    0.87273856287486
F         4.05805566108286   -3.55543207214249    1.95985854294789
F         4.32703066715340   -3.82168751824794   -0.05241426207102
F         2.80131305136282   -4.92709979542158    1.08780814808547
C         4.25173462207900   -1.01699593639823    2.62770641294841
F         4.46584613757167   -2.29421337942298    2.77812090148146
F         5.33959185705789   -0.51822425759104    2.04840177491556
F         4.22027993688351   -0.51761757392939    3.86007959908502
C        -1.07696599532330    3.31193983979176    3.67999575769646
F        -1.46332657444264    4.50395085843572    3.22842773250624
F        -2.12308487085317    2.94102142658784    4.48721255974812
F        -0.01039977611014    3.62829830626585    4.48774548180572
C        -4.88873699134580   -1.02068184680787    0.87906662620803
F        -5.35900869144990   -0.45158400302762    1.98398325247632
F        -5.74469741194254   -0.55075448044190   -0.08410911713371
F        -5.16441627367068   -2.33436901504680    1.08304689659529
C        -2.83726344804830   -3.32451687470384    2.62888235557179
F        -2.23154147277077   -4.50337686113372    2.75168748688922
F        -4.01402954377910   -3.56200022740901    2.05088861229691
F        -3.10999341362866   -2.90028658007324    3.85945385396535
C         2.47834513970295   -4.31995233987037   -0.80516963524027
F         2.15809377139333   -4.96085681583201   -2.04918733428304
F         3.80812817597508   -4.20407227369766   -1.10253633031278
F         2.42137896553841   -5.24416221942711    0.06115410962670
C         0.52775668886865   -4.98649018527062   -0.84563510905121
F         1.15702487000099   -5.26624383791007   -2.00809891090243
F        -0.63411843191186   -5.62089831406535   -1.00289755764702
F         1.07449533906095   -5.65783768668245    0.13084705676854
C         4.02228403860649   -1.68763921732256   -2.62507668652662
F         4.95323554106021   -0.74064704641410   -2.82537299948422
F         3.71924538410578   -2.06077889486511   -3.86117636818885
F         4.58572779423735   -2.75137321527489   -2.13708389565529
C         4.91140442139041   -1.04147509879884   -0.84761479417885
F         5.40026600678765   -0.41598918069813   -1.93114574939288
F         5.19632712013605   -2.30842408728351   -0.91643824642133
F         5.70875447029007   -0.60973770481845    0.11477137696783
C         2.85926073188183    3.26780144026184   -2.62048910521152
F         2.40231472366429    4.50295643863755   -2.75687369247870
F         3.19992279998739    2.89538389979741   -3.81315932003510
F         4.03768340936789    3.50756391497582   -2.13127005126315
C         1.06547294017873    3.26624036579199   -3.72900988308792
F         1.38571688780294    4.51442559679088   -3.37247339020423
F         1.97829773789294    2.90103092008864   -4.56568097513985
F         0.10048389345734    3.50789315400220   -4.56435169722066
C        -0.38692771423743    4.33043097674700   -2.62412437030750
F         0.78121088657631    5.04091563308112   -2.71197124595951
F        -0.88640302549535    4.22408805367791   -3.81193465359149
F        -1.15599570348871    5.24259102832780   -2.04061658532550
C         2.51967089909763    4.33129949057135   -0.82894450119595
F         2.07371320361046    5.04405518940926   -1.90456915760668
F         3.80555049862641    4.22411955135873   -0.91197278839483
F         2.34218592068625    5.24250609588169    0.12150791275435