62
 energy: -137.507608199023 gnorm: 0.138815890533 xtb: 6.4.1 (a3dbbd7)
C        -1.29770965891222    0.00000000000000    3.53163224767276
C        -0.37107604425475   -1.17478800586359    3.31058196643012
C         0.97979757550459   -0.72157705231961    3.28110534952822
C         0.97979757550459    0.72157705231961    3.28110534952822
C        -0.37107604425475    1.17478800586360    3.31058196643013
C         2.33544184946295   -2.58264348698296    0.58346340581249
C         3.18207169571150   -1.41543014636129    0.58234433372313
C         2.94373959867916   -0.69404060100004    1.80708186552027
C         1.95046398470883   -1.41556779135961    2.56176558167067
C         1.57767488865866   -2.57871801508103    1.80912454278211
C         3.18207169571150    1.41543014636129    0.58234433372313
C         2.33544184946295    2.58264348698296    0.58346340581249
C         1.57767488865866    2.57871801508103    1.80912454278211
C         1.95046398470883    1.41556779135961    2.56176558167066
C         2.94373959867916    0.69404060100004    1.80708186552027
C        -0.36119281684147    3.44519252612879    0.58582996047390
C        -1.73469290191499    3.00153459982720    0.58916793337350
C        -1.97220713510261    2.29308475607878    1.81059639720294
C        -0.73400332666893    2.27691900303500    2.56853480078419
C         0.25309257506893    2.99789064535074    1.80898867763471
C        -3.39649784746455    0.71758744312072    0.57410478167568
C        -3.39649784746455   -0.71758744312072    0.57410478167568
C        -2.77168037603652   -1.14964415915414    1.80664876434809
C        -2.42168465399864    0.00000000000000    2.56054627302143
C        -2.77168037603652    1.14964415915414    1.80664876434809
C        -1.73469290191499   -3.00153459982719    0.58916793337351
C        -0.36119281684148   -3.44519252612879    0.58582996047390
C         0.25309257506893   -2.99789064535073    1.80898867763471
C        -0.73400332666892   -2.27691900303499    2.56853480078419
C        -1.97220713510261   -2.29308475607878    1.81059639720295
C        -0.24585893810850   -3.00970705822685   -1.82232538763502
C         0.74439012833927   -2.28841876480361   -2.57822875384061
C         1.97268106729833   -2.28861170675520   -1.82114897801170
C         1.74031203428013   -3.00832022201671   -0.59623578829480
C         0.36724813466371   -3.45114129717027   -0.59443426078026
C         2.79027372790168   -1.16551010025889   -1.82330670861298
C         2.41077011246349    0.00000000000000   -2.58030971859023
C         2.79027372790168    1.16551010025889   -1.82330670861298
C         3.40598095600767    0.72109250237888   -0.59875668403540
C         3.40598095600767   -0.72109250237888   -0.59875668403540
C         1.97268106729833    2.28861170675520   -1.82114897801170
C         0.74439012833927    2.28841876480360   -2.57822875384062
C        -0.24585893810850    3.00970705822685   -1.82232538763502
C         0.36724813466371    3.45114129717027   -0.59443426078026
C         1.74031203428013    3.00832022201671   -0.59623578829480
C        -1.56847069976934    2.58049680433801   -1.82122736601016
C        -1.94730857051169    1.41533687195356   -2.58360676406823
C        -2.94243160962768    0.69434475341889   -1.82977489504240
C        -3.17479380115303    1.41444285760430   -0.60326970185865
C        -2.32688654321742    2.58113588269429   -0.60086409487791
C        -2.94243160962768   -0.69434475341889   -1.82977489504240
C        -1.94730857051169   -1.41533687195356   -2.58360676406823
C        -1.56847069976934   -2.58049680433801   -1.82122736601016
C        -2.32688654321742   -2.58113588269429   -0.60086409487790
C        -3.17479380115303   -1.41444285760429   -0.60326970185865
C        -0.99138524268633   -0.72097607833148   -3.31029871234527
C        -0.99138524268633    0.72097607833148   -3.31029871234528
C         0.38054100031802    1.16548515734434   -3.30884687187952
C         1.22668597234242    0.00000000000000   -3.30783368151334
C         0.38054100031802   -1.16548515734434   -3.30884687187952
Cl       -1.93737486741132   -0.00000000000005    5.25509316806359
Cl        2.39143163587280   -3.89695209030670    2.74515813153701
62
 energy: -137.532146661844 gnorm: 0.064155744408 xtb: 6.4.1 (a3dbbd7)
C        -1.30056024580375    0.00010729999449    3.52369028812768
C        -0.37240910052251   -1.17466278304095    3.30073802351748
C         0.97972107223246   -0.71478444455284    3.27719595115990
C         0.97318394214838    0.72698016914348    3.27251044883284
C        -0.37600771535124    1.17721307576386    3.30827311427499
C         2.33750225778569   -2.57359693103778    0.56949104190056
C         3.17508543737062   -1.41072941224632    0.57700212154103
C         2.93738553693086   -0.69005658592236    1.80653460892459
C         1.95341318522381   -1.40228021315122    2.56239784286889
C         1.62858218994036   -2.65925689472171    1.86386268879702
C         3.18024694313823    1.41915508177193    0.57952895989231
C         2.33475660095110    2.58720034154731    0.58121317102439
C         1.57618168786672    2.58383631614021    1.80603755185251
C         1.94845236856694    1.42248717315445    2.55802615455602
C         2.93631122177706    0.70179580966398    1.80329471251885
C        -0.36170843204853    3.44883074037988    0.58436246200957
C        -1.73510504468279    3.00296491018084    0.58862682411855
C        -1.97652221762408    2.29878978307971    1.81175437632948
C        -0.73913715522143    2.27987777619680    2.56567547032859
C         0.25061714223468    3.00042205884558    1.80540193800484
C        -3.39899901162488    0.72215542436881    0.57259522597417
C        -3.40304016437537   -0.71267491287039    0.57179775367392
C        -2.78204513732862   -1.14394954833149    1.80696942387963
C        -2.43080884086697    0.00433878279431    2.55952361354485
C        -2.77545757935318    1.15386090763930    1.80676990371804
C        -1.74843695221384   -2.99454638109434    0.59143712726164
C        -0.36865077998677   -3.42975733516412    0.58915526618511
C         0.23424829358860   -3.01651795850504    1.81201326429492
C        -0.74220029799921   -2.27401608975735    2.55552273791068
C        -1.98898009853119   -2.29078320430612    1.80891621509962
C        -0.24500573976826   -3.00876255903411   -1.81673170930362
C         0.74667279329838   -2.28636813086189   -2.57687467985428
C         1.97800928664292   -2.28715242800090   -1.82915228980109
C         1.73921529109861   -2.99663435144429   -0.60255284180270
C         0.36438940055422   -3.44695417303902   -0.59791628832479
C         2.79593307918192   -1.16226304846558   -1.82907676319452
C         2.41360184444816    0.00242478727085   -2.58346266286734
C         2.79210669247201    1.16858780270270   -1.82649927880274
C         3.40624405795766    0.72422497890573   -0.60189664933624
C         3.40843226647652   -0.71730211135793   -0.60509602563311
C         1.97286839226782    2.28977937250145   -1.82292732977867
C         0.74484491729715    2.28969800577866   -2.57963331996263
C        -0.24444832329314    3.01250205659640   -1.82427157236522
C         0.36746681946123    3.45383591043044   -0.59665982802708
C         1.73987734292420    3.01133149479220   -0.59826288129014
C        -1.56682223950062    2.58178051960707   -1.82167899171452
C        -1.94605714057072    1.41679398889271   -2.58319122255249
C        -2.94344199981637    0.69718180590646   -1.83053172975940
C        -3.17549907304195    1.41771918973224   -0.60438718925608
C        -2.32574149384598    2.58303545070116   -0.60143891812288
C        -2.94613118540786   -0.69085409158493   -1.83115168605083
C        -1.94951791568998   -1.41380233444952   -2.58152426593876
C        -1.57387062677862   -2.57769171090776   -1.81704463808744
C        -2.33577458183462   -2.57747445695180   -0.60276013796741
C        -3.18218987481498   -1.40998757998368   -0.60500827165479
C        -0.99172408718145   -0.72031390750269   -3.30783804314857
C        -0.99077925001110    0.72109317879807   -3.30985281252115
C         0.38132838750531    1.16589906697361   -3.30960755353416
C         1.22771023770625    0.00104614320267   -3.30791261649382
C         0.38132525108971   -1.16465034274460   -3.30623254859717
Cl       -1.92456718250515   -0.01921225522899    5.25070317877338
Cl        2.47849081430538   -3.99686531750433    2.81846649237301
62
 energy: -137.539082604470 gnorm: 0.015950359104 xtb: 6.4.1 (a3dbbd7)
C        -1.30153685743606   -0.00067685462380    3.51189635630013
C        -0.37303898741532   -1.18023002025048    3.29709457827387
C         0.97788437008116   -0.71570313191338    3.26525248133575
C         0.96894223632812    0.72709456912735    3.26822640174964
C        -0.37796941165167    1.17706529064922    3.29891257486283
C         2.33857897653955   -2.57664020449185    0.56542229909523
C         3.15841645136352   -1.41204263815096    0.57159591275186
C         2.91449122596523   -0.69099358144343    1.80042036990267
C         1.95230920640018   -1.40156974057392    2.56008405706573
C         1.67587437055682   -2.73428160801162    1.91319355471612
C         3.17790884892998    1.42212169308159    0.58082789055597
C         2.33346537212066    2.59197561404577    0.58020227636843
C         1.57488363464325    2.58934505385408    1.80489795783035
C         1.94767159264864    1.42714556354520    2.55715586117245
C         2.93151784136848    0.70641730744123    1.80517642485369
C        -0.36299275782431    3.45440674899084    0.58105299231405
C        -1.73649599293850    3.00710554342324    0.58493929035060
C        -1.98007103038343    2.30478776312075    1.80997409136535
C        -0.74330440345451    2.28273362616008    2.55946267133362
C         0.24833598380400    3.00433825772035    1.80042651598275
C        -3.40418736350692    0.72791624948124    0.56985887176164
C        -3.41045887565614   -0.70755367908449    0.56926778311973
C        -2.78837708694757   -1.13803723586188    1.80574807033591
C        -2.44035809822610    0.00903918063315    2.55651638776132
C        -2.78047946639264    1.15934968400912    1.80469561089900
C        -1.74895267804815   -2.98320596767581    0.59424795528105
C        -0.36376015739652   -3.41590761946695    0.59827895770061
C         0.23094513600446   -3.02407859809411    1.81247569363704
C        -0.73849833767507   -2.27657610817035    2.55082174237513
C        -1.99144713811468   -2.28401275796281    1.80597236863363
C        -0.24395556907554   -3.00688234931430   -1.80658219304891
C         0.74721667499089   -2.28304855187542   -2.57360805200688
C         1.97662967195913   -2.28382672192624   -1.82795564384211
C         1.74014928309346   -2.99482518615078   -0.60086875275857
C         0.36342798416717   -3.44951776975184   -0.60034443045702
C         2.79581424693970   -1.15837641821031   -1.83110515219791
C         2.41542433662235    0.00532175378987   -2.58632284870637
C         2.79219877025735    1.17208576476990   -1.82729814849575
C         3.40368849325930    0.72662992645038   -0.60112869774112
C         3.40348573102825   -0.71524063700557   -0.60833919138226
C         1.97191800006272    2.29208181317366   -1.82430250907221
C         0.74469955940925    2.29227496776243   -2.58201070028504
C        -0.24414802003205    3.01683803845792   -1.82794860558230
C         0.36696007065010    3.45847834986975   -0.60033619439118
C         1.73856079708169    3.01567352857016   -0.59988491806734
C        -1.56596023824160    2.58459043558890   -1.82434152540111
C        -1.94599386701844    1.41979325270685   -2.58402354662029
C        -2.94573396882894    0.70143761500399   -1.83244032362814
C        -3.17823687532842    1.42241148219082   -0.60686584914085
C        -2.32565315059140    2.58671824501694   -0.60389574769612
C        -2.95003353074488   -0.68613408091547   -1.83284860968691
C        -1.95134103164838   -1.41103659378086   -2.57941940955909
C        -1.57882923448614   -2.57373011552398   -1.81233810687889
C        -2.33835474555879   -2.57131532670969   -0.60360637358469
C        -3.18875648001598   -1.40492180025107   -0.60672637827721
C        -0.99306020527705   -0.71855033947229   -3.30594553748620
C        -0.99082288041150    0.72222808566516   -3.30920584754266
C         0.38137622201656    1.16737620967739   -3.31061177547115
C         1.22782917712989    0.00298576185163   -3.30820046030579
C         0.38112805775977   -1.16317663523508   -3.30333862310583
Cl       -1.90659744175993   -0.03956695145772    5.24050868929539
Cl        2.55023882575276   -4.07306024277920    2.87555067096382
62
 energy: -137.539515159298 gnorm: 0.009374375400 xtb: 6.4.1 (a3dbbd7)
C        -1.30226487602730   -0.00176043493128    3.50904270273370
C        -0.37209550369731   -1.18114602177196    3.29523729546420
C         0.98026093934991   -0.72012048218321    3.26754854302035
C         0.96536596796505    0.72335499259818    3.26102566779201
C        -0.37987708047334    1.17572893268082    3.29360627886611
C         2.34323179754403   -2.58602083571713    0.57135458914856
C         3.15498545198733   -1.41568188136578    0.57335480662935
C         2.90948415088683   -0.69429878239531    1.80152374690453
C         1.95698396907578   -1.40948576272613    2.56723695730052
C         1.68888316640120   -2.75092878167502    1.92619908295410
C         3.17417156392746    1.42176444687799    0.57932305427400
C         2.33124919108096    2.59307610546658    0.57799171004547
C         1.57230728853444    2.59071060638337    1.80244931808558
C         1.94356149547798    1.42582419623558    2.55186557051532
C         2.92661887793147    0.70478402241090    1.80274520317564
C        -0.36459919416308    3.45744745313579    0.57853839261964
C        -1.73842426318749    3.01081445501522    0.58225440368781
C        -1.98231664860249    2.30766508969247    1.80803746818583
C        -0.74592738624564    2.28360120742007    2.55669222142343
C         0.24596192692530    3.00579477700007    1.79753577013063
C        -3.40710172050933    0.73203576018009    0.56836242528961
C        -3.41236109621362   -0.70397751486535    0.56853956176492
C        -2.78833711320974   -1.13483904297684    1.80465782089710
C        -2.44272442875224    0.01170628854986    2.55508132001461
C        -2.78354871842575    1.16312701603218    1.80342710273359
C        -1.74461689105027   -2.97733942382084    0.59498273325355
C        -0.35862131564001   -3.41437383282142    0.60273706874858
C         0.23644774210261   -3.02530351942862    1.81434349493313
C        -0.73381664438888   -2.27941050792126    2.55266031878081
C        -1.98750755349448   -2.27971296213987    1.80459340744454
C        -0.24382856426135   -3.00547549726869   -1.80205888162540
C         0.74706420076100   -2.28080381442510   -2.56992081218517
C         1.97495987952984   -2.28270352687383   -1.82293571463193
C         1.74272579640455   -2.99943170719170   -0.59650688353981
C         0.36403174504731   -3.45282382334034   -0.60060372925277
C         2.79440063473255   -1.15782287571607   -1.82922049836196
C         2.41531769866274    0.00551192762675   -2.58662767736083
C         2.79129084327761    1.17291361561327   -1.82793388996070
C         3.40066435648989    0.72625147351105   -0.60109313722635
C         3.39995603826193   -0.71587072085249   -0.60601058197314
C         1.97141991486901    2.29348361877181   -1.82616720354534
C         0.74444054865861    2.29429269567726   -2.58426156934070
C        -0.24467989893059    3.01978202778167   -1.83082722845106
C         0.36609117083537    3.46139164040587   -0.60290843333464
C         1.73744640246302    3.01811218867667   -0.60213713403720
C        -1.56643172293908    2.58750430939583   -1.82685412771285
C        -1.94666441602503    1.42266274099354   -2.58573016304793
C        -2.94708276402428    0.70487355569853   -1.83400880519998
C        -3.18042393997891    1.42623767877205   -0.60872833855390
C        -2.32692094005738    2.59038835608876   -0.60616104747765
C        -2.95126115606670   -0.68274544907651   -1.83361969710351
C        -1.95155831547506   -1.40832864537762   -2.57866805330071
C        -1.57967899660128   -2.57067700042934   -1.81062976043299
C        -2.33675467820702   -2.56674254756002   -0.60313813826161
C        -3.18966972444315   -1.40104786005943   -0.60690504235885
C        -0.99348936688470   -0.71665260830138   -3.30521423280642
C        -0.99113683145769    0.72395937011239   -3.30970487011812
C         0.38120246131987    1.16861420577084   -3.31159512403103
C         1.22743607357250    0.00386107220803   -3.30790129672404
C         0.38084456800680   -1.16209115780306   -3.30107737066712
Cl       -1.89426903287027   -0.06095614745470    5.23983892223068
Cl        2.56175018706826   -4.08565474861991    2.88467569110125
62
 energy: -137.539642311929 gnorm: 0.004906906964 xtb: 6.4.1 (a3dbbd7)
C        -1.30298426279123   -0.00137800205859    3.50833959497479
C        -0.37226851673054   -1.18033222749146    3.29332259381170
C         0.98116536663919   -0.72174253162815    3.26925367383160
C         0.96352987721555    0.72170490285182    3.25767968126736
C        -0.38080711210789    1.17548729916160    3.29158886135071
C         2.34477872337042   -2.59120301430737    0.57498451308322
C         3.15253247962041   -1.41721962406261    0.57418553236433
C         2.90646345033266   -0.69585527792648    1.80208456991334
C         1.95887992755537   -1.41401705521616    2.57128758938080
C         1.69420412749317   -2.75749113153558    1.93189804164808
C         3.17212867626369    1.42153899906155    0.57853331614068
C         2.33037510187802    2.59374820556286    0.57721528276559
C         1.57105195557455    2.59148627594806    1.80144161267211
C         1.94127141670900    1.42519011140364    2.54935862324561
C         2.92331631071408    0.70368662349357    1.80100653499315
C        -0.36531092707070    3.45890156809507    0.57745260378284
C        -1.73930067848009    3.01266396074243    0.58088960802705
C        -1.98323321924503    2.30868888782998    1.80719504667946
C        -0.74714798820419    2.28421034379658    2.55580937128305
C         0.24485479838346    3.00628486594793    1.79619961358967
C        -3.40831992200563    0.73384618472671    0.56789097121132
C        -3.41270835657874   -0.70247172457912    0.56840043370446
C        -2.78824354672872   -1.13319297089646    1.80477794446399
C        -2.44386781203529    0.01290620938787    2.55498988046106
C        -2.78511326745788    1.16517846518058    1.80292728128478
C        -1.74166525854576   -2.97379661592835    0.59531318498301
C        -0.35539000799875   -3.41393670607683    0.60485077763846
C         0.23982144497885   -3.02462500196098    1.81471972589861
C        -0.73147271697889   -2.28124698481689    2.55466266289233
C        -1.98489779722879   -2.27717512872544    1.80365969493482
C        -0.24381373981317   -3.00545854602622   -1.80032833242436
C         0.74707987398327   -2.27959991637204   -2.56791255070053
C         1.97411797132708   -2.28192646393144   -1.82010054136077
C         1.74361078439898   -3.00172985474416   -0.59437365315035
C         0.36390247565662   -3.45529779426632   -0.60186022365143
C         2.79376284448055   -1.15765592853827   -1.82831515305431
C         2.41540025622199    0.00549649410612   -2.58691493549928
C         2.79104825135631    1.17318575019003   -1.82835060210754
C         3.39894748683134    0.72605258920170   -0.60094166614649
C         3.39759994038709   -0.71598695449162   -0.60437820585273
C         1.97156477956848    2.29410155733421   -1.82703882821059
C         0.74466072998469    2.29502591240451   -2.58525131408324
C        -0.24474328101384    3.02079561873437   -1.83197917279422
C         0.36594504533251    3.46265794685761   -0.60392242741078
C         1.73725887074372    3.01935513735592   -0.60302645567491
C        -1.56635213311388    2.58839097521050   -1.82800660494951
C        -1.94680278496230    1.42366415368648   -2.58657890484277
C        -2.94749893003203    0.70605820206674   -1.83472271487992
C        -3.18130508699445    1.42764860910134   -0.60955012501362
C        -2.32737290143795    2.59176725579875   -0.60708414053663
C        -2.95158818167416   -0.68159800091311   -1.83405840931177
C        -1.95150233894144   -1.40738324849997   -2.57875456607185
C        -1.58005381868788   -2.56958963363822   -1.81020295749534
C        -2.33537318406662   -2.56468953074469   -0.60313263264495
C        -3.18940527790515   -1.39924883359699   -0.60673446731197
C        -0.99361551754260   -0.71607369952994   -3.30511240966606
C        -0.99106023092375    0.72445583483034   -3.30999982600355
C         0.38130322934210    1.16898027774172   -3.31201802531104
C         1.22732540661963    0.00406575572844   -3.30769288111000
C         0.38091809318512   -1.16186182254585   -3.30009124221037
Cl       -1.88505920097634   -0.07387394481227    5.24011141524674
Cl        2.56202356897353   -4.08651889398418    2.88471693948163
62
 energy: -137.539680556151 gnorm: 0.002762928617 xtb: 6.4.1 (a3dbbd7)
C        -1.30337268543718   -0.00096338897385    3.50865916676755
C        -0.37263949336004   -1.17964772891683    3.29218048601421
C         0.98102198001413   -0.72140290666971    3.26926499026416
C         0.96333510126505    0.72171564224309    3.25764743827186
C        -0.38096100224430    1.17564977589428    3.29172942006908
C         2.34418898203444   -2.59173039490042    0.57555915061444
C         3.15150236859500   -1.41709169529810    0.57404545774992
C         2.90546482324744   -0.69584400442681    1.80196482070006
C         1.95854257147883   -1.41451831141157    2.57147379497372
C         1.69514462668242   -2.75885035203662    1.93317195667073
C         3.17188151177126    1.42154149990159    0.57856700796413
C         2.33046395441129    2.59396743899705    0.57741716771452
C         1.57102256492635    2.59178479428180    1.80158477854860
C         1.94101195505785    1.42529966993104    2.54937193370439
C         2.92260155903958    0.70355743666158    1.80070149163215
C        -0.36531067301969    3.45896399763966    0.57743401014981
C        -1.73930640271344    3.01280386892943    0.58067529540892
C        -1.98325495095351    2.30848533807160    1.80716195321726
C        -0.74724688644760    2.28428726057942    2.55588818354484
C         0.24479452720426    3.00621801465413    1.79610029538180
C        -3.40831125182661    0.73393994101144    0.56794214465671
C        -3.41242770546198   -0.70243571691829    0.56851791724923
C        -2.78840509590194   -1.13288754225213    1.80538968585311
C        -2.44428391719102    0.01296484938388    2.55549834163150
C        -2.78540786192482    1.16557709538650    1.80288016217947
C        -1.74102205565264   -2.97288565255186    0.59553134521848
C        -0.35454466480408   -3.41362032277949    0.60526673612154
C         0.24056810277878   -3.02362416887949    1.81414571565862
C        -0.73124200450943   -2.28179508420028    2.55540745831733
C        -1.98446171594965   -2.27668467976628    1.80340543364211
C        -0.24377755429472   -3.00603413758192   -1.80031696341876
C         0.74721625332124   -2.27950021469548   -2.56764613475343
C         1.97404004482543   -2.28165156324951   -1.81957936504179
C         1.74343227046631   -3.00171827733605   -0.59415663971467
C         0.36354899292820   -3.45609241624422   -0.60278361723497
C         2.79383584310768   -1.15767818088594   -1.82832572219229
C         2.41562465820238    0.00543409753646   -2.58708217227943
C         2.79124469485076    1.17313018041512   -1.82846555022756
C         3.39870828205518    0.72603539145674   -0.60078829659118
C         3.39711203873552   -0.71584654131962   -0.60400345759257
C         1.97183293070356    2.29406053089295   -1.82706341308696
C         0.74491268282017    2.29486070757604   -2.58520235240825
C        -0.24461408078983    3.02061245573916   -1.83192337098538
C         0.36612944591520    3.46259774969617   -0.60387773809658
C         1.73744996957961    3.01944719490234   -0.60294044076195
C        -1.56611122253560    2.58814605297515   -1.82809464868819
C        -1.94667969261658    1.42353147187898   -2.58663770272382
C        -2.94741621222228    0.70592235960063   -1.83476338326045
C        -3.18129015654123    1.42752738083534   -0.60963673125267
C        -2.32724908253656    2.59158865231935   -0.60705028051218
C        -2.95150443717964   -0.68173253525562   -1.83408806554616
C        -1.95145549806159   -1.40754576942661   -2.57896339370534
C        -1.58019505723974   -2.56977798394540   -1.81031093807545
C        -2.33492374496010   -2.56461984537344   -0.60327498666312
C        -3.18899028279385   -1.39905657738254   -0.60649927676747
C        -0.99361604739346   -0.71626964442486   -3.30517731677857
C        -0.99090323808750    0.72423585091698   -3.30998645920876
C         0.38143495118481    1.16878152299938   -3.31191649382893
C         1.22739743954873    0.00388852316819   -3.30756241946502
C         0.38110488615296   -1.16214310689505   -3.30009322105096
Cl       -1.88172273787517   -0.07692132375756    5.24004112989107
Cl        2.55864266646911   -4.08293876902666    2.88189888965697
62
 energy: -137.539695954533 gnorm: 0.001474405988 xtb: 6.4.1 (a3dbbd7)
C        -1.30355301626692   -0.00086807943533    3.50929596749164
C        -0.37282063750752   -1.17944605118058    3.29170197406842
C         0.98074172120038   -0.72072453497533    3.26872991784255
C         0.96369688372737    0.72213618513466    3.25849731121309
C        -0.38087196261313    1.17580531934491    3.29235661355052
C         2.34334766244363   -2.59070472715102    0.57499182090977
C         3.15141102022342   -1.41661381422443    0.57370353092610
C         2.90555061509490   -0.69541698776350    1.80171708318567
C         1.95778077263480   -1.41359900707443    2.57042534229838
C         1.69503354802749   -2.75895743500482    1.93323868343969
C         3.17227848120872    1.42160136538864    0.57883276011368
C         2.33075805566326    2.59394464348478    0.57776531734659
C         1.57136721862838    2.59182672020413    1.80196350588386
C         1.94146536851881    1.42557136911567    2.55005896279758
C         2.92306426455207    0.70378389724240    1.80100660315913
C        -0.36513090653800    3.45857413841164    0.57769721622287
C        -1.73908952240477    3.01238890505686    0.58084319788899
C        -1.98306147009265    2.30800589664889    1.80732843249690
C        -0.74698579387427    2.28410233383614    2.55610284070697
C         0.24504016684790    3.00602511096402    1.79635299612873
C        -3.40796782291278    0.73354288519704    0.56806899754169
C        -3.41212513204407   -0.70279556117784    0.56864171042463
C        -2.78858906745757   -1.13304770335329    1.80591641430870
C        -2.44441089491690    0.01265761958250    2.55598638759265
C        -2.78523664255611    1.16533739040668    1.80291585402768
C        -1.74140110368173   -2.97311111731756    0.59571948027257
C        -0.35472069354865   -3.41333829016980    0.60511942409125
C         0.24026175741642   -3.02291208945586    1.81343808933651
C        -0.73175619288779   -2.28171165119607    2.55542398200103
C        -1.98497445036235   -2.27710186409737    1.80350965207442
C        -0.24368543509351   -3.00653793131633   -1.80071575925708
C         0.74737169801680   -2.27977772341868   -2.56801653740447
C         1.97422617929216   -2.28163556875298   -1.81990707587085
C         1.74316975108288   -3.00110125817631   -0.59452458975109
C         0.36334681504978   -3.45606744080816   -0.60317755590544
C         2.79410815927265   -1.15774215920388   -1.82860202460887
C         2.41582862659390    0.00539318658681   -2.58713210015760
C         2.79146528182921    1.17300638304529   -1.82841715782062
C         3.39903317960552    0.72605905449877   -0.60069955963025
C         3.39746544462909   -0.71573209849938   -0.60417203172511
C         1.97196516255227    2.29383334644276   -1.82683299377711
C         0.74502898330554    2.29452858475878   -2.58489214631753
C        -0.24452610528495    3.02022181841719   -1.83159968547474
C         0.36628760574958    3.46218581750536   -0.60360834437437
C         1.73760422813890    3.01914438877717   -0.60265029467760
C        -1.56598077175895    2.58776829095209   -1.82790109978971
C        -1.94657394401716    1.42320701850234   -2.58647721013667
C        -2.94727878557896    0.70556324904705   -1.83462797274574
C        -3.18108505477922    1.42710679541636   -0.60952982273276
C        -2.32705925308577    2.59110491846299   -0.60681030907942
C        -2.95136347910529   -0.68207960879772   -1.83396260489829
C        -1.95143862811193   -1.40789827231119   -2.57903687299348
C        -1.58022678833134   -2.57019921427490   -1.81044201817565
C        -2.33493028072670   -2.56510765841442   -0.60339593191265
C        -3.18875672727435   -1.39934707007814   -0.60634609630142
C        -0.99360152716177   -0.71656118680177   -3.30521344970910
C        -0.99081516752136    0.72392989212228   -3.30987512769406
C         0.38150449677818    1.16850551171220   -3.31168190811179
C         1.22750082528576    0.00368967491920   -3.30748518031683
C         0.38125909511721   -1.16243782818464   -3.30033997678080
Cl       -1.88138165360013   -0.07603003111229    5.23986379797012
Cl        2.55500110945735   -4.07889983776429    2.87917277834416
62
 energy: -137.539699002292 gnorm: 0.000530781220 xtb: 6.4.1 (a3dbbd7)
C        -1.30351227695324   -0.00108740009774    3.50977746959946
C        -0.37272390267980   -1.17974521232307    3.29198968667614
C         0.98068336854704   -0.72047351355446    3.26833712106352
C         0.96406818796620    0.72239148228865    3.25905728252175
C        -0.38073744459571    1.17581826905315    3.29273230764364