63
 energy: -142.067881142961 gnorm: 0.143294582759 xtb: 6.4.1 (a3dbbd7)
C        -1.32333194775417    0.00617886347970    3.59125188963251
C        -0.38909456310608   -1.27772716531095    3.58793274117145
C         0.98734837171535   -0.72675165446744    3.28582848483634
C         0.97037352147027    0.69420630050098    3.25749094477592
C        -0.37633960723915    1.14742685553706    3.29074190055216
C         2.33092254703306   -2.58746567485154    0.56610397604514
C         3.16875994483946   -1.41579758165486    0.56774606192583
C         2.91978889080344   -0.69314490348597    1.79074016083681
C         1.93018806170321   -1.40549148670748    2.54814074589443
C         1.57476788296703   -2.59634073810083    1.79100274817011
C         3.18328087896891    1.41909085132624    0.57258499213333
C         2.33432229320876    2.58580968143883    0.57559918777772
C         1.57332139543398    2.57095369604789    1.79851755002390
C         1.94352282881158    1.40414426944103    2.54285112768194
C         2.93804115459266    0.69543633516321    1.79366637265872
C        -0.36752716666001    3.44413435035873    0.58029879258012
C        -1.74013210357057    3.00741588983283    0.58054459941955
C        -1.97818665379860    2.28654468588757    1.80361199533287
C        -0.73393250395930    2.25581684802015    2.55761528373596
C         0.24647420110131    2.98080949443068    1.80023381740862
C        -3.39591089216029    0.72883802558845    0.57533866561121
C        -3.37932885665645   -0.70504006359254    0.57786353554246
C        -2.74934612856665   -1.12865052488571    1.82052481704193
C        -2.40026274086307   -0.01382700939334    2.55826017594831
C        -2.77435746218519    1.16021035149421    1.80187148511327
C        -1.70577977915925   -3.00504292266898    0.57191390059864
C        -0.34657433486683   -3.46193150719564    0.56452064530943
C         0.25810980605866   -3.00738238851431    1.79111395103090
C        -0.74203335365356   -2.29289841924391    2.55243835495534
C        -1.91196172287597   -2.27950749485726    1.81757326885181
C        -0.23558165862281   -3.01371296632646   -1.83961821271520
C         0.75175047781152   -2.28700579367404   -2.59867644532734
C         1.98089777627659   -2.28868303835222   -1.84308617931945
C         1.74918768154887   -3.01946296828987   -0.62050040464920
C         0.38088379041600   -3.46658963937948   -0.62079308111870
C         2.79204993046375   -1.16413556659148   -1.83875967224219
C         2.41002754086118    0.00666527739579   -2.59106683151125
C         2.78807241943814    1.16926264052202   -1.83130610074559
C         3.40298548527550    0.72369088805355   -0.60835037131266
C         3.40110069057525   -0.71955382898331   -0.60923004493565
C         1.96912615256614    2.29475463280888   -1.82840259178522
C         0.74474441569639    2.29528025280401   -2.58515694980539
C        -0.24988429155059    3.01642431380723   -1.82795956514323
C         0.36353023978106    3.45499162487799   -0.59844520421847
C         1.73735095077191    3.01278425815446   -0.60243935985793
C        -1.56944867307335    2.59059487249377   -1.83048045584010
C        -1.94787757007795    1.42311330884846   -2.58910001301826
C        -2.94122296022124    0.70465889669871   -1.83002690890673
C        -3.17947337159538    1.42642572884929   -0.60816005298080
C        -2.33307692209202    2.59081264516620   -0.60600270171083
C        -2.93172079240255   -0.68656028280689   -1.82266620418654
C        -1.94059925011627   -1.40887980593779   -2.58138532694875
C        -1.55636984787224   -2.57670213587000   -1.82754179967090
C        -2.29848528094837   -2.57416283302738   -0.59738768824741
C        -3.15456863482430   -1.39758782868201   -0.59434922362650
C        -0.98936986995949   -0.71482485845558   -3.31408037280858
C        -0.99159024528376    0.72723605185279   -3.31429029098428
C         0.38014149579772    1.17201579903766   -3.31523274930469
C         1.22728121177112    0.00778684511203   -3.31823795360647
C         0.38205649969615   -1.16057927312445   -3.31917058806611
Cl       -2.09995733548554    0.29360223981566    5.20530702406437
Cl       -0.35034641589922   -2.11046483688082    5.19906768498811
Cl        4.23437874989959   -1.73726686131896   -2.77005344738987
63
 energy: -142.092549567790 gnorm: 0.065514755152 xtb: 6.4.1 (a3dbbd7)
C        -1.32297227367032    0.00593629621121    3.59030237569804
C        -0.38840886677488   -1.27783495588418    3.58601363933119
C         0.98774297925467   -0.72580667364366    3.28437793928199
C         0.97014208363203    0.69597772352695    3.25734068799754
C        -0.37639787174267    1.14743943741459    3.29026025824309
C         2.32509543761216   -2.58584191001667    0.57215051147778
C         3.15964554919569   -1.40470812887546    0.57389788443418
C         2.92335567448057   -0.68783143714354    1.79782788471916
C         1.93127057814692   -1.40359010943962    2.54844162271511
C         1.57673825150451   -2.59533647570576    1.79046224962891
C         3.18264415606509    1.42550547073631    0.58007739745162
C         2.33335311197979    2.59125167375039    0.57891247594393
C         1.57290374146805    2.57579376991066    1.80147888196353
C         1.94365153406853    1.40867651711191    2.54598535424515
C         2.93996130317278    0.70199167106900    1.79959939168299
C        -0.36853668602032    3.44617412201004    0.58178152696958
C        -1.74057327024728    3.00820735384897    0.58275054538231
C        -1.97790251909907    2.28864804112170    1.80488146831516
C        -0.73465463587365    2.25741021662957    2.55748624004215
C         0.24593160416032    2.98344842640429    1.80167084407744
C        -3.39492288840415    0.72724714392791    0.57559777448244
C        -3.38108717185213   -0.70678881527321    0.57697441844938
C        -2.75057493605364   -1.13136642363031    1.81831847979079
C        -2.39986016337920   -0.01334569056146    2.55749885218280
C        -2.77286931897118    1.15778499916942    1.80232144119078
C        -1.71521852084075   -3.00640586414539    0.57239393355787
C        -0.35575889558985   -3.46318810924483    0.56709926788044
C         0.25270261017739   -3.00736870443003    1.79373544529531
C        -0.74044092264645   -2.29306463979026    2.54963551048844
C        -1.91793983063381   -2.28001744279359    1.81537854732547
C        -0.24968921620366   -3.02257732295797   -1.83669394452437
C         0.74122529938879   -2.28844240620769   -2.58532313271960
C         1.96928428173965   -2.31260044124824   -1.84217764974021
C         1.73388060074339   -3.01423762254332   -0.61948694563619
C         0.36640622501621   -3.47185889741158   -0.61817911901141
C         2.87877946514671   -1.19622252855795   -1.89171956777165
C         2.39955045308669    0.01950288034432   -2.58601528056277
C         2.77766179594968    1.17134621102434   -1.82597113283936
C         3.39368646821602    0.72590187177769   -0.60109447941269
C         3.39574579197030   -0.70914790365987   -0.59444380528698
C         1.96462288845320    2.30235698016803   -1.82752486401634
C         0.74246967953011    2.30317944732482   -2.58478152664558
C        -0.25133104232378    3.02072545365601   -1.82656178684541
C         0.36186167318221    3.45903561581460   -0.59688889097431
C         1.73570185463876    3.01753192221880   -0.60009697533275
C        -1.57094614602296    2.59166920280292   -1.82821988525966
C        -1.94898721785106    1.42330602931138   -2.58696080820060
C        -2.94405854337968    0.70484083036014   -1.83034470855449
C        -3.17915955394437    1.42482406374924   -0.60772075629174
C        -2.33328146593969    2.59096121974876   -0.60535210104449
C        -2.93521281079978   -0.68730633942631   -1.82365950745961
C        -1.94593115632510   -1.41046887784232   -2.58041578887255
C        -1.56731186245662   -2.58173563884159   -1.82781557988942
C        -2.30820238939781   -2.57725892147974   -0.59814070650712
C        -3.15953902081234   -1.39900278987573   -0.59572947459873
C        -0.99037661448031   -0.71511213669198   -3.31102288778283
C        -0.99267737555239    0.72840835902091   -3.31177921736478
C         0.37663393923651    1.17794258851768   -3.31452370602072
C         1.21991367702479    0.01445644389230   -3.30595233951076
C         0.37651936887818   -1.16095076552979   -3.31233333764217
Cl       -2.09894381719628    0.29440629147920    5.20501310165636
Cl       -0.34778129884770   -2.11021441271473    5.19681631734379
Cl        4.35358057646754   -1.77831116627274   -2.84321227326047
63
 energy: -142.099148294080 gnorm: 0.018374038824 xtb: 6.4.1 (a3dbbd7)
C        -1.32321860198093    0.00670824756840    3.58852977664633
C        -0.38875962032823   -1.27613894006353    3.58333852308105
C         0.98750131599449   -0.72354508120703    3.28310326695762
C         0.96952579331835    0.69930469248179    3.25838985867113
C        -0.37697929852175    1.14874059308072    3.29074398847019
C         2.32444445560939   -2.58636464605024    0.57773475259740
C         3.15853470547411   -1.39860072599792    0.57142578640285
C         2.92067503526657   -0.68336334269185    1.79520190815893
C         1.93062462754733   -1.40057413535819    2.54723756467466
C         1.57814979921882   -2.59178825830485    1.78655979297495
C         3.17940904330136    1.42710909018472    0.58280427421549
C         2.33145769304361    2.59450062911738    0.58154378536152
C         1.57152176623183    2.58083487651733    1.80434309783461
C         1.94362950117930    1.41390519072720    2.54969781768956
C         2.93776649322129    0.70691874543471    1.80099902266339
C        -0.37109554150835    3.44931644062151    0.58466986428002
C        -1.74235832787561    3.00909761733548    0.58626692467017
C        -1.97855076060582    2.29043524042255    1.80727353938390
C        -0.73656433673217    2.26027929275044    2.55909577496302
C         0.24412331670747    2.98733931763791    1.80446778603142
C        -3.39598473878608    0.72577864688403    0.57711822740938
C        -3.38522363824555   -0.70838386684350    0.57706201328385
C        -2.75334611634119   -1.13436644736578    1.81664375377799
C        -2.40093410103980   -0.01225045584041    2.55734564799161
C        -2.77199008948241    1.15479376568712    1.80354695259922
C        -1.72529387946913   -3.00781387533993    0.57306661637870
C        -0.36279463982454   -3.45924441669119    0.56798429191526
C         0.24614831216936   -3.00331340978604    1.79598202505549
C        -0.73911273813045   -2.29158462529830    2.54593974121218
C        -1.92621258627088   -2.28040010790612    1.81313949616626
C        -0.25662270302919   -3.02016892006949   -1.83339240799231
C         0.74073253151287   -2.28368436476406   -2.57495296497365
C         1.96139532032993   -2.31328588543843   -1.83389200556270
C         1.72837798374770   -3.00150013115995   -0.62216372345767
C         0.35856950700783   -3.46584015595789   -0.61554814594644
C         2.95809686867941   -1.22305330108067   -1.93867477125155
C         2.40122859332147    0.02098685171165   -2.58670627460606
C         2.76825005856764    1.16410372485933   -1.82291998171228
C         3.38510090236179    0.71964419027939   -0.59760338572797
C         3.40006755664504   -0.70793070377431   -0.59146504581607
C         1.96003880563667    2.30175856586152   -1.82414122324650
C         0.74004569219243    2.30457279073865   -2.57925273666527
C        -0.25353188505700    3.02407046171122   -1.82421108453375
C         0.35932825123498    3.46221358327907   -0.59407705975831
C         1.73310724771030    3.01936528980191   -0.59743500877447
C        -1.57341967449738    2.59232085944057   -1.82467617669639
C        -1.95100450978509    1.42296660041757   -2.58356313060010
C        -2.94829303524321    0.70511156805107   -1.82912516264887
C        -3.18048770328470    1.42316637829225   -0.60567647437022
C        -2.33420627256765    2.59051144838394   -0.60315777115213
C        -2.94022668195769   -0.68774141564991   -1.82407540290449
C        -1.95247106261035   -1.41128547497221   -2.57976341739064
C        -1.57545156507433   -2.58284917439234   -1.82745010343878
C        -2.31924512045862   -2.58060505521345   -0.59927166012493
C        -3.16706685764393   -1.40082658516542   -0.59650387997798
C        -0.99012766199409   -0.71648034177962   -3.30586959938578
C        -0.99360392695571    0.72766818132460   -3.30590598622396
C         0.37581844707644    1.17505344269255   -3.30452434505320
C         1.22217861582452    0.01411623400783   -3.29681999028692
C         0.37414626799339   -1.16276249015967   -3.30999723210796
Cl       -2.09872535561538    0.29437730416175    5.20412685177004
Cl       -0.34609586755867   -2.11112330416535    5.19184139110224
Cl        4.44011874060456   -1.81625550076396   -2.89806787233813
63
 energy: -142.099566716164 gnorm: 0.011128108424 xtb: 6.4.1 (a3dbbd7)
C        -1.32336153776932    0.00730289071652    3.58752733648014
C        -0.38907385947797   -1.27456376125026    3.58160513762424
C         0.98722035252253   -0.72176361322294    3.28171722002878
C         0.96921564475504    0.70131974675294    3.25885074382488
C        -0.37731580687249    1.14990579269115    3.29132907104258
C         2.32637954140429   -2.58732708370862    0.58041223837229
C         3.16285953292715   -1.39878207428790    0.56909173778974
C         2.91920425064963   -0.68149667378958    1.79165040055221
C         1.92995276746492   -1.39834312944062    2.54534632638686
C         1.57878076787577   -2.58997126911216    1.78494712996316
C         3.17773755844782    1.42666670958352    0.58190632229148
C         2.33032610057626    2.59484076761357    0.58235068017188
C         1.57106588467553    2.58305404226282    1.80575464490867
C         1.94376532204922    1.41618838053004    2.55118665813654
C         2.93661889203102    0.70843170617625    1.80034547690565
C        -0.37241694475096    3.45114684130498    0.58636046052428
C        -1.74351645724091    3.00966741891560    0.58815406807607
C        -1.97912568513692    2.29109877127969    1.80873704291968
C        -0.73750222409507    2.26206913792028    2.56048949442003
C         0.24341102320254    2.98971267042637    1.80631885297309
C        -3.39703302614090    0.72506469666876    0.57793887483585
C        -3.38800098770982   -0.70923187278635    0.57709524486718
C        -2.75526671058344   -1.13571568287987    1.81592882765708
C        -2.40166876467660   -0.01178919950937    2.55723318821995
C        -2.77164712038099    1.15349376738541    1.80418201672147
C        -1.72915647650114   -3.00817825437195    0.57294372570297
C        -0.36483787729181   -3.45587762916698    0.56738984615303
C         0.24366394663193   -2.99980635857457    1.79629076303120
C        -0.73883697424273   -2.28985237942716    2.54374754217573
C        -1.93029490185362   -2.28078559881568    1.81200266604978
C        -0.25745488754444   -3.01632691026953   -1.83240644317237
C         0.74290340651228   -2.28154294459188   -2.57396175968074
C         1.96214022384215   -2.30827238025589   -1.83075747952433
C         1.73009051732341   -2.99637478650547   -0.62376720333329
C         0.35737543637272   -3.45999927580583   -0.61459591161367
C         2.97834169869863   -1.22831810461413   -1.94952775325726
C         2.40866997490234    0.01773621215271   -2.59128990149620
C         2.76737108318237    1.16025277371673   -1.82293864989997
C         3.38482131708177    0.71648227328919   -0.59771389240486
C         3.40889712216943   -0.71101333713526   -0.59502864029772
C         1.95871654256720    2.29875309223280   -1.82144516431410
C         0.73923433901194    2.30265048667001   -2.57550735020858
C        -0.25463300856650    3.02422744612991   -1.82243558261912
C         0.35809315142203    3.46304483179997   -0.59250714156549
C         1.73163503734504    3.01872407136606   -0.59602215573299
C        -1.57450312248754    2.59175014466188   -1.82230415415175
C        -1.95165156014054    1.42209182695303   -2.58124631290019
C        -2.95045845182078    0.70490044977649   -1.82822477188151
C        -3.18164447640990    1.42253183704236   -0.60436781077747
C        -2.33510056421689    2.59021433081535   -0.60150117828911
C        -2.94324087787801   -0.68803811938570   -1.82447763577099
C        -1.95553505873648   -1.41158227901699   -2.58014825874330
C        -1.57802639829779   -2.58265621674325   -1.82764064886077
C        -2.32389763114837   -2.58199386363061   -0.60029719056543
C        -3.17141184016097   -1.40212289946317   -0.59715080820930
C        -0.99062372429127   -0.71756949909018   -3.30410243639813
C        -0.99333657550104    0.72617528929143   -3.30172748449998
C         0.37670662115353    1.17136641696612   -3.29823150245391
C         1.22588834317172    0.01178076937669   -3.29628187811764
C         0.37347447831426   -1.16385856131111   -3.31098990790975
Cl       -2.09849994825327    0.29355601365371    5.20404031104748
Cl       -0.34652534435488   -2.11194523060958    5.18840308794054
Cl        4.45215229650321   -1.82715789513517   -2.90634003947965
63
 energy: -142.099725098962 gnorm: 0.005558627259 xtb: 6.4.1 (a3dbbd7)
C        -1.32291091299310    0.00739171644886    3.58684353746440
C        -0.38891326489047   -1.27376885103938    3.58075940958427
C         0.98747667392347   -0.72084265137646    3.28117152061786
C         0.96924025158839    0.70245043453370    3.25928776240664
C        -0.37721420201281    1.15055088164818    3.29175001021639
C         2.32798153630651   -2.58844787311736    0.58317326263036
C         3.16555055941820   -1.39902679427285    0.56809360800449
C         2.91863537140337   -0.68023614044681    1.78962466365384
C         1.92984122579160   -1.39700040608487    2.54433212415158
C         1.58001695588855   -2.58938840453741    1.78455761435229
C         3.17631161449055    1.42627089379714    0.58117801409142
C         2.32955595055815    2.59486432703731    0.58277041471157
C         1.57109664501153    2.58431724342761    1.80680002301991
C         1.94404795706279    1.41754085463899    2.55241520949641
C         2.93617353162853    0.70922485065092    1.80024279116511
C        -0.37288363053439    3.45242239948944    0.58718054920390
C        -1.74383518207082    3.00993643094070    0.58907362052360
C        -1.97893345740018    2.29150212009317    1.80944347673610
C        -0.73768687225241    2.26314799015423    2.56125824726898
C         0.24338355332960    2.99128288368543    1.80740449998640
C        -3.39688986844847    0.72432151948035    0.57803490653132
C        -3.38898873905994   -0.71002635932628    0.57679930963444
C        -2.75572550341698   -1.13700174375227    1.81501129820880
C        -2.40131872069117   -0.01143485760085    2.55687765166861
C        -2.77036766468781    1.15220746995862    1.80425513707692
C        -1.73092363188905   -3.00846880819518    0.57267230127363
C        -0.36556014139276   -3.45376688124450    0.56671409242915
C         0.24239512656446   -2.99723111745077    1.79675262870974
C        -0.73772763142810   -2.28886099181623    2.54222184850789
C        -1.93269038075616   -2.28145438137085    1.81091020574616
C        -0.25761707484041   -3.01343666417975   -1.83197708545980
C         0.74409183716408   -2.27993864652387   -2.57425512378904
C         1.96242331165633   -2.30307916768339   -1.82785718892453
C         1.73185318279106   -2.99276571024031   -0.62474760277566
C         0.35685810819530   -3.45562900156939   -0.61401515698606
C         2.98724026384218   -1.23033898224715   -1.95409510318858
C         2.41307698157940    0.01512062370635   -2.59403607345527
C         2.76636019078331    1.15796398526294   -1.82265799126960
C         3.38421549650262    0.71469578766207   -0.59754285021474
C         3.41399601621605   -0.71336033692679   -0.59747815243267
C         1.95774521988458    2.29663820756256   -1.81952564361801
C         0.73871088534782    2.30148044143051   -2.57356712376018
C        -0.25527040261380    3.02439663410766   -1.82162162625336
C         0.35743514132979    3.46365196201113   -0.59190626834015
C         1.73069509895879    3.01815724680331   -0.59519457477484
C        -1.57495774904073    2.59120494199498   -1.82101526707437
C        -1.95192419311509    1.42155741415663   -2.58030323558242
C        -2.95142117329014    0.70459218189296   -1.82804733990872
C        -3.18193385999219    1.42201004258859   -0.60382802488142
C        -2.33536688888785    2.58999071585661   -0.60074540045362
C        -2.94493550012648   -0.68830155849691   -1.82522289528904
C        -1.95736826329267   -1.41181991546383   -2.58111546853145
C        -1.57934724959732   -2.58269734204025   -1.82830600265202
C        -2.32621106032381   -2.58295648935778   -0.60139036319015
C        -3.17365761204302   -1.40329922250848   -0.59801816169806
C        -0.99143276186114   -0.71819847295706   -3.30399891762401
C        -0.99301849623034    0.72517255348673   -3.29937302043283
C         0.37741349602380    1.16913278848820   -3.29452500869511
C         1.22772053800473    0.01036636002757   -3.29604295704050
C         0.37244109892368   -1.16451713708566   -3.31246197997916
Cl       -2.09900830969128    0.29436794863681    5.20350366167903
Cl       -0.34641405283755   -2.11379090869031    5.18586852233050
Cl        4.44958498179359   -1.83290131184270   -2.90577022514142
63
 energy: -142.099774733731 gnorm: 0.002635613382 xtb: 6.4.1 (a3dbbd7)
C        -1.32214153946897    0.00706516372060    3.58601938850120
C        -0.38857675689513   -1.27341778522297    3.58025673436589
C         0.98815731784081   -0.72071444173744    3.28135548627894
C         0.96964822441969    0.70271217217929    3.25927086378696
C        -0.37675513050683    1.15061278397011    3.29174179132308
C         2.32855391316910   -2.58886436929652    0.58472187813287
C         3.16596292855696   -1.39875700796411    0.56823911376136
C         2.91902587931612   -0.67970540084273    1.78942398637424
C         1.93039673674743   -1.39673803901771    2.54445546530260
C         1.58121484633798   -2.58960870235555    1.78494261427138
C         3.17599130910884    1.42633216553861    0.58091930834137
C         2.32951093086509    2.59490941810404    0.58271547168800
C         1.57142762598558    2.58461809464776    1.80703019961807
C         1.94449672013040    1.41798751388510    2.55279843991342
C         2.93654291143040    0.70951300966089    1.80045925054424
C        -0.37271409812237    3.45268173704553    0.58716901923012
C        -1.74357965443094    3.00978458606976    0.58916022552792
C        -1.97850870970820    2.29156775052414    1.80951805120856
C        -0.73739975579054    2.26333431198222    2.56128490294030
C         0.24372728885636    2.99164830337824    1.80750702107529
C        -3.39624801609930    0.72379816431309    0.57773786724956
C        -3.38872735818050   -0.71051778046678    0.57641431472599
C        -2.75533026390383   -1.13781365447187    1.81418761273380
C        -2.40081658569442   -0.01136251129362    2.55654128021995
C        -2.76935179683972    1.15137613752848    1.80412686567406
C        -1.73102899480847   -3.00861048723200    0.57237264436715
C        -0.36541640511972   -3.45328793742041    0.56634559291346
C         0.24221444592490   -2.99628865087361    1.79723342843595
C        -0.73666982069238   -2.28880986303397    2.54164214703483
C        -1.93331859407204   -2.28191726048403    1.81004831085584
C        -0.25758171692498   -3.01263906366785   -1.83201411036038
C         0.74397682517625   -2.27918010741889   -2.57445111644895
C         1.96190281836418   -2.30022558553306   -1.82595941375845
C         1.73242170054752   -2.99121490202582   -0.62496857962018
C         0.35669221951378   -3.45423555366114   -0.61386500718487
C         2.98836497308992   -1.23069817257710   -1.95472812901069
C         2.41341615936668    0.01440701818278   -2.59414500962764
C         2.76566788958025    1.15759717760977   -1.82236290196982
C         3.38365422409932    0.71450210941206   -0.59730479260915
C         3.41433132912825   -0.71384082562329   -0.59785820870867
C         1.95751998052559    2.29626211555446   -1.81912624671967
C         0.73859379994051    2.30146700347571   -2.57353507309453
C        -0.25533380415817    3.02461766501392   -1.82171714044069
C         0.35739262909955    3.46385008311659   -0.59207686690568
C         1.73058275061223    3.01807460954609   -0.59516423260612
C        -1.57488723958387    2.59095481663459   -1.82085355095172
C        -1.95190724601176    1.42147226308413   -2.58052438911995
C        -2.95132792595257    0.70433062531110   -1.82831214648967
C        -3.18162149870835    1.42166665819886   -0.60387390240177
C        -2.33514784141788    2.58980616374659   -0.60078051878842
C        -2.94518376953606   -0.68845667222717   -1.82582408083932
C        -1.95770856307526   -1.41190840927891   -2.58191352722825
C        -1.57958767851828   -2.58291815658491   -1.82897408236173
C        -2.32647999939045   -2.58328763425070   -0.60212325156644
C        -3.17386292056026   -1.40391982901884   -0.59865733220218
C        -0.99189767921140   -0.71822659989856   -3.30477411567792
C        -0.99288242737338    0.72501044797683   -3.29925765631292
C         0.37766955568287    1.16883686005027   -3.29397922374307
C         1.22773081725252    0.01033120472497   -3.29571830286611
C         0.37183283393341   -1.16457435125014   -3.31308971379224
Cl       -2.09720195601509    0.29067024812820    5.20434805733112
Cl       -0.34987012836268   -2.11141393814601    5.18627560818664
Cl        4.44155864078565   -1.83469996722454   -2.90199022884205
63
 energy: -142.099776475013 gnorm: 0.002255988347 xtb: 6.4.1 (a3dbbd7)
C        -1.32233840158514    0.00694611437872    3.58665372760819
C        -0.38838299864998   -1.27414999153633    3.58127045313978
C         0.98830529774620   -0.72118922545384    3.28175429184746
C         0.96959495786928    0.70232559569805    3.25943121262836
C        -0.37681186831602    1.15019743243082    3.29166207061434
C         2.32862166729298   -2.58886576462028    0.58526099266468
C         3.16558564909750   -1.39838948601005    0.56875317871506
C         2.91940962091737   -0.67964735545646    1.78996941164305
C         1.93070472102103   -1.39696367088754    2.54484957073179
C         1.58202328033150   -2.59003383778384    1.78533779661864
C         3.17608150511634    1.42647900757296    0.58118560218674
C         2.32957783601046    2.59486653669403    0.58278498107361
C         1.57146189203214    2.58430630170264    1.80709909820277
C         1.94442300098898    1.41773719887123    2.55297265563179
C         2.93676682546067    0.70946668557268    1.80089377457924
C        -0.37252425358688    3.45244630305169    0.58700356200534
C        -1.74336768729659    3.00956230043046    0.58898214223498
C        -1.97833195429064    2.29154168629622    1.80934880262293
C        -0.73729121237350    2.26289982098035    2.56097915194630
C         0.24384376215584    2.99131415741376    1.80733347710776
C        -3.39568716748830    0.72347442288978    0.57746446303918
C        -3.38812412709284   -0.71078081645699    0.57633039216757
C        -2.75479512717390   -1.13817647798828    1.81393739182396
C        -2.40031929244735   -0.01127101017343    2.55647524885995
C        -2.76876075739620    1.15093080945245    1.80395619590190
C        -1.73064623035646   -3.00854143649636    0.57232337892198
C        -0.36510012541569   -3.45339742710386    0.56620935224226
C         0.24241808581092   -2.99604860499450    1.79745931810574
C        -0.73581189860319   -2.28894153305562    2.54163134718315
C        -1.93316895941452   -2.28205672511871    1.80975740667474
C        -0.25755684084159   -3.01288663870682   -1.83218040785504
C         0.74339885784117   -2.27893392653537   -2.57434927453908
C         1.96119700814920   -2.29912531911120   -1.82487075078597
C         1.73231242198970   -2.99089409096272   -0.62485822192668
C         0.35664645451668   -3.45439963995915   -0.61390285495433
C         2.98738416411619   -1.23070452316348   -1.95428056531503
C         2.41241646432901    0.01473780913791   -2.59327005267653
C         2.76547953225272    1.15802968501401   -1.82205105034210
C         3.38339943638258    0.71490274380673   -0.59696482803944
C         3.41313985920525   -0.71345245926657   -0.59726412445924
C         1.95766184459394    2.29664270043650   -1.81923252556996
C         0.73867695970073    2.30184663404705   -2.57395802442686
C        -0.25518432216584    3.02477463106383   -1.82194490457854
C         0.35750874785569    3.46380731997451   -0.59226470486360
C         1.73073243842534    3.01815408512734   -0.59518860483033
C        -1.57470920711563    2.59090294463006   -1.82104958844655
C        -1.95180293763116    1.42153849434901   -2.58093557684147
C        -2.95095948105149    0.70413582954870   -1.82855103487728
C        -3.18127307371004    1.42145275207291   -0.60403533203791
C        -2.33493328039335    2.58969065139920   -0.60103918881392
C        -2.94490137399754   -0.68855154476500   -1.82603369363675
C        -1.95742181293363   -1.41191662866617   -2.58223099475039
C        -1.57945908214633   -2.58310062866550   -1.82930312855212
C        -2.32610577651684   -2.58328559433473   -0.60236575889303
C        -3.17336448580471   -1.40415619811178   -0.59884474890463
C        -0.99200547876046   -0.71802553542663   -3.30540392198882
C        -0.99285571151765    0.72520804985644   -3.29987512125193
C         0.37771005555159    1.16929787449874   -3.29454832435007
C         1.22731045976669    0.01083583810674   -3.29541926602047
C         0.37172523648830   -1.16436790588510   -3.31299843768942
Cl       -2.10232561375457    0.30045804650900    5.20158521105246
Cl       -0.34238779246041   -2.11948948262310    5.18352915805882