108
 energy: -320.036464464303 gnorm: 3.245877033192 xtb: 6.4.1 (a3dbbd7)
C        -1.23626340000000    0.00000000000000    3.32997640000000
C        -0.38202640000000   -1.17575640000000    3.32997640000000
C         1.00015810000000   -0.72665740000000    3.32997640000000
C         1.00015810000000    0.72665740000000    3.32997640000000
C        -0.38202640000000    1.17575640000000    3.32997640000000
C         2.34433560000000   -2.60145750000000    0.59464210000000
C         3.19857260000000   -1.42570110000000    0.59464210000000
C         2.96246730000000   -0.69904370000000    1.83090550000000
C         1.96230920000000   -1.42570110000000    2.59495830000000
C         1.58028280000000   -2.60145750000000    1.83090550000000
C         3.19857260000000    1.42570110000000    0.59464210000000
C         2.34433560000000    2.60145750000000    0.59464210000000
C         1.58028280000000    2.60145750000000    1.83090550000000
C         1.96230920000000    1.42570110000000    2.59495830000000
C         2.96246730000000    0.69904370000000    1.83090550000000
C        -0.36750900000000    3.48258920000000    0.59464210000000
C        -1.74969350000000    3.03349030000000    0.59464210000000
C        -1.98579880000000    2.30683290000000    1.83090550000000
C        -0.74953540000000    2.30683290000000    2.59495830000000
C         0.25062270000000    3.03349030000000    1.83090550000000
C        -3.42570570000000    0.72665740000000    0.59464210000000
C        -3.42570570000000   -0.72665740000000    0.59464210000000
C        -2.80757400000000   -1.17575640000000    1.83090550000000
C        -2.42554760000000    0.00000000000000    2.59495830000000
C        -2.80757400000000    1.17575640000000    1.83090550000000
C        -1.74969350000000   -3.03349030000000    0.59464210000000
C        -0.36750900000000   -3.48258920000000    0.59464210000000
C         0.25062270000000   -3.03349030000000    1.83090550000000
C        -0.74953540000000   -2.30683290000000    2.59495830000000
C        -1.98579880000000   -2.30683290000000    1.83090550000000
C        -0.25062270000000   -3.03349030000000   -1.83090550000000
C         0.74953540000000   -2.30683290000000   -2.59495830000000
C         1.98579880000000   -2.30683290000000   -1.83090550000000
C         1.74969350000000   -3.03349030000000   -0.59464210000000
C         0.36750900000000   -3.48258920000000   -0.59464210000000
C         2.80757400000000   -1.17575640000000   -1.83090550000000
C         2.42554760000000    0.00000000000000   -2.59495830000000
C         2.80757400000000    1.17575640000000   -1.83090550000000
C         3.42570570000000    0.72665740000000   -0.59464210000000
C         3.42570570000000   -0.72665740000000   -0.59464210000000
C         1.98579880000000    2.30683290000000   -1.83090550000000
C         0.74953540000000    2.30683290000000   -2.59495830000000
C        -0.25062270000000    3.03349030000000   -1.83090550000000
C         0.36750900000000    3.48258920000000   -0.59464210000000
C         1.74969350000000    3.03349030000000   -0.59464210000000
C        -1.58028280000000    2.60145750000000   -1.83090550000000
C        -1.96230920000000    1.42570110000000   -2.59495830000000
C        -2.96246730000000    0.69904370000000   -1.83090550000000
C        -3.19857260000000    1.42570110000000   -0.59464210000000
C        -2.34433560000000    2.60145750000000   -0.59464210000000
C        -2.96246730000000   -0.69904370000000   -1.83090550000000
C        -1.96230920000000   -1.42570110000000   -2.59495830000000
C        -1.58028280000000   -2.60145750000000   -1.83090550000000
C        -2.34433560000000   -2.60145750000000   -0.59464210000000
C        -3.19857260000000   -1.42570110000000   -0.59464210000000
C        -1.00015810000000   -0.72665740000000   -3.32997640000000
C        -1.00015810000000    0.72665740000000   -3.32997640000000
C         0.38202640000000    1.17575640000000   -3.32997640000000
C         1.23626340000000    0.00000000000000   -3.32997640000000
C         0.38202640000000   -1.17575640000000   -3.32997640000000
C        -1.76086815247998    0.00000000000000    4.78849957557021
F        -0.76911826531252    0.00000000000000    5.67468926254662
F        -2.50968386795825   -1.06794314680471    5.04863888333743
F        -2.50968386795825    1.06794314680471    5.04863888333743
C        -0.54413818249354   -1.67468516033722    4.78849957845317
F        -0.23767107904745   -0.73147481112462    5.67468925997942
F        -1.79120914301982   -2.05683909935453    5.04863874564184
F         0.24013968171955   -2.71686350152345    5.04863903502921
C         4.03961820246674    1.67468514775899   -2.62817407948106
F         4.96930660042402    0.73147479244129   -2.75037763231441
F         3.71458666614022    2.05683907990832   -3.85992603200073
F         4.62303373288711    2.71686348978894   -2.04303253910982
C         4.58877084110522   -2.05459160147071    0.86730597290559
F         4.59709252483521   -2.78118520641283    1.98125951001435
F         4.97417519512416   -2.85850196315549   -0.11965482382298
F         5.53562669678859   -1.13053295630600    1.00324569798425
C         2.82790274436383   -2.05459160758554    3.71645040671519
F         3.82797483682855   -2.78118494419178    3.22571836876305
F         3.37293748548841   -1.13053297859378    4.50255013394648
F         2.11749631416700   -2.85850222732984    4.50254863174647
C         2.84103082519036    3.32439911178427   -2.62817407941587
F         2.23127406184888    4.50005340761388   -2.75037746012492
F         3.10404037880941    2.89718378306488   -3.85992609894427
F         4.01248672303643    3.55720929213525   -2.04303264409737
C         3.37204091334889    3.72927672645244    0.86730596148276
F         4.06564647311729    3.51265957144658    1.98125763710227
F         4.25569947457670    3.84739838595791   -0.11965645964809
F         2.78580317558591    4.91533944031226    1.00324916143780
C        -1.08016271022039    3.32439912180418    3.71645041587937
F        -1.46215754230407    4.50005299330749    3.22571838851551
F        -2.06425285383526    2.89718320022386    4.50255037491024
F        -0.03290491502765    3.55721032900471    4.50254840735999
C        -4.03961820246674   -1.67468514775899    2.62817407948106
F        -4.96930660042402   -0.73147479244129    2.75037763231441
F        -4.62303373288711   -2.71686348978894    2.04303253910982
F        -3.71458666614022   -2.05683907990832    3.85992603200073
C        -4.58877084110522   -2.05459160147071   -0.86730597290559
F        -4.59709252483521   -2.78118520641283   -1.98125951001435
F        -5.53562669678859   -1.13053295630600   -1.00324569798425
F        -4.97417519512416   -2.85850196315549    0.11965482382298
C        -1.42457227037960    1.03501233722714   -4.78849957248258
F        -0.62223011468481    0.45207589682711   -5.67468926529602
F        -2.65809836182651    0.61117154425495   -5.04863869666891
F        -1.40265511061956    2.33913928186680   -5.04863905501621
C         1.76086815247998    0.00000000000000   -4.78849957557021
F         0.76911826531252    0.00000000000000   -5.67468926254662
F         2.50968386795825    1.06794314680471   -5.04863888333743
F         2.50968386795825   -1.06794314680471   -5.04863888333743
108
 energy: -321.491636585600 gnorm: 1.847120192275 xtb: 6.4.1 (a3dbbd7)
C        -1.23898894010858    0.00538563484881    3.32810939794797
C        -0.37832172002426   -1.18033508849154    3.32894717087928
C         0.99609924678394   -0.71544625294480    3.33131598128335
C         0.99818742107641    0.72414338621892    3.33308711420907
C        -0.37148764083804    1.17030539672176    3.33109225879838
C         2.33313251424284   -2.60319166193341    0.59665973494458
C         3.21151523079923   -1.43327829210820    0.59771591529438
C         2.95634581494063   -0.68802127225754    1.82687489490715
C         1.97188431067208   -1.43202720652516    2.60185318122028
C         1.57631200112047   -2.60326831312953    1.82051647202602
C         3.19975673319747    1.41770771109793    0.59677941981564
C         2.35470466531971    2.60411573000279    0.59927662208536
C         1.57371134987076    2.60018683082069    1.83646560518493
C         1.96371220459722    1.42945208499587    2.59339325552840
C         2.96110620782111    0.69746268524292    1.83079453308949
C        -0.36768912560108    3.48037583554976    0.59512283851680
C        -1.74877575641991    3.03127855680330    0.59652050051653
C        -1.98951931600976    2.30995912174161    1.82112925909840
C        -0.75294020927971    2.31536677322889    2.60144574502406
C         0.25489691531433    3.03289551577270    1.82170589973087
C        -3.42567054536209    0.72267451893430    0.59476611304595
C        -3.42128811220399   -0.71291555746244    0.59556646817972
C        -2.81802265547686   -1.17688007566624    1.83300677969018
C        -2.42995400332496    0.00892698778750    2.58656673639522
C        -2.80378775502549    1.17360704867277    1.82960959149438
C        -1.74644392614790   -3.03263885958657    0.59421796531374
C        -0.36694156980297   -3.48294447158718    0.59535395384165
C         0.24956783170332   -3.03410412207668    1.82698468559914
C        -0.75356471547723   -2.31377285087906    2.58095126863112
C        -1.97228062032117   -2.31339606102123    1.83227580215076
C        -0.24884137480966   -3.03347455319058   -1.82945742244843
C         0.74985071881554   -2.30763941949494   -2.59246781976065
C         1.98450119738902   -2.30753822949082   -1.83035313294688
C         1.74752983406050   -3.03238029953972   -0.59505651907514
C         0.36783108415130   -3.48105050628532   -0.59563162396978
C         2.80522367663311   -1.17355956501174   -1.82606907447033
C         2.43358046572329   -0.00418405117965   -2.58772169658510
C         2.80027017591936    1.15929183046019   -1.82204177033451
C         3.42719066345127    0.71914177712683   -0.58757888867348
C         3.41913026601765   -0.71994401053246   -0.60614140321107
C         1.96782610155487    2.30309561409027   -1.82086404387650
C         0.74001080506488    2.30726853215222   -2.59475451718483
C        -0.25062787326189    3.03539719064814   -1.82940830352345
C         0.36407744605310    3.48004807493521   -0.59682757928801
C         1.74095639226755    3.03674772392102   -0.60040672298101
C        -1.58267557264545    2.59743705685549   -1.82971909607853
C        -1.96834600592501    1.43238530658117   -2.58098452282826
C        -2.95899215550977    0.70038564326851   -1.82893862348961
C        -3.19793526336266    1.42846216849576   -0.59547215137698
C        -2.34691082071778    2.59766235380953   -0.59554134197029
C        -2.95534108679623   -0.69415452333199   -1.83598159270066
C        -1.96210408404699   -1.42561650637197   -2.59247097624166
C        -1.58015882479306   -2.60008474825529   -1.82928695938403
C        -2.33448535588934   -2.60369674516448   -0.59567611416210
C        -3.20928273975000   -1.43225749611540   -0.59922635223128
C        -0.99781377094401   -0.73486220216974   -3.33109776603592
C        -1.00161687930109    0.72798892314725   -3.33271684349617
C         0.38440631079156    1.18147834750633   -3.33420679862306
C         1.23731984267001   -0.00156671417013   -3.33267512636627
C         0.37270667722161   -1.18069433339330   -3.33044370939031
C        -1.78881361525750    0.02260260225989    4.77121889595216
F        -0.81976079105486    0.09385846231900    5.70053201994530
F        -2.61508509912250   -0.92623416513337    5.06179448973608
F        -2.51938117327626    1.07168348811398    5.05395685200253
C        -0.53735059099674   -1.70657603097494    4.77044940938820
F        -0.15971922748610   -0.81238515154315    5.69852895172753
F        -1.69518334007031   -2.20547385427684    5.05557735324154
F         0.23959327787000   -2.72653264039362    5.05363452357683
C         4.02923525684790    1.63775531975678   -2.61482267209628
F         4.97454357523933    0.72970130227386   -2.75126464739670
F         3.74964010233924    2.02447846827311   -3.90235764374908
F         4.68962138571287    2.70887303563594   -2.02226949897944
C         4.59483601867567   -2.05412217967306    0.85910274205779
F         4.64590214414159   -2.78873569002220    1.91697984860679
F         4.97719788875542   -2.85963066399365   -0.12649612409785
F         5.53946282117713   -1.12711793519430    1.00194593638589
C         2.82574096629403   -2.05326460047550    3.72297677253522
F         3.79278945447645   -2.78850319857036    3.29789473596370
F         3.37334288483161   -1.12725470781518    4.50668533779707
F         2.12325764992441   -2.86141621978982    4.50645792390878
C         2.80632356856960    3.32754337338227   -2.60743700216038
F         2.23031660216699    4.50534493007232   -2.75304263981492
F         3.07905242956142    2.93577121824287   -3.91509886262891
F         4.02001853434714    3.62125636641618   -2.03104418542222
C         3.36972720775984    3.73058245712744    0.87632552541059
F         4.06855139857473    3.51433314491221    1.98341595129089
F         4.26318925707927    3.85111559152479   -0.11500769223937
F         2.78634996374580    4.91847004956434    1.00284289953293
C        -1.08066391619731    3.32938417029230    3.71575789714432
F        -1.46286358902576    4.50376509733883    3.22622375489612
F        -2.06424152118645    2.90775068699205    4.50312048550328
F        -0.03141334451886    3.55800158788515    4.50518209402135
C        -4.04386889349795   -1.67483797709002    2.62716134353565
F        -4.97176208093842   -0.73081207962930    2.75184730818926
F        -4.62283137188312   -2.71864045566174    2.05417004199128
F        -3.72154330740852   -2.06300416738816    3.85772599965398
C        -4.59240061554026   -2.05605320916303   -0.86973580579721
F        -4.59836373343497   -2.78285205829243   -1.98351451123326
F        -5.53742168200597   -1.12991396613243   -1.00369177602325
F        -4.97770260658911   -2.86153550310037    0.10970208843863
C        -1.43589935275296    1.03890065097618   -4.78727036226492
F        -0.69896779675794    0.47444305495442   -5.68522285201214
F        -2.66501913255229    0.61159687053471   -5.04825578342458
F        -1.40346437821335    2.34361660247968   -5.04944685319939
C         1.76502804040147   -0.00691976047924   -4.78769638400566
F         0.84480333962459   -0.02865353779867   -5.68548465591226
F         2.51079515214182    1.07031781677340   -5.05737931053264
F         2.51628735806453   -1.07092032902883   -5.04837741591320
108
 energy: -322.711087277420 gnorm: 1.686712044516 xtb: 6.4.1 (a3dbbd7)
C        -1.24306810348973    0.01378910115110    3.33734446144293
C        -0.37371410915279   -1.18789505011688    3.34050042143678
C         0.99514101041705   -0.70024489399022    3.33268344371456
C         0.99048506418667    0.71911190302769    3.31771025807993
C        -0.35662076255285    1.16606167574647    3.33202816162542
C         2.31692668381044   -2.60469367906955    0.59679986869084
C         3.23339588890660   -1.44523016133310    0.60442085259912
C         2.95096318432966   -0.67335009271973    1.82233275314958
C         1.98717468455598   -1.44196448347800    2.61356949399215
C         1.57066177280961   -2.60468600566941    1.80538826056011
C         3.19928434044741    1.40687562316346    0.59681017547538
C         2.37273353115506    2.62123380830315    0.60776591954383
C         1.56478941448608    2.58491751345070    1.84245431260884
C         1.96590090499925    1.43436749119282    2.59055452848011
C         2.95340700282222    0.69580602660178    1.82778213043488
C        -0.36859749888437    3.47757491198847    0.59818314847161
C        -1.74724426367203    3.02688990191946    0.60031139870677
C        -1.99334932186468    2.30730351754294    1.80864534181887
C        -0.75826570655977    2.33606741230044    2.61327048370516
C         0.25944388235913    3.03128135861112    1.80748504945126
C        -3.42151189031666    0.71644805075647    0.59345514544582
C        -3.41650633791726   -0.69323838760115    0.59634596192562
C        -2.83441240805745   -1.17942199493520    1.84369366451057
C        -2.43548545133725    0.02323828861192    2.57465486861915
C        -2.79852410080147    1.16899456671483    1.82606012660952
C        -1.74132005233445   -3.03183988655863    0.59199446631171
C        -0.36588404111153   -3.48307245664307    0.59484401005548
C         0.24755478086340   -3.03570726215260    1.81991005000176
C        -0.75958819150337   -2.32323198211503    2.56031051659004
C        -1.95331498323478   -2.31874845795346    1.82599398582978
C        -0.24660666319181   -3.03415219394233   -1.82746760486232
C         0.75091822765548   -2.30837811398923   -2.58709243716473
C         1.98259666541879   -2.31097218481262   -1.83088055549218
C         1.74375886871193   -3.03074619421047   -0.59749421889300
C         0.36756155690363   -3.47966399597771   -0.59788705489545
C         2.80054295974424   -1.16935756143015   -1.81839541455382
C         2.44144605865188   -0.01412908899713   -2.57966643245831
C         2.80620788837467    1.14795161965132   -1.82428485458909
C         3.41986212726043    0.70722005434712   -0.57415539779540
C         3.41572312486544   -0.71182218717019   -0.62048868225803
C         1.95950604488766    2.31594664919744   -1.81908603914522
C         0.72364102896902    2.30017876458535   -2.59046962727043
C        -0.25203480594317    3.03762269329588   -1.82766687405822
C         0.36165743091952    3.47419077018077   -0.60063616090858
C         1.72466381078736    3.04176605766514   -0.60384206184606
C        -1.58566197461707    2.59043001841099   -1.82844600919823
C        -1.97500194829489    1.44058141214108   -2.56496111368756
C        -2.95428268322948    0.70228061754107   -1.82620973705431
C        -3.19644392626938    1.43364601971324   -0.59695691415833
C        -2.35159817113920    2.59350715043414   -0.59661292728945
C        -2.94390498031620   -0.68662498163669   -1.84282163860499
C        -1.96187913236463   -1.42605786720746   -2.58753148724861
C        -1.57969269757382   -2.59828119435951   -1.82571280610529
C        -2.32001971439605   -2.60534274956221   -0.59476546026739
C        -3.22776808061744   -1.44196442134060   -0.60804226640109
C        -0.98949698132535   -0.74495551133923   -3.31762774368887
C        -1.00923290176250    0.73140704844733   -3.36167667216343
C         0.38549802426395    1.18697742835845   -3.31424164801061
C         1.24152435035239   -0.00186009001318   -3.35915502462015
C         0.35995157141918   -1.18552122143070   -3.31592345615318
C        -1.81969828327209    0.02640726960606    4.75105104198658
F        -0.83627777470576    0.15680212347629    5.73561366800018
F        -2.65891939290297   -0.87001217062708    5.08242354605647
F        -2.52652763690719    1.06585276638338    5.05968477678888
C        -0.54312084534369   -1.73723056685481    4.75055040884597
F        -0.10652811755698   -0.84724461710710    5.73089394583494
F        -1.66322621262795   -2.26882273067008    5.06584962809320
F         0.23014363428376   -2.73243480002278    5.05954775114333
C         4.02566077954144    1.58570950976589   -2.60448405057897
F         4.98740881902634    0.71980529343133   -2.75108125379193
F         3.84240630679421    1.93126869480963   -3.92767385732857
F         4.80399446205338    2.63469707564741   -2.00571200550798
C         4.60361026252409   -2.05574855341473    0.85296439771367
F         4.68776148527275   -2.79988797069611    1.87009610241566
F         4.98060685838226   -2.86105909358852   -0.13566727808584
F         5.54449725979469   -1.12241692339392    1.00029517644774
C         2.82834516829178   -2.05338815667799    3.72861965245491
F         3.77072916992184   -2.79901150470853    3.35561044400052
F         3.37368139908316   -1.12228693856930    4.51238129491821
F         2.13362505876021   -2.86570489656854    4.51075871218403
C         2.76361035794959    3.34324842449434   -2.58233033056157
F         2.22371131741932    4.51849047581958   -2.75751932692779
F         3.00738342443899    3.04268469126316   -3.97134831540776
F         3.97385024129090    3.74880477268621   -2.03293046422538
C         3.37066772683700    3.73585699638361    0.88814327352279
F         4.07263461817824    3.51636459309273    1.98805294360379
F         4.27312631567590    3.85632776741088   -0.10127522064825
F         2.78694450974241    4.92311689293376    1.00327262262349
C        -1.08123675518098    3.33912105880963    3.71634226898726
F        -1.46347935155509    4.50997984110176    3.22690492451846
F        -2.06402195153182    2.92474604607023    4.50377890590959
F        -0.02900511720472    3.55924722262176    4.50908224105393
C        -4.05177228798739   -1.67589238575865    2.62823162453808
F        -4.97571197894540   -0.72936481868699    2.75406370341959
F        -4.62325123382993   -2.72165694903628    2.07011534504416
F        -3.73088721155056   -2.07451458301205    3.85382430652516
C        -4.59971814819056   -2.05858320386928   -0.87450308854211
F        -4.60054457170195   -2.78503386458490   -1.98787117566631
F        -5.54063549311811   -1.12831904105136   -1.00477622890711
F        -4.98364093714071   -2.86642804373548    0.09475388929452
C        -1.44717463659946    1.04345703630187   -4.79272252114854
F        -0.75836755416393    0.49064968207311   -5.70015261718316
F        -2.67467229875603    0.61246561453693   -5.04762622481165
F        -1.40470838947080    2.35040724465393   -5.05009832957483
C         1.76772874865722   -0.01704483816038   -4.79271611429515
F         0.90164030574016   -0.05145444693713   -5.70117996764473
F         2.50686358026726    1.06882029640336   -5.07132219123150
F         2.52502517343699   -1.07583675678871   -5.04783979763267
108
 energy: -323.619768435240 gnorm: 0.686112046148 xtb: 6.4.1 (a3dbbd7)
C        -1.24916995180949    0.02044473942132    3.35825880408419
C        -0.37069008110888   -1.19662468742854    3.36135567694758
C         0.99392399835851   -0.68315227056180    3.32945036361528
C         0.98284520664801    0.71350829105960    3.31089059942863
C        -0.34125559578868    1.16080667210493    3.32899410121928
C         2.30221687315540   -2.60639726328770    0.59789975608199
C         3.25243567462872   -1.45565234667774    0.61134273057093
C         2.94517676998309   -0.65961697917823    1.81790671634947
C         2.00212979917283   -1.45214203282688    2.62596703367214
C         1.56512490150704   -2.60572354196320    1.79152188783121
C         3.19919184594156    1.39589719891632    0.59602174993931
C         2.38843698894873    2.63546660685858    0.61397207218913
C         1.56027499483936    2.57084014237220    1.85113216750504
C         1.96621297199735    1.44282324411702    2.58564945011922
C         2.94993094140559    0.69457636725829    1.82527607770989
C        -0.36850942963726    3.47471728302387    0.60691914342190
C        -1.74623896641942    3.02250231904451    0.60639496747717
C        -1.99618879592379    2.30767750917875    1.79649091913282
C        -0.76357981738101    2.35397746429809    2.62413211669557
C         0.26065961261510    3.03204836796163    1.79260799207230
C        -3.41934208151619    0.70769879960140    0.59283682000374
C        -3.40910377192742   -0.67266001964076    0.59574585990479
C        -2.85105483156173   -1.18160088681090    1.85368887212794
C        -2.43967692745833    0.03817363200937    2.55837513385546
C        -2.79460627611748    1.16214944443928    1.82661770768863
C        -1.73776646442829   -3.03140543263552    0.58926734919897
C        -0.36478700126439   -3.48356684893905    0.59454696563760
C         0.24597961756082   -3.03746237555861    1.81455471561563
C        -0.76715383219950   -2.33022641107351    2.53921848635970
C        -1.93399475012832   -2.32341907586815    1.82311104733169
C        -0.24487022123346   -3.03479313476978   -1.82506562199651
C         0.75336391308252   -2.30908602201288   -2.58316980902742
C         1.97875809203945   -2.31600152132575   -1.83278499327801
C         1.74088059524224   -3.02928325871080   -0.60007951824063
C         0.36696538420479   -3.47853880295865   -0.59989049950153
C         2.79490023522649   -1.16239375829906   -1.81784371479419
C         2.44301047435189   -0.03093943791679   -2.56505457689145
C         2.83492097282194    1.15080857110496   -1.83693086405450
C         3.41310780542527    0.69747497221697   -0.56089926796263
C         3.40978471593626   -0.70014458307943   -0.63134714906403
C         1.96994260173718    2.34225056361640   -1.83549555187666
C         0.70819380542827    2.28951041335287   -2.58918575292713
C        -0.25283840413867    3.03812393598294   -1.82720361658467
C         0.36751400819565    3.46866211014205   -0.60415752728376
C         1.70068176458762    3.04185849227762   -0.60139199629539
C        -1.58789631902337    2.58611627534610   -1.82764353782663
C        -1.98044394525332    1.44653928821071   -2.54828109179123
C        -2.95031930034323    0.70430162236694   -1.82542589874002
C        -3.19393693237864    1.44034447885211   -0.59917808489689
C        -2.35715441794610    2.58855811595695   -0.59797964385775
C        -2.93272868478675   -0.68095325547984   -1.84958222059269
C        -1.96296967978617   -1.42608828293078   -2.58320368212417
C        -1.57921288156092   -2.59632417318473   -1.82286577488642
C        -2.30604243756211   -2.60730406928463   -0.59329825279750
C        -3.24782131867699   -1.45294238536124   -0.61618806080576
C        -0.98085546525741   -0.75466751059136   -3.30877427725824
C        -1.01430019524306    0.73445765184004   -3.38690978278456
C         0.38750011116743    1.19446630607228   -3.29523829737538
C         1.24552001872845   -0.00179545975882   -3.38403513211620
C         0.34694670497530   -1.18994686617196   -3.30546712898958
C        -1.85125585088848    0.03838621511738    4.73461927062927
F        -0.90325157132168    0.28430425648175    5.76425611996847
F        -2.70490770800374   -0.80998939134773    5.09817451275787
F        -2.53723455999494    1.06993388806474    5.06057450287568
C        -0.54130008470667   -1.77152321861379    4.73358906319599
F        -0.00709078388929   -0.95067221230845    5.75551263058782
F        -1.62880621256299   -2.33629689933435    5.07072083315513
F         0.22817945994103   -2.74404061864906    5.06062893281177
C         4.04283487803226    1.55560280335447   -2.60488483960655
F         4.99402213888760    0.70419889690951   -2.74688083689909
F         3.96635670028253    1.79722735577898   -3.91600265949492
F         4.92220189724183    2.49522044952335   -1.99734946386137
C         4.61180941669256   -2.05577513495735    0.84712014095761
F         4.72286580641089   -2.80986248211855    1.83025030570208
F         4.98190830586545   -2.86162376837381   -0.14428838526312
F         5.54727025236085   -1.11780943608097    0.99902115885568
C         2.82982146432022   -2.05307710797587    3.73493767822133
F         3.75308725023797   -2.80927355628859    3.40398804475915
F         3.37352742133877   -1.11711195075781    4.51588152506117
F         2.14172262034766   -2.86890376690118    4.51315950545268
C         2.74319373587487    3.36941650998323   -2.57951797395053
F         2.20987775828109    4.52816230836632   -2.75583260314386
F         2.89784276305599    3.18930178921497   -3.99090739703028
F         3.86879819428852    3.89811023171009   -2.05411203395671
C         3.37589835225785    3.74176404854301    0.89233192190030
F         4.07339168457382    3.51660998602925    1.99045268429781
F         4.27803293642172    3.85780730164393   -0.08459271767902
F         2.78597641556591    4.92418975871356    1.00366666973484
C        -1.08211042409755    3.34702135471336    3.71899172924191
F        -1.46369697413571    4.51327845052924    3.22681920836060
F        -2.06293490457045    2.93965608525880    4.50194272600495
F        -0.02710628992004    3.55968282270005    4.51080959335903
C        -4.05972012440566   -1.67727827602043    2.63036172610955
F        -4.97825167483851   -0.72788350948736    2.75514889148177
F        -4.62222591694311   -2.72340680044924    2.08353497131764
F        -3.73759074739698   -2.08349729271733    3.84899932738064
C        -4.60743051550069   -2.06190284299727   -0.87800462797350
F        -4.60167751977618   -2.78669748170962   -1.99110165676227
F        -5.54265724806266   -1.12670291287053   -1.00532891463715
F        -4.98802488632316   -2.87019488291415    0.08231047383888
C        -1.45511044551974    1.04840571760277   -4.79623197628332
F        -0.80915851961054    0.50323671568606   -5.71215988637210
F        -2.68285727241791    0.61287811977375   -5.04475429471457
F        -1.40588159083016    2.35573979069487   -5.04888271721351
C         1.77519444274284   -0.02013018154465   -4.79665149349679
F         0.94849755878565   -0.07193180585488   -5.71476995455859
F         2.49861799684912    1.06544982748169   -5.08135671699843
F         2.53175055762988   -1.08046069976627   -5.04458778002103
108
 energy: -323.918118953856 gnorm: 0.446864571478 xtb: 6.4.1 (a3dbbd7)
C        -1.26268348813247    0.02136468191044    3.40014963007762
C        -0.37836071253166   -1.21021264836039    3.39771652849506
C         0.98987649865802   -0.67581039287093    3.31453560573673
C         0.97871690883303    0.71264310132161    3.29629358989609
C        -0.33502071040372    1.15953890281829    3.31516640630603
C         2.28865860537758   -2.60221028948561    0.59169425471357
C         3.27830295680051   -1.47088994941324    0.61680432994047
C         2.93578087711932   -0.65617668438033    1.81108176786807
C         2.01891159466556   -1.46702914252710    2.64626531460968
C         1.55498448906379   -2.60167479606904    1.77931995497880