63
 energy: -142.081297456558 gnorm: 0.136654480876 xtb: 6.4.1 (a3dbbd7)
C        -1.29585809763920    0.00401118881931    3.54517689231029
C        -0.36796043466059   -1.17243305044266    3.30515820987539
C         0.98298838984909   -0.72191219210780    3.27512267957929
C         0.98156472691728    0.71960753564614    3.26971969840148
C        -0.37066843430553    1.17924059866277    3.30150764324135
C         2.33648296598357   -2.58548060321166    0.57950289371033
C         3.18657767566203   -1.41946403917212    0.57781419536533
C         2.94957050634668   -0.69854930588343    1.80123308089156
C         1.95308396825138   -1.41752165469557    2.55613481597303
C         1.57961582984989   -2.57968580834158    1.80518673258983
C         3.18767024138397    1.40991878537575    0.57593180017933
C         2.33807592119235    2.57402574463448    0.57591940987423
C         1.57683795447400    2.56605672116665    1.79975339077111
C         1.95304946478205    1.40835201085528    2.55205927541471
C         2.95072023090319    0.68875745027160    1.80098024590342
C        -0.36516779392141    3.42666371311492    0.57921714402649
C        -1.72924376731069    3.01648005687427    0.58287705229366
C        -2.09463355901587    2.46231282969886    1.94730853737491
C        -0.73027134368917    2.28553619224850    2.58224921046650
C         0.24829448370074    2.97593693088527    1.80334175247540
C        -3.37466967439567    0.70300551329579    0.57574930039426
C        -3.39003092771629   -0.73268815670587    0.56838248256510
C        -2.76818811346571   -1.16356142396752    1.78871572205038
C        -2.38904763717889    0.02437925858140    2.53264263708558
C        -2.74834472581071    1.12995086235998    1.81420011509538
C        -1.73481952354600   -3.00995345707075    0.57938225067925
C        -0.36149853487188   -3.44686666226009    0.58178847329193
C         0.25217194576597   -2.99475012297255    1.80551622011247
C        -0.72930832450935   -2.27346636848304    2.56467955460776
C        -1.97147545437730   -2.28746259180062    1.79868366143107
C        -0.24419850633136   -3.01431906314620   -1.82647673825261
C         0.74940205395547   -2.29291975806330   -2.58286291039202
C         1.97453700920709   -2.29239152825096   -1.82543977569151
C         1.74139873391846   -3.01127177396538   -0.59946235539016
C         0.36858334361035   -3.45436466601281   -0.59762914030018
C         2.79442417375665   -1.17031401238235   -1.82833550582627
C         2.41574661868216   -0.00512369138436   -2.58546959698227
C         2.79806943058290    1.16104826437995   -1.83045397159780
C         3.41356646756867    0.71553904959985   -0.60565027126811
C         3.41126633543504   -0.72579612437446   -0.60436594375932
C         1.98256115237360    2.28538932475628   -1.82964816243890
C         0.75350030248264    2.28551308222168   -2.58573232043658
C        -0.23508280223273    3.00436687434747   -1.82344140510130
C         0.37359850933878    3.44286488634390   -0.60220138875814
C         1.74684322375821    3.00246743965493   -0.60372642363152
C        -1.55566653240424    2.56818250404503   -1.80941223602174
C        -1.93859434660526    1.40592010808590   -2.57168095899201
C        -2.93551210472019    0.68461262540438   -1.82146846795257
C        -3.16898901543324    1.39767486955451   -0.59605965569985
C        -2.30435127708354    2.57332623889815   -0.58497549494069
C        -2.94114405324375   -0.70773319319533   -1.83440725651199
C        -1.94505174587464   -1.42387954866205   -2.59102123509086
C        -1.56548890453788   -2.59170746569988   -1.83211639417485
C        -2.32839595521473   -2.59312664308342   -0.60918315809929
C        -3.17773883520354   -1.43218193780650   -0.61434027481289
C        -0.98775846768414   -0.72638522805960   -3.31322849835342
C        -0.98659864734294    0.71557045446948   -3.30737103344774
C         0.38544609972999    1.16109326157285   -3.31071431262535
C         1.23106807690940   -0.00470839623161   -3.31198800118088
C         0.38446650877846   -1.17000629315169   -3.31255499434049
Cl       -1.95494402211016   -0.00808767691631    5.23350834623694
Cl       -3.13453400293270    3.62205440046694    2.87428256889563
Cl        4.45187837800191   -1.07415346050770    2.73829902189663
63
 energy: -142.105524471519 gnorm: 0.058517790537 xtb: 6.4.1 (a3dbbd7)
C        -1.29714500858166    0.00456466296072    3.54409381953133
C        -0.37392404589591   -1.17475596943454    3.30442442674618
C         0.97354262083390   -0.72293604844812    3.26453359427791
C         0.97755320237096    0.72252826375883    3.26561033870234
C        -0.37107215818587    1.17995661480615    3.29955539771767
C         2.32827840076407   -2.58066329701786    0.57233496526137
C         3.17738229943958   -1.42465899054699    0.56455059691594
C         3.04052889450012   -0.72310327080337    1.85769142661046
C         1.93832290453948   -1.42144512433462    2.55299358145289
C         1.56992114495194   -2.57349085966161    1.79956831277048
C         3.17362721139035    1.41463780417005    0.57628344892044
C         2.33142189995032    2.58572987570631    0.57403490897714
C         1.57160915224467    2.57879903407728    1.79615508718665
C         1.94612261113119    1.41338808633624    2.53976210235911
C         2.95772030400749    0.71318817531959    1.80457094512991
C        -0.36969533501902    3.43133596595807    0.57776578253550
C        -1.73248656097238    3.01829498586556    0.58226245687456
C        -2.09672100887928    2.46347959170485    1.94676290964094
C        -0.73272327283866    2.29057443035177    2.58177423961858
C         0.24315048830205    2.98437013210691    1.80268262245199
C        -3.37573843548017    0.70339790455335    0.57528664841576
C        -3.39140049450151   -0.73244997546870    0.56772939299134
C        -2.76994360924403   -1.16347495279835    1.78758207696009
C        -2.39010362066512    0.02462340486203    2.53173688797439
C        -2.74940513204275    1.13028617797046    1.81360068372272
C        -1.73867045160673   -3.01168196968188    0.57786470206907
C        -0.36607039796175   -3.44925990107810    0.57966671767819
C         0.24389484528998   -2.99790404612398    1.80488235873924
C        -0.73524621811846   -2.27742717554814    2.56408337060074
C        -1.97552909737846   -2.28916551122466    1.79719770888106
C        -0.24744329567071   -3.01642743173848   -1.82932527969408
C         0.74652757788054   -2.29554819003485   -2.58609368142041
C         1.97210288312403   -2.29805333647221   -1.83145660442500
C         1.73731175756259   -3.01493271704765   -0.60702359392841
C         0.36455906500999   -3.45665895315718   -0.60060841424601
C         2.79187999928157   -1.17421804684256   -1.83451918377825
C         2.41330223744687   -0.00625317913950   -2.58556555926188
C         2.79633394483688    1.16094370171203   -1.82944867948572
C         3.40863378931319    0.71793390956940   -0.60821360697646
C         3.39747882360817   -0.72780235676123   -0.60891694910301
C         1.98028301632003    2.28920870922387   -1.83156356740300
C         0.75286659604032    2.28645048760206   -2.58581687634337
C        -0.23745529451092    3.00561118841543   -1.82452150583093
C         0.36930172137729    3.44717006603271   -0.60399555043842
C         1.74269204856728    3.00921165948604   -0.60664125129274
C        -1.55700591602518    2.56823793292133   -1.80995964417431
C        -1.93946554319435    1.40572289584247   -2.57235952864529
C        -2.93551150212083    0.68454965350911   -1.82225087255330
C        -3.16960245994941    1.39776658860396   -0.59642886255156
C        -2.30627598079725    2.57378699812423   -0.58558290656572
C        -2.94212115415910   -0.70779863909872   -1.83546961392625
C        -1.94646453786864   -1.42401110512293   -2.59224461478208
C        -1.56796242957929   -2.59206416881888   -1.83379643207957
C        -2.33095082927176   -2.59326474088501   -0.61075629334789
C        -3.17900840203894   -1.43197856720394   -0.61544287204972
C        -0.98858897611326   -0.72669794639717   -3.31415238101454
C        -0.98667476216241    0.71560696440275   -3.30789538115782
C         0.38448009262303    1.16097900478670   -3.31167739251929
C         1.22934483375908   -0.00533938854108   -3.31224861742758
C         0.38281290473114   -1.17093252528038   -3.31389967526797
Cl       -1.95516996203786   -0.00760936921440    5.23269038556953
Cl       -3.13714946548976    3.62180476259525    2.87479502975398
Cl        4.57756324494598   -1.11453900112534    2.81395559764180
63
 energy: -142.111530989507 gnorm: 0.013437982350 xtb: 6.4.1 (a3dbbd7)
C        -1.29803668954642    0.00544459449553    3.54041431100292
C        -0.37282326114618   -1.17095834588358    3.29637031675033
C         0.97640491704037   -0.72380780007816    3.25871701014655
C         0.97754943664025    0.72403537413471    3.26667461722847
C        -0.36967499333513    1.17905273370102    3.29601310619839
C         2.32593399571728   -2.56911850280496    0.56968474344709
C         3.18168176419677   -1.42804551278100    0.56359192444531
C         3.12000462115148   -0.74741415686118    1.90668183582820
C         1.94056541515317   -1.42336203779564    2.55610189775360
C         1.56704423749885   -2.56035709558782    1.79719422266494
C         3.16508539601751    1.40819909339223    0.58021805465907
C         2.32517456546198    2.58403688891866    0.57272275729860
C         1.56752501962042    2.57790096312579    1.79268935471348
C         1.94533618045619    1.40727367374727    2.53103946676476
C         2.95510082854130    0.71600811362414    1.80227244158537
C        -0.37409787343264    3.43454649909587    0.57654423034237
C        -1.73657100910203    3.02027229746180    0.58083406273790
C        -2.09962048395663    2.46445916658281    1.94552632312443
C        -0.73550322744323    2.29292399590767    2.58055068447055
C         0.23925521818604    2.98550375583494    1.80078534359366
C        -3.37862491063299    0.70434081698131    0.57337066957828
C        -3.39411881583468   -0.73169303870855    0.56566937156922
C        -2.77301362198318   -1.16282584410505    1.78522827594950
C        -2.39218844287415    0.02559163495391    2.52924397057010
C        -2.75218917733032    1.13114229621262    1.81167648594769
C        -1.74248294828715   -3.01156864151843    0.57533725538261
C        -0.36936687950488   -3.44726911717653    0.57760265868142
C         0.24062229165594   -2.99307637849116    1.80207938107454
C        -0.73750537175641   -2.27514333671581    2.55891989426716
C        -1.97973402955814   -2.28952367270332    1.79516433984662
C        -0.25152375537118   -3.01688083426028   -1.83190889821997
C         0.74294122983050   -2.29708495792424   -2.58958133742777
C         1.96702540932717   -2.29830399062791   -1.83237338599930
C         1.73382496224161   -3.01174301218312   -0.60919755949848
C         0.36130292591478   -3.45501728292747   -0.60264173252644
C         2.78493834122660   -1.17282360840637   -1.83053562806558
C         2.40874588478427   -0.00634458383511   -2.58379934799784
C         2.79301548260075    1.15986303821348   -1.82575086766153
C         3.40906724769458    0.71886819131715   -0.60936250440067
C         3.39332590883287   -0.73028001447860   -0.60454226114306
C         1.97632623947171    2.29076201370789   -1.83329214461282
C         0.75048764193936    2.28673132196649   -2.58626121694477
C        -0.24118602323702    3.00689145954619   -1.82610311366103
C         0.36517753660773    3.45006438608231   -0.60577082261940
C         1.73792856052364    3.00965324681297   -0.60782433176347
C        -1.56002004562840    2.56884089001187   -1.81152132021799
C        -1.94257883181199    1.40610084139141   -2.57409155434062
C        -2.93779145148121    0.68499873955131   -1.82427238289515
C        -3.17219241338600    1.39858530455019   -0.59811104045412
C        -2.30970400582351    2.57471437906574   -0.58711359490409
C        -2.94547496598263   -0.70730756420921   -1.83787719818191
C        -1.95001150416415   -1.42375684179003   -2.59460528601374
C        -1.57210531635049   -2.59195282637178   -1.83650310848591
C        -2.33516904626258   -2.59293924661983   -0.61342151386336
C        -3.18225113820860   -1.43145550077168   -0.61785767990438
C        -0.99134238498601   -0.72650437971399   -3.31578130884616
C        -0.98905506064594    0.71606360089439   -3.30919517711109
C         0.38136942440938    1.16108213711856   -3.31333282069610
C         1.22627297646810   -0.00532327067090   -3.31286278797444
C         0.37964062187461   -1.17130436209847   -3.31607063725338
Cl       -1.95475081820910   -0.00634507803230    5.22955647591020
Cl       -3.14201787304602    3.62107386961093    2.87408264606390
Cl        4.67187724701645   -1.13790160359558    2.86961156707600
63
 energy: -142.111846588311 gnorm: 0.008113567103 xtb: 6.4.1 (a3dbbd7)
C        -1.29669429052600    0.00576403978351    3.53771193998951
C        -0.37013872846891   -1.16903651555731    3.29255423475633
C         0.98090647362747   -0.72421222074199    3.26047257100957
C         0.97797971433195    0.72475947132203    3.26921863331428
C        -0.36903028053697    1.17966399879028    3.29529577785963
C         2.32750575496220   -2.56535843021387    0.57037904159872
C         3.19049686211024   -1.43023628136483    0.56787482654682
C         3.13930539832409   -0.75485716392496    1.91868665640611
C         1.94844490170402   -1.42479952475633    2.56183397945317
C         1.56842903836368   -2.55583013015570    1.79791161814701
C         3.16507981640237    1.40371702859402    0.58219208800548
C         2.32297399392969    2.57991592911971    0.57221213369976
C         1.56622137247848    2.57423852471040    1.79140566187805
C         1.94716208774359    1.40337926456445    2.53057817023103
C         2.95353520770316    0.71107791807688    1.80139674697630
C        -0.37539991527023    3.43496378939308    0.57604224070225
C        -1.73816863056060    3.02119183775825    0.58011706607664
C        -2.10089644092116    2.46480161469428    1.94483811797450
C        -0.73670055001360    2.29354845446478    2.58022241418719
C         0.23829156742086    2.98424552108368    1.79968323169308
C        -3.38032680589649    0.70499612826998    0.57224390662102
C        -3.39594148184410   -0.73109782087652    0.56453249968597
C        -2.77416327034291   -1.16199499321897    1.78379208412313
C        -2.39203878879529    0.02623210539561    2.52745745014288
C        -2.75318122187498    1.13158166316005    1.81040867879956
C        -1.74402115374253   -3.01066681920034    0.57415191823724
C        -0.37032295629087   -3.44453500084713    0.57661178987091
C         0.24114734244232   -2.98893291578427    1.79985778932559
C        -0.73716481352796   -2.27277834749106    2.55610289484423
C        -1.98094539043365   -2.28865084822861    1.79402889656726
C        -0.25342419189668   -3.01642551628017   -1.83282383798793
C         0.74123746552831   -2.29698695375176   -2.59048100591096
C         1.96475590360829   -2.29706169715321   -1.83122181027141
C         1.73241711327928   -3.00870374521072   -0.60790075133181
C         0.36005900276152   -3.45264936516435   -0.60306701154015
C         2.78192945518191   -1.17161710066884   -1.82638041191277
C         2.40621372453693   -0.00644468741784   -2.58166359725666
C         2.79194750809480    1.15936777002276   -1.82441487235357
C         3.41129036947873    0.71885370006772   -0.61017553811826
C         3.39646830775548   -0.73153695438721   -0.60142391292044
C         1.97470724154939    2.29027350336869   -1.83385915658728
C         0.74927222370901    2.28639557335427   -2.58658880437001
C        -0.24263613486787    3.00726283057748   -1.82691335599588
C         0.36395784030105    3.45023242485452   -0.60637257385788
C         1.73616383469568    3.00801098524284   -0.60779495302275
C        -1.56147492281841    2.56939353042639   -1.81248313432113
C        -1.94436926660134    1.40656156799182   -2.57518445256566
C        -2.93947506431117    0.68553011758380   -1.82545187762780
C        -3.17384886630324    1.39935473826084   -0.59914850808599
C        -2.31132328332367    2.57543594473845   -0.58794827105027
C        -2.94766589328987   -0.70685256610127   -1.83920842474492
C        -1.95231168634808   -1.42362814636436   -2.59604643941457
C        -1.57436028236302   -2.59185810825602   -1.83788759030164
C        -2.33751828601850   -2.59266525908720   -0.61466188530798
C        -3.18450798585737   -1.43110192048056   -0.61910946528351
C        -0.99326074010419   -0.72635141502827   -3.31691103006469
C        -0.99070444206173    0.71632317825816   -3.31013499231424
C         0.37970930910845    1.16102755460613   -3.31413636361527
C         1.22461009312975   -0.00533465051104   -3.31244567254202
C         0.37774508431068   -1.17118945974367   -3.31668268616159
Cl       -1.95330582936828   -0.00927629681398    5.22664764231373
Cl       -3.14548598027149    3.62001549953601    2.87315875517932
Cl        4.68866872406047   -1.13785247500537    2.87950806361146
63
 energy: -142.111945243776 gnorm: 0.004745109877 xtb: 6.4.1 (a3dbbd7)
C        -1.29582646073572    0.00582666208673    3.53668634545094
C        -0.36869248781559   -1.16814044415454    3.29056197749266
C         0.98302985377431   -0.72419540524255    3.26175458631039
C         0.97754973501216    0.72545301629997    3.27121956716007
C        -0.36905240819064    1.18031167332273    3.29561566220436
C         2.32789389414917   -2.56302364180067    0.57057260142703
C         3.19531771266090   -1.43094729760771    0.57042204860075
C         3.14702752124470   -0.75808014538254    1.92358037643047
C         1.95285935351146   -1.42500779108774    2.56496403947015
C         1.56867662320652   -2.55301271797072    1.79811565697100
C         3.16531090407681    1.40081238378460    0.58291623792295
C         2.32173931317786    2.57720593919916    0.57181447328537
C         1.56552385624036    2.57176340062225    1.79056024335604
C         1.94808500317865    1.40095257711961    2.53071814064339
C         2.95105031775416    0.70702086595733    1.79997285358147
C        -0.37546629556861    3.43489476571565    0.57595447058589
C        -1.73845754505386    3.02165149361165    0.58000823102105
C        -2.10136847108058    2.46500602280985    1.94469831311521
C        -0.73735985935175    2.29395918503940    2.58045703437333
C         0.23809139264540    2.98344752637848    1.79932474817130
C        -3.38095579518702    0.70530033130802    0.57193766531348
C        -3.39686017173092   -0.73081486961368    0.56424031242658
C        -2.77470626013315   -1.16153356209561    1.78331599979196
C        -2.39175542853931    0.02653281478622    2.52686738183962
C        -2.75328451609732    1.13175801484364    1.80999365913788
C        -1.74488188109976   -3.01034984641408    0.57387337434976
C        -0.37083010249544   -3.44292923904256    0.57615140660364
C         0.24139219037429   -2.98636255017496    1.79838354963028
C        -0.73714014209677   -2.27149373440683    2.55481715527082
C        -1.98167468051797   -2.28822201299704    1.79368275516089
C        -0.25418865678968   -3.01632764059352   -1.83335358354329
C         0.74048249626973   -2.29703110253403   -2.59104165892607
C         1.96379622238429   -2.29646751775118   -1.83075113849809
C         1.73138011689146   -3.00678711173578   -0.60698179206952
C         0.35941982141195   -3.45125599214522   -0.60318871771900
C         2.78046234518055   -1.17115211534409   -1.82416544533487
C         2.40505584645108   -0.00658119362505   -2.58051446540615
C         2.79196001738093    1.15926873057121   -1.82439295781473
C         3.41293907923907    0.71906751632995   -0.61146617574318
C         3.39814521667932   -0.73199825762122   -0.60010535551869
C         1.97433963196360    2.28994743499675   -1.83444698905341
C         0.74912259499213    2.28613506072782   -2.58686365115918
C        -0.24280334853279    3.00738207917145   -1.82727376645630
C         0.36392979219127    3.45005426952136   -0.60653813993694
C         1.73574425717208    3.00710139478733   -0.60780746215083
C        -1.56161665403097    2.56959938656864   -1.81276329388606
C        -1.94476024164623    1.40668212499172   -2.57550112960036
C        -2.93978441216335    0.68571308944939   -1.82572658310416
C        -3.17416861653881    1.39971651235796   -0.59937420311864
C        -2.31155204037807    2.57572425024932   -0.58810125926253
C        -2.94839977612250   -0.70669480197868   -1.83956948772748
C        -1.95319880051175   -1.42370783463409   -2.59657995949675
C        -1.57532976585703   -2.59204003450433   -1.83845395689464
C        -2.33864005019667   -2.59274636724061   -0.61505017745101
C        -3.18546286655533   -1.43102086478792   -0.61944175824280
C        -0.99401546102359   -0.72638488740638   -3.31744796113068
C        -0.99118890628101    0.71633857194688   -3.31056285916889
C         0.37926491323883    1.16090047644612   -3.31463056910630
C         1.22410419681397   -0.00544611415273   -3.31236158660736
C         0.37697050113002   -1.17118282965135   -3.31690198198545
Cl       -1.95254141091567   -0.01307293982994    5.22548554783685
Cl       -3.14738496986322    3.61947319707997    2.87275223803330
Cl        4.69050892048675   -1.13339702627073    2.88054654613321
63
 energy: -142.111986434856 gnorm: 0.002544656244 xtb: 6.4.1 (a3dbbd7)
C        -1.29561324370217    0.00571329239790    3.53677775102712
C        -0.36829510894309   -1.16797718181559    3.28993209983569
C         0.98331989444504   -0.72411078143707    3.26197656597802
C         0.97694825439530    0.72579339033821    3.27214565476344
C        -0.36926580979189    1.18056768990926    3.29631858515938
C         2.32753245560784   -2.56199492359409    0.57037900897422
C         3.19631638650217   -1.43081960290463    0.57106735642063
C         3.14934555739471   -0.75888699196138    1.92506506733431
C         1.95387148009375   -1.42463361150426    2.56550640196270
C         1.56824549524930   -2.55179089773351    1.79793323490184
C         3.16508577527467    1.39946991958513    0.58290542462115
C         2.32129420511677    2.57621883861284    0.57166156207100
C         1.56533951410931    2.57084573337784    1.79019789450195
C         1.94813530790493    1.39985332114533    2.53063123023605
C         2.94866126716197    0.70481381514653    1.79852210925347
C        -0.37504946480953    3.43467751461859    0.57610666988985
C        -1.73813842016344    3.02176182350091    0.58017097100458
C        -2.10123946147683    2.46506086654725    1.94482453925768
C        -0.73752250914214    2.29410777804915    2.58090367202607
C         0.23825265524345    2.98318155575339    1.79947915531576
C        -3.38089474310212    0.70538531960225    0.57203978405166
C        -3.39702597968319   -0.73072218272763    0.56437931019881
C        -2.77483899235477   -1.16141207868974    1.78341219549968
C        -2.39162819675236    0.02660040862780    2.52700815357561
C        -2.75295548154013    1.13177362532897    1.81003542157424
C        -1.74516924620919   -3.01040134046691    0.57404829185086
C        -0.37099877667109   -3.44249150596322    0.57610107372641
C         0.24137238492125   -2.98556275110126    1.79784271766608
C        -0.73733035276144   -2.27121670989838    2.55465852634295
C        -1.98199540355123   -2.28820692840743    1.79380463723157
C        -0.25425299839596   -3.01643044182390   -1.83354055679237
C         0.74036268130792   -2.29721546885518   -2.59131432547847
C         1.96368515733936   -2.29649496268656   -1.83080816113005
C         1.73090315294093   -3.00623354178116   -0.60666502194020
C         0.35924849880654   -3.45088442561214   -0.60316649787079
C         2.78010938062392   -1.17124227099190   -1.82358427762323
C         2.40497286249613   -0.00673799165063   -2.58029736988184
C         2.79246085415666    1.15927789784565   -1.82485345987927
C         3.41365683002836    0.71922316347035   -0.61244037186626
C         3.39826561075751   -0.73210034477088   -0.59997093082449
C         1.97462462074703    2.28983768464572   -1.83482708908133
C         0.74948967075374    2.28602018240993   -2.58692772189038
C        -0.24243381583052    3.00735233768512   -1.82725720753583
C         0.36434888226790    3.44984585806041   -0.60643105120923
C         1.73602290060137    3.00691115764117   -0.60783050142954
C        -1.56119259504088    2.56959584500384   -1.81263185269411
C        -1.94443685047763    1.40665435503482   -2.57536896792334
C        -2.93941726626069    0.68574481107167   -1.82555658874092
C        -3.17380279003870    1.39980945681550   -0.59920455875681
C        -2.31116124216748    2.57574743697041   -0.58793330611869
C        -2.94826379336774   -0.70663556871199   -1.83941414850311
C        -1.95315441997504   -1.42375039599106   -2.59649366289565
C        -1.57543133039910   -2.59217464627296   -1.83846443053187
C        -2.33883363767560   -2.59285186151763   -0.61496593710198
C        -3.18547215158744   -1.43099932938505   -0.61930085471353
C        -0.99397390441584   -0.72642214568932   -3.31746579274083
C        -0.99098921957916    0.71630318618179   -3.31056962570556
C         0.37949761988549    1.16080271158392   -3.31476481903820
C         1.22429701302014   -0.00556098365100   -3.31247457489326
C         0.37694495493403   -1.17123960003969   -3.31685806813021
Cl       -1.95237472895346   -0.01559456207227    5.22560080029730
Cl       -3.14796972201129    3.61932928430241    2.87258307171727
Cl        4.68633549052639   -1.12789135327255    2.87796992764266
63
 energy: -142.111999283977 gnorm: 0.001390664010 xtb: 6.4.1 (a3dbbd7)
C        -1.29578654057196    0.00558107569832    3.53720235189892
C        -0.36849970769056   -1.16821307015480    3.29016752244733
C         0.98283059038260   -0.72416245286077    3.26168220954083
C         0.97671871500434    0.72573540411400    3.27211979228257
C        -0.36936809835486    1.18046565539258    3.29676209551844
C         2.32720871472879   -2.56218166286075    0.57018236772674
C         3.19537928721252   -1.43063904476279    0.57059474840110
C         3.14926224563305   -0.75856946969150    1.92500513765352
C         1.95302931226905   -1.42444247672972    2.56481373350093
C         1.56789920789149   -2.55201701934111    1.79777246794975
C         3.16472149707479    1.39947169719050    0.58263724705757
C         2.32145213133387    2.57651971579437    0.57172994061791
C         1.56550922826528    2.57114521080413    1.79027718386550
C         1.94778128234320    1.39987142233700    2.53041344307762
C         2.94754741292826    0.70456103989991    1.79779804124503
C        -0.37472662227156    3.43459172903207    0.57626585212263
C        -1.73779480633325    3.02168625151774    0.58033189412497
C        -2.10093985790460    2.46502299077202    1.94497023576000
C        -0.73737425315848    2.29406652687308    2.58115100665678
C         0.23844509349325    2.98328925058469    1.79975749366051
C        -3.38062452893612    0.70535958446916    0.57221036313224
C        -3.39682416882102   -0.73074195901491    0.56457193273861
C        -2.77477298577780   -1.16151545733219    1.78365456254956
C        -2.39165207538890    0.02653320864047    2.52731454738416
C        -2.75268505989908    1.13172654322021    1.81021051285954
C        -1.74509329417911   -3.01054750154598    0.57422731005049
C        -0.37096622119904   -3.44280892619115    0.57621316398044
C         0.24126489974688   -2.98601828181950    1.79801534396779
C        -0.73749664800324   -2.27154380505507    2.55500879051304
C        -1.98198769389369   -2.28839001432406    1.79400286378843
C        -0.25408009054107   -3.01653824600708   -1.83349453749501
C         0.74051394371019   -2.29736602981138   -2.59131976761721
C         1.96391614925591   -2.29677593408304   -1.83102397402784
C         1.73095806411411   -3.00662465757123   -0.60679986845405
C         0.35932911239802   -3.45116717134199   -0.60313162502105
C         2.78036932178422   -1.17151567174979   -1.82394025297183
C         2.40537144154672   -0.00684052788742   -2.58059811977097
C         2.79287744804823    1.15925307716137   -1.82516336029646
C         3.41364703656325    0.71918171699122   -0.61265678730458
C         3.39781216520261   -0.73214365120348   -0.60030939394494
C         1.97499375294327    2.28986789423874   -1.83488418989051
C         0.74982893614150    2.28603487669188   -2.58683515005905
C        -0.24211646399405    3.00730219248055   -1.82708885612056
C         0.36466282487892    3.44980282051638   -0.60628410082198
C         1.73640276283382    3.00709487910436   -0.60784562844516
C        -1.56085837513506    2.56955821235050   -1.81243292783325
C        -1.94409592851601    1.40664297647291   -2.57517508861011
C        -2.93909338968365    0.68576179292808   -1.82536730119866
C        -3.17344968941561    1.39979174817709   -0.59901212342141
C        -2.31081868081820    2.57569733111917   -0.58776166510994
C        -2.94795407447429   -0.70659924726765   -1.83920230631441
C        -1.95284733012183   -1.42370705497917   -2.59625592913106
C        -1.57520716453005   -2.59216134817565   -1.83829256367047
C        -2.33860730728856   -2.59285332053894   -0.61480450534934
C        -3.18516873434481   -1.43097320560901   -0.61911079590648
C        -0.99369004662574   -0.72640525103819   -3.31728147661523
C        -0.99068035346199    0.71631300824113   -3.31041308462370
C         0.37982051017878    1.16079215910977   -3.31468190467977
C         1.22460933271743   -0.00560875181926   -3.31257655519124
C         0.37717997390094   -1.17129408211572   -3.31675389311427
Cl       -1.95255804708035   -0.01599908886723    5.22607213882223
Cl       -3.14770939042706    3.61943509188362    2.87260929092139