63
 energy: -142.083767229826 gnorm: 0.138064574732 xtb: 6.4.1 (a3dbbd7)
C        -1.29585809770389    0.00401118895665    3.54517689253707
C        -0.36796043462932   -1.17243305037605    3.30515820978008
C         0.98298838983527   -0.72191219207564    3.27512267938171
C         0.98156472667820    0.71960753568128    3.26971969810914
C        -0.37066843460465    1.17924059903467    3.30150764336582
C         2.33648296603916   -2.58548060331365    0.57950289353032
C         3.18657767574002   -1.41946403927647    0.57781419519059
C         2.94957050639235   -0.69854930596759    1.80123308070154
C         1.95308396824160   -1.41752165468763    2.55613481575760
C         1.57961582989334   -2.57968580837377    1.80518673242103
C         3.18767024140451    1.40991878522763    0.57593180000620
C         2.33807592116844    2.57402574447607    0.57591940981122
C         1.57683795432701    2.56605672107525    1.79975339071644
C         1.95304946465436    1.40835201077487    2.55205927518980
C         2.95072023087345    0.68875745016373    1.80098024572921
C        -0.36516779407368    3.42666371337356    0.57921714423118
C        -1.72924376763824    3.01648005769000    0.58287705261872
C        -2.09463355992581    2.46231283092052    1.94730853815858
C        -0.73027134402217    2.28553619303067    2.58224921102021
C         0.24829448349984    2.97593693112150    1.80334175266563
C        -3.37466967425340    0.70300551354290    0.57574930054980
C        -3.39003092747716   -0.73268815647906    0.56838248265369
C        -2.76818811332164   -1.16356142379097    1.78871572221350
C        -2.38904763706855    0.02437925876362    2.53264263719760
C        -2.74834472563595    1.12995086275151    1.81420011519069
C        -1.73481952350512   -3.00995345714269    0.57938225060336
C        -0.36149853481650   -3.44686666227317    0.58178847315895
C         0.25217194581416   -2.99475012292755    1.80551621994623
C        -0.72930832442940   -2.27346636839910    2.56467955448571
C        -1.97147545426586   -2.28746259170963    1.79868366133100
C        -0.24419850626392   -3.01431906333444   -1.82647673840836
C         0.74940205407495   -2.29291975825760   -2.58286291053874
C         1.97453700933417   -2.29239152843074   -1.82543977586922
C         1.74139873400736   -3.01127177410490   -0.59946235558356
C         0.36858334367966   -3.45436466613801   -0.59762914044760
C         2.79442417392884   -1.17031401259636   -1.82833550603033
C         2.41574661888024   -0.00512369156855   -2.58546959716668
C         2.79806943075341    1.16104826420258   -1.83045397172065
C         3.41356646771945    0.71553904943849   -0.60565027142670
C         3.41126633561149   -0.72579612454708   -0.60436594395851
C         1.98256115248497    2.28538932455247   -1.82964816243281
C         0.75350030257848    2.28551308199782   -2.58573232036207
C        -0.23508280213456    3.00436687409655   -1.82344140492918
C         0.37359850932028    3.44286488622179   -0.60220138863872
C         1.74684322376492    3.00246743943424   -0.60372642363492
C        -1.55566653231806    2.56818250386052   -1.80941223575869
C        -1.93859434646944    1.40592010794080   -2.57168095880615
C        -2.93551210457882    0.68461262535792   -1.82146846772098
C        -3.16898901542976    1.39767486975662   -0.59605965548237
C        -2.30435127723071    2.57332623923171   -0.58497549467516
C        -2.94114405309208   -0.70773319324488   -1.83440725641731
C        -1.94505174577217   -1.42387954875747   -2.59102123506710
C        -1.56548890447542   -2.59170746585215   -1.83211639425372
C        -2.32839595515909   -2.59312664323360   -0.60918315818311
C        -3.17773883494341   -1.43218193772331   -0.61434027474195
C        -0.98775846759569   -0.72638522820754   -3.31322849837523
C        -0.98659864719709    0.71557045430270   -3.30737103326374
C         0.38544609985482    1.16109326139683   -3.31071431261235
C         1.23106807703669   -0.00470839638716   -3.31198800126459
C         0.38446650889097   -1.17000629330740   -3.31255499443923
Cl       -1.95494402230001   -0.00808767739961    5.23350834621500
Cl       -3.13453400437008    3.62205440029917    2.87428256883422
Cl        5.15849529905447    1.07488895367611   -0.92532357325249
63
 energy: -142.107943998943 gnorm: 0.059929761322 xtb: 6.4.1 (a3dbbd7)
C        -1.29841192161604    0.00363277513314    3.54704053998943
C        -0.36878578557787   -1.17154509720249    3.30689097285013
C         0.97950491613259   -0.72067389496597    3.27880008787149
C         0.97622354915546    0.72151418968132    3.27717931822677
C        -0.37551792458062    1.18034591219135    3.30576368190287
C         2.33331770390145   -2.59200245412663    0.57807413941054
C         3.17204155827701   -1.42172792227440    0.57416908812326
C         2.94273488653203   -0.69789024825826    1.80328887356240
C         1.95138982711253   -1.41565277361504    2.55516990060179
C         1.57738224515124   -2.57955272304741    1.80325730497121
C         3.19014641942037    1.42479420903584    0.59759417423633
C         2.32772363440694    2.56720231399955    0.58489121922149
C         1.56908381161518    2.56989455738762    1.81152520177848
C         1.94475896500397    1.41387770824244    2.56272998752702
C         2.93643483582105    0.69408406250036    1.80206242964620
C        -0.36869437887793    3.42794393121634    0.58291071570340
C        -1.73012146145975    3.01747195547514    0.58466821011155
C        -2.09759984671603    2.46308580124908    1.94860573659185
C        -0.73515794563887    2.28688376734070    2.58652136312182
C         0.24241918085023    2.97947303242432    1.80982698556439
C        -3.37485421859416    0.70282580193569    0.57613721138074
C        -3.39052906778009   -0.73255559712114    0.56881691852613
C        -2.76848490245153   -1.16322556539252    1.78875242703659
C        -2.39042461531037    0.02455608717205    2.53345095555832
C        -2.74966857392845    1.13003213444979    1.81506772882415
C        -1.73531819174153   -3.01045445895722    0.57898164836992
C        -0.36330519010526   -3.44783435049833    0.58077000596188
C         0.25071825999816   -2.99455761730786    1.80446670463832
C        -0.73041607635626   -2.27383331604438    2.56493552887436
C        -1.97095117862542   -2.28683884771739    1.79891794114974
C        -0.24780643438002   -3.01747295614001   -1.82832499750846
C         0.74512627871715   -2.29625963335848   -2.58511432630856
C         1.96913055688479   -2.29997983449998   -1.82658119988534
C         1.73840041767560   -3.01861460129947   -0.60290068729056
C         0.36553786735700   -3.45767563893562   -0.59964221455348
C         2.78344359150530   -1.17169781532248   -1.82375903702325
C         2.40443702234502   -0.00548408076393   -2.58156976335069
C         2.78241496859140    1.15857451983821   -1.83693658143978
C         3.51840780284413    0.73643920780317   -0.62590568989392
C         3.39851860965292   -0.73721777641785   -0.60503100447154
C         1.97008677505972    2.27679384876250   -1.82917719920939
C         0.74839718362604    2.28495429266322   -2.59103772267379
C        -0.23641561137197    3.00169859396242   -1.82353261322920
C         0.37318574358311    3.44071560217809   -0.60056024599253
C         1.74065856741188    3.00107875557501   -0.60034358865092
C        -1.55654597086866    2.56657497208302   -1.80926928829253
C        -1.94026614184356    1.40454908183924   -2.57241567614796
C        -2.93602220269393    0.68418373907717   -1.82188193555610
C        -3.16839444107004    1.39794139978248   -0.59555125635241
C        -2.30559494011585    2.57324191847078   -0.58483572176497
C        -2.94258992669872   -0.70851753421846   -1.83446752013030
C        -1.94787201496216   -1.42518261365686   -2.59173951712952
C        -1.56828611601417   -2.59313731652208   -1.83276720190434
C        -2.32995368313654   -2.59360101724390   -0.60948013836227
C        -3.17876772537353   -1.43260326018358   -0.61445998686995
C        -0.99168908798077   -0.72852527007099   -3.31572917533775
C        -0.99005921121399    0.71356482697938   -3.31020736633503
C         0.38069452800757    1.15914835858072   -3.31766714817029
C         1.22350317959788   -0.00564379304158   -3.31745996512776
C         0.37998729438595   -1.17271325481581   -3.31521132722077
Cl       -1.95739482123954   -0.00907662561563    5.23492506535450
Cl       -3.13752163055999    3.62262649395260    2.87485366517015
Cl        5.30205313709520    1.09867933012000   -0.96050109783422
63
 energy: -142.113917170815 gnorm: 0.013999589869 xtb: 6.4.1 (a3dbbd7)
C        -1.30257014451330    0.00366405462236    3.54920335224845
C        -0.37127581422019   -1.17054871023636    3.30768688358334
C         0.97482742241779   -0.72000158438238    3.28036096640095
C         0.97177541762629    0.72198438886073    3.27853839798851
C        -0.37993075841645    1.18128614804367    3.30975401538699
C         2.32767541831977   -2.58637855291910    0.57511731924299
C         3.16884256189853   -1.41817375141397    0.56852239549399
C         2.94178233034207   -0.69782165421056    1.80491001768089
C         1.94932036653696   -1.41157557428312    2.55166990836973
C         1.57344203168548   -2.57676939236800    1.80070418916662
C         3.18585058497327    1.42552490268597    0.60087505445823
C         2.32585814121704    2.55675625387793    0.58442124656525
C         1.56439442306724    2.56711325617697    1.81206520883714
C         1.93938693654920    1.41321180843964    2.56188428594696
C         2.93053140067525    0.69611254206153    1.79349050078820
C        -0.37290538423619    3.42710500654274    0.58550278660363
C        -1.73211900903658    3.01690587603091    0.58659187908401
C        -2.10187342534293    2.46329551278290    1.95082565777367
C        -0.73967479713259    2.28823831790459    2.59039666825538
C         0.23839222407265    2.97865667008195    1.81210174448754
C        -3.37746710241311    0.70236555223373    0.57741621095512
C        -3.39302977712800   -0.73262469253257    0.56993389934625
C        -2.77125007491978   -1.16307379587597    1.78961270536959
C        -2.39398484195252    0.02445707945720    2.53504238429967
C        -2.75323869112434    1.12995328959489    1.81666253088465
C        -1.73747317805912   -3.01054903111098    0.57888307916910
C        -0.36662986528021   -3.44893925014378    0.58013688835466
C         0.24789001716357   -2.99376844582396    1.80367999053902
C        -0.73377910431086   -2.27410302602701    2.56516749094528
C        -1.97255487694357   -2.28612688787400    1.79963724808503
C        -0.25223510291856   -3.01944505908805   -1.82924371243485
C         0.74129858474688   -2.29718476812227   -2.58476766794466
C         1.96458713083987   -2.29979443128638   -1.82442547679700
C         1.73341016043828   -3.01845763859315   -0.60490834267003
C         0.36169993909702   -3.46078184612095   -0.60092083712235
C         2.77807781604984   -1.16712757982866   -1.81433429751779
C         2.39916165787704   -0.00117855317541   -2.57198078398221
C         2.78433417497051    1.15947057593496   -1.84048189001617
C         3.61025295052218    0.75304670608263   -0.64626518246080
C         3.40153780754704   -0.73970891198708   -0.60637381780936
C         1.97040692977764    2.26951732916590   -1.82778184927962
C         0.74674487601721    2.27828162729821   -2.58599790842230
C        -0.23792258491645    2.99695513094609   -1.82117171663501
C         0.37408593725171    3.43556910000841   -0.59806391954873
C         1.73940587941728    3.00200644035751   -0.59928164516551
C        -1.55843207562150    2.56443395447419   -1.80811882585511
C        -1.94340843077420    1.40291073991779   -2.57266754048584
C        -2.93787937116436    0.68319726512775   -1.82136588931487
C        -3.16972365260806    1.39769972282073   -0.59416899839432
C        -2.30872059892762    2.57214347416591   -0.58399997287821
C        -2.94591392320558   -0.70964905242055   -1.83383343489950
C        -1.95241817355091   -1.42683056639015   -2.59199431034532
C        -1.57284269992901   -2.59480322199342   -1.83302724307693
C        -2.33347254834457   -2.59416570055292   -0.60924729194629
C        -3.18189357409359   -1.43314543433211   -0.61372021642670
C        -0.99607871157799   -0.73059206703826   -3.31657312602381
C        -0.99431885271140    0.71178526500920   -3.31231492716817
C         0.37702285231525    1.15524999297351   -3.31703626220258
C         1.21908013006789   -0.00581713957979   -3.31507574711659
C         0.37620700504120   -1.17377547227129   -3.31477052747859
Cl       -1.96201675034058   -0.01220285268466    5.23664327782893
Cl       -3.14339382003339    3.62313168707890    2.87434949542699
Cl        5.40758668606074    1.11972026637443   -0.98088978030791
63
 energy: -142.114227876621 gnorm: 0.008294529289 xtb: 6.4.1 (a3dbbd7)
C        -1.30403032766571    0.00354010556703    3.55027734901187
C        -0.37225934420314   -1.17048622275898    3.30787496129951
C         0.97331271758679   -0.72006840216519    3.28031261355089
C         0.97052169267942    0.72184387244071    3.27742681249148
C        -0.38119992837748    1.18152650501613    3.31096781202499
C         2.32568356818323   -2.58148146047954    0.57334890326569
C         3.17247088863213   -1.41641830827143    0.56676192377940
C         2.94350973427581   -0.69862064209570    1.80600366166675
C         1.94886698824423   -1.41002700048639    2.55049941530257
C         1.57168903614044   -2.57423680240223    1.79900888408006
C         3.18505261487637    1.42264161648932    0.59684001535751
C         2.32822825096199    2.55393603792854    0.58182951292448
C         1.56342224671424    2.56442145496726    1.80926701551890
C         1.93817837850810    1.41125975018801    2.55860215977502
C         2.93209569687764    0.69578672573209    1.78927666798400
C        -0.37423976395048    3.42646130368734    0.58585072955532
C        -1.73301402807778    3.01666929680874    0.58701110319759
C        -2.10352111216056    2.46367479765597    1.95162803368803
C        -0.74101206876803    2.28869547946970    2.59150891028857
C         0.23755209600009    2.97724808279763    1.81183790409338
C        -3.37909104411662    0.70233622518444    0.57824309276169
C        -3.39449904706432   -0.73261113076474    0.57067521424747
C        -2.77287963725812   -1.16303728470411    1.79038626032362
C        -2.39528589711240    0.02446538410167    2.53578935765121
C        -2.75458229001463    1.13006027142399    1.81735929023830
C        -1.73914058167499   -3.01066825333544    0.57914513914167
C        -0.36839943428966   -3.44877191596966    0.58005173243507
C         0.24665630519065   -2.99271672857466    1.80315956473618
C        -0.73538967718250   -2.27423532436457    2.56534464064461
C        -1.97382108562071   -2.28597400244795    1.80021483103795
C        -0.25430009404523   -3.01985193764851   -1.82911295447902
C         0.73960791836842   -2.29650495272011   -2.58344065312633
C         1.96302345373248   -2.29714270360336   -1.82311710012469
C         1.73138020947891   -3.01637745865923   -0.60517161333919
C         0.35993921617605   -3.46119265281250   -0.60094789797997
C         2.77901808519785   -1.16501252023668   -1.81163091210812
C         2.40012832648776    0.00085877433301   -2.56922692426333
C         2.79338049830518    1.16175784610624   -1.84286989452004
C         3.63239705532916    0.75602942215117   -0.65274183110383
C         3.41096980371886   -0.73860624043477   -0.60799305136601
C         1.97476633915077    2.26901280192380   -1.82807025812216
C         0.74759911892431    2.27440634595088   -2.58205915395864
C        -0.23788833213714    2.99397339680166   -1.81927380532761
C         0.37467197815729    3.43389743198738   -0.59713458182359
C         1.74024686707330    3.00391281898430   -0.59994300776476
C        -1.55890633852946    2.56313808375213   -1.80709728213043
C        -1.94483228613721    1.40202737099728   -2.57205257271374
C        -2.93943999677497    0.68274859839655   -1.82087716744368
C        -3.17092799794472    1.39762570162189   -0.59342905343453
C        -2.31022927831772    2.57166846150222   -0.58357741910360
C        -2.94809211050816   -0.71013347831794   -1.83343944026541
C        -1.95486445413496   -1.42753184992089   -2.59198746635087
C        -1.57525115741124   -2.59563148228468   -1.83294403143134
C        -2.33566531921402   -2.59461585349700   -0.60888375265643
C        -3.18385583611180   -1.43336452636542   -0.61307304179140
C        -0.99806265589970   -0.73123949492132   -3.31627797957011
C        -0.99599919633952    0.71113338139440   -3.31217016954461
C         0.37623387888423    1.15351000857423   -3.31480957583641
C         1.21850280719286   -0.00619817020355   -3.31179596162964
C         0.37467656085155   -1.17358539690065   -3.31312388724408
Cl       -1.96556665973867   -0.01544027345131    5.23689105116855
Cl       -3.14793423077934    3.62281814271611    2.87273259625266
Cl        5.42484095849615    1.12533226661368   -0.98087018110180
63
 energy: -142.114329766760 gnorm: 0.004675066638 xtb: 6.4.1 (a3dbbd7)
C        -1.30412485236832    0.00345317639570    3.55085907048121
C        -0.37223552840752   -1.17065832174049    3.30808511137488
C         0.97293328327833   -0.72038195983757    3.28047939254592
C         0.97023834853422    0.72172898748096    3.27676030309330
C        -0.38132637752023    1.18171747126996    3.31154978349396
C         2.32469717952725   -2.57885360809427    0.57230511702423
C         3.17430568459125   -1.41560222578034    0.56611278859966
C         2.94470821107243   -0.69975413764225    1.80734450162011
C         1.94903511625225   -1.40971996147280    2.55046264867891
C         1.57089858693275   -2.57287724798265    1.79810789476024
C         3.18320431368489    1.41981068970833    0.59340916929623
C         2.32966102651487    2.55250182219522    0.57975094519546
C         1.56288799022165    2.56256697080636    1.80720396733718
C         1.93750015622455    1.40985668778221    2.55624580642562
C         2.93329631462525    0.69507162077571    1.78672912156788
C        -0.37475261774452    3.42654750672017    0.58576539015025
C        -1.73313488100674    3.01692806156183    0.58695492383221
C        -2.10382057269370    2.46417891705270    1.95185250497201
C        -0.74120536308382    2.28909251052689    2.59197271419247
C         0.23744017547669    2.97660690430928    1.81152149247501
C        -3.37940055331150    0.70246342652048    0.57853106862894
C        -3.39464348767521   -0.73249886695319    0.57091351479711
C        -2.77316600473734   -1.16295635174328    1.79069922273170
C        -2.39501927834607    0.02457355647130    2.53582782146817
C        -2.75432697214353    1.13018498552660    1.81739318099348
C        -1.73983108767764   -3.01087415993502    0.57931118551789
C        -0.36915713015551   -3.44869284576036    0.58007116976192
C         0.24630479650346   -2.99237888229800    1.80302805256941
C        -0.73589996330693   -2.27449301984553    2.56553910660593
C        -1.97411259048468   -2.28598254535894    1.80056492217265
C        -0.25522772493081   -3.02028698917446   -1.82898340373983
C         0.73866456332547   -2.29603137187803   -2.58256763203964
C         1.96187867798482   -2.29537531461717   -1.82226618805260
C         1.73042695767262   -3.01545340368702   -0.60514141203196
C         0.35906605373223   -3.46161069975321   -0.60085600330278
C         2.77903357674735   -1.16388619192915   -1.80991885290480
C         2.40014905293409    0.00197091313271   -2.56750532755555
C         2.79854474389629    1.16318589530088   -1.84377027559611
C         3.64172458468945    0.75706965612719   -0.65580315433223
C         3.41627672286209   -0.73761928318232   -0.60860737513513
C         1.97687375322757    2.26898526908218   -1.82817004035406
C         0.74815546751848    2.27228179287427   -2.58001257089118
C        -0.23774189626808    2.99244466026404   -1.81829505772441
C         0.37495578083348    3.43383911356583   -0.59693173291987
C         1.74042503602559    3.00591173332910   -0.60063604264211
C        -1.55902954794828    2.56277030358882   -1.80676361296210
C        -1.94545332490134    1.40169366522288   -2.57175789735671
C        -2.94016948380035    0.68266047123231   -1.82078377754874
C        -3.17128747000061    1.39781021949487   -0.59319936921229
C        -2.31083728218492    2.57170175479939   -0.58356457815627
C        -2.94898802725601   -0.71028365640425   -1.83338169155047
C        -1.95597170924246   -1.42786559742341   -2.59216840504913
C        -1.57629745891227   -2.59615595034516   -1.83300264349961
C        -2.33651816615561   -2.59490306846475   -0.60873862274307
C        -3.18448720875540   -1.43340826012735   -0.61282308262297
C        -0.99908099742425   -0.73139137243680   -3.31632992637361
C        -0.99695341344864    0.71096716043334   -3.31223720292998
C         0.37579866387292    1.15284091638948   -3.31374149814873
C         1.21803489325761   -0.00651088848738   -3.30959420956320
C         0.37382568950230   -1.17339375936577   -3.31206848276826
Cl       -1.96759267078715   -0.01728486989318    5.23662397441481
Cl       -3.15040222155207    3.62228043885886    2.87161897729424
Cl        5.42569254154453    1.12812284528123   -0.97699023652595
63
 energy: -142.114369609929 gnorm: 0.002429978080 xtb: 6.4.1 (a3dbbd7)
C        -1.30372470351376    0.00347634391139    3.55099219892719
C        -0.37178780643638   -1.17073044793567    3.30819057205228
C         0.97316262592821   -0.72064018379753    3.28068063468337
C         0.97047337550040    0.72171695329811    3.27662852716023
C        -0.38095477111785    1.18178288975638    3.31159166986716
C         2.32450843276634   -2.57829897576405    0.57191413764072
C         3.17436653010422   -1.41548748722934    0.56596569957431
C         2.94510120061294   -0.70052960935603    1.80812666679878
C         1.94946729812484   -1.41004705452585    2.55082807377716
C         1.57088764111923   -2.57267615779284    1.79791651347388
C         3.18121003938846    1.41803858951037    0.59167983449342
C         2.32986888073073    2.55182204062062    0.57877657712890
C         1.56275448722130    2.56188787796968    1.80648088328645
C         1.93729682278651    1.40939582621254    2.55538228558075
C         2.93345552839070    0.69454174906488    1.78565645254961
C        -0.37472090978857    3.42689583038821    0.58557170616142
C        -1.73280964504343    3.01723116424790    0.58681611449973
C        -2.10350856282057    2.46446095726733    1.95182590259379
C        -0.74086877964252    2.28926579103085    2.59194587924626
C         0.23767394471607    2.97659821621314    1.81138681748741
C        -3.37905819562433    0.70259308827434    0.57852322039190
C        -3.39425357347082   -0.73237994006932    0.57090137827484
C        -2.77281274944775   -1.16285739941382    1.79071059549217
C        -2.39438919541997    0.02469841971819    2.53563615132951
C        -2.75367897076552    1.13025158916484    1.81723971885746
C        -1.73977947737667   -3.01096031601361    0.57937009310627
C        -0.36916330947683   -3.44868348338355    0.58007744542284
C         0.24648399609837   -2.99248701955689    1.80311510057850
C        -0.73574834690626   -2.27463061188498    2.56564136312856
C        -1.97384778246496   -2.28597529272891    1.80069464778678
C        -0.25531971084899   -3.02056255577725   -1.82895021121442
C         0.73844500727893   -2.29592547521309   -2.58235236989209
C         1.96142558634516   -2.29488707966461   -1.82207484713181
C         1.73030205820032   -3.01551912416888   -0.60511317634930
C         0.35891732470363   -3.46194845076655   -0.60084241445609
C         2.77848871691568   -1.16361545730321   -1.80921212441342
C         2.39959914393049    0.00225751785976   -2.56680883717224
C         2.79950609658272    1.16348580049684   -1.84363742770971
C         3.64426561157502    0.75739181085092   -0.65657886273122
C         3.41719484558281   -0.73718936445895   -0.60855892786120
C         1.97701568051332    2.26885058586414   -1.82815557441309
C         0.74833718788759    2.27169723835543   -2.57966398102163
C        -0.23761235993813    2.99221400014967   -1.81820673966596
C         0.37508830796098    3.43443305973533   -0.59716560649216
C         1.74021800525205    3.00698416073528   -0.60105448880564
C        -1.55894476519298    2.56295347208069   -1.80686583618004
C        -1.94545566262223    1.40169264470470   -2.57174504205806
C        -2.94017856534897    0.68275918438412   -1.82084599354769
C        -3.17109246333509    1.39803070334556   -0.59320882978631
C        -2.31079210723451    2.57189374676982   -0.58367769395676
C        -2.94894480980656   -0.71022120210934   -1.83340678433029
C        -1.95606428671431   -1.42788989401247   -2.59228025919852
C        -1.57635670982690   -2.59628196400586   -1.83304777735911
C        -2.33644772453178   -2.59492422950220   -0.60870812484714
C        -3.18435277059484   -1.43333956748241   -0.61278389085636
C        -0.99928675118661   -0.73131675667559   -3.31652500533014
C        -0.99722937064271    0.71102030303279   -3.31247911728272
C         0.37565547343137    1.15283242558785   -3.31375110197841
C         1.21779949839506   -0.00669127296533   -3.30896951302595
C         0.37362221421497   -1.17333635766676   -3.31182301823149
Cl       -1.96802567750896   -0.01763799732475    5.23627322071116
Cl       -3.15082401799532    3.62189696926220    2.87127559477037
Cl        5.41988504922189    1.12925507115274   -0.97233756169460
63
 energy: -142.114381208693 gnorm: 0.001311032222 xtb: 6.4.1 (a3dbbd7)
C        -1.30342721886265    0.00353949349763    3.55088757831507
C        -0.37148188923782   -1.17070743798703    3.30817463115652
C         0.97344594842942   -0.72072112150526    3.28074011940813
C         0.97074022431949    0.72172921792875    3.27675780801903
C        -0.38065179237848    1.18176594322099    3.31141735363554
C         2.32470894110401   -2.57881622018649    0.57196180881101
C         3.17384080829569   -1.41572489949528    0.56598806997066
C         2.94498426408051   -0.70068782401011    1.80814287988291
C         1.94974473201116   -1.41039696128947    2.55103610256014
C         1.57117283839893   -2.57306499164641    1.79808654345980
C         3.18016998997769    1.41764926170391    0.59160059772796
C         2.32941780477990    2.55172800966019    0.57880330640398
C         1.56287066784445    2.56208973768273    1.80673993566334
C         1.93741112816367    1.40960200727253    2.55563895272364
C         2.93301904199012    0.69440198557664    1.78571299288802
C        -0.37452575805907    3.42708878295477    0.58545008064444
C        -1.73252869178736    3.01733530667306    0.58674230123782
C        -2.10319417914224    2.46447579407445    1.95175019708651
C        -0.74056492564257    2.28924659557238    2.59176827838639
C         0.23787427047039    2.97681443934576    1.81138070485116
C        -3.37873367228015    0.70265083349511    0.57845034104922
C        -3.39397312872865   -0.73232053448184    0.57085449308882
C        -2.77249001609266   -1.16280143538884    1.79064004023683
C        -2.39409479444574    0.02475890426620    2.53553621957373
C        -2.75336876346827    1.13026882755721    1.81716534461468
C        -1.73951125698574   -3.01091928848381    0.57935595902013
C        -0.36892209086003   -3.44870189090580    0.58004717396101
C         0.24671945512895   -2.99266871764950    1.80319561143987
C        -0.73548495698953   -2.27463913729968    2.56564026863148
C        -1.97356806921098   -2.28593873578770    1.80067714195296
C        -0.25510066957624   -3.02058609736252   -1.82898714588397
C         0.73861108078404   -2.29603778321955   -2.58253631359289
C         1.96154257857695   -2.29521386664102   -1.82228759494856
C         1.73052519743958   -3.01589045908204   -0.60515158560462
C         0.35909989924863   -3.46204269174961   -0.60090602876114
C         2.77817252605778   -1.16383434215732   -1.80935619439246
C         2.39927288182459    0.00206950579373   -2.56697312118786
C         2.79839950375784    1.16317177544090   -1.84335119894693
C         3.64386175646974    0.75747395663185   -0.65625177072522
C         3.41602749343781   -0.73731823857299   -0.60839264177208
C         1.97645572290077    2.26872065255880   -1.82820392824864
C         0.74827710696778    2.27198459861427   -2.58014031653780
C        -0.23757873890832    2.99260146457712   -1.81854266027902
C         0.37512179420897    3.43483640730794   -0.59744826101680
C         1.74004618830413    3.00699767955948   -0.60115050683718
C        -1.55884086856417    2.56317831248737   -1.80705181791461
C        -1.94524811464658    1.40177591411371   -2.57184395248698
C        -2.93992610150443    0.68284852397422   -1.82089335085894
C        -3.17082840755617    1.39812063542345   -0.59326306790327
C        -2.31056590373265    2.57200447498528   -0.58375949780661
C        -2.94862989258890   -0.71012804309880   -1.83340453248860
C        -1.95578184380301   -1.42779203806874   -2.59225265355170
C        -1.57607928966478   -2.59616692661014   -1.83303044397490
C        -2.33613732341692   -2.59481570571075   -0.60871454529129
C        -3.18408815708028   -1.43326828902637   -0.61280685619873
C        -0.99909847859394   -0.73124680014024   -3.31662396338813
C        -0.99709527232544    0.71107407790593   -3.31264145563509
C         0.37570008303605    1.15301097559764   -3.31414810164027
C         1.21781964888676   -0.00672003559528   -3.30937619631996
C         0.37376785449708   -1.17338610273789   -3.31204806049302
Cl       -1.96744575395913   -0.01719505495880    5.23615364916205
Cl       -3.15009584356650    3.62190185224754    2.87142855649149