63
 energy: -142.064516005332 gnorm: 0.137521530236 xtb: 6.4.1 (a3dbbd7)
C        -1.32333194775417    0.00617886347970    3.59125188963251
C        -0.38909456310608   -1.27772716531095    3.58793274117145
C         0.98734837171535   -0.72675165446744    3.28582848483634
C         0.97037352147027    0.69420630050098    3.25749094477592
C        -0.37633960723915    1.14742685553706    3.29074190055216
C         2.33092254703306   -2.58746567485154    0.56610397604514
C         3.16875994483946   -1.41579758165486    0.56774606192583
C         2.91978889080344   -0.69314490348597    1.79074016083681
C         1.93018806170321   -1.40549148670748    2.54814074589443
C         1.57476788296703   -2.59634073810083    1.79100274817011
C         3.18328087896891    1.41909085132624    0.57258499213333
C         2.33432229320876    2.58580968143883    0.57559918777772
C         1.57332139543398    2.57095369604789    1.79851755002390
C         1.94352282881158    1.40414426944103    2.54285112768194
C         2.93804115459266    0.69543633516321    1.79366637265872
C        -0.36752716666001    3.44413435035873    0.58029879258012
C        -1.74013210357057    3.00741588983283    0.58054459941955
C        -1.97818665379860    2.28654468588757    1.80361199533287
C        -0.73393250395930    2.25581684802015    2.55761528373596
C         0.24647420110131    2.98080949443068    1.80023381740862
C        -3.39591089216029    0.72883802558845    0.57533866561121
C        -3.37932885665645   -0.70504006359254    0.57786353554246
C        -2.74934612856665   -1.12865052488571    1.82052481704193
C        -2.40026274086307   -0.01382700939334    2.55826017594831
C        -2.77435746218519    1.16021035149421    1.80187148511327
C        -1.70577977915925   -3.00504292266898    0.57191390059864
C        -0.34657433486683   -3.46193150719564    0.56452064530943
C         0.25810980605866   -3.00738238851431    1.79111395103090
C        -0.74203335365356   -2.29289841924391    2.55243835495534
C        -1.91196172287597   -2.27950749485726    1.81757326885181
C        -0.23558165862281   -3.01371296632646   -1.83961821271520
C         0.75175047781152   -2.28700579367404   -2.59867644532734
C         1.98089777627659   -2.28868303835222   -1.84308617931945
C         1.74918768154887   -3.01946296828987   -0.62050040464920
C         0.38088379041600   -3.46658963937948   -0.62079308111870
C         2.79204993046375   -1.16413556659148   -1.83875967224219
C         2.41002754086118    0.00666527739579   -2.59106683151125
C         2.78807241943814    1.16926264052202   -1.83130610074559
C         3.40298548527550    0.72369088805355   -0.60835037131266
C         3.40110069057525   -0.71955382898331   -0.60923004493565
C         1.96912615256614    2.29475463280888   -1.82840259178522
C         0.74474441569639    2.29528025280401   -2.58515694980539
C        -0.24988429155059    3.01642431380723   -1.82795956514323
C         0.36353023978106    3.45499162487799   -0.59844520421847
C         1.73735095077191    3.01278425815446   -0.60243935985793
C        -1.56944867307335    2.59059487249377   -1.83048045584010
C        -1.94787757007795    1.42311330884846   -2.58910001301826
C        -2.94122296022124    0.70465889669871   -1.83002690890673
C        -3.17947337159538    1.42642572884929   -0.60816005298080
C        -2.33307692209202    2.59081264516620   -0.60600270171083
C        -2.93172079240255   -0.68656028280689   -1.82266620418654
C        -1.94059925011627   -1.40887980593779   -2.58138532694875
C        -1.55636984787224   -2.57670213587000   -1.82754179967090
C        -2.29848528094837   -2.57416283302738   -0.59738768824741
C        -3.15456863482430   -1.39758782868201   -0.59434922362650
C        -0.98936986995949   -0.71482485845558   -3.31408037280858
C        -0.99159024528376    0.72723605185279   -3.31429029098428
C         0.38014149579772    1.17201579903766   -3.31523274930469
C         1.22728121177112    0.00778684511203   -3.31823795360647
C         0.38205649969615   -1.16057927312445   -3.31917058806611
Cl       -2.09995733548554    0.29360223981566    5.20530702406437
Cl       -0.35034641589922   -2.11046483688082    5.19906768498811
Cl        4.80885901457441    2.14650472999845    0.89579510050929
63
 energy: -142.088428598986 gnorm: 0.059398666186 xtb: 6.4.1 (a3dbbd7)
C        -1.32681120434533    0.00528811236713    3.59314228964541
C        -0.39306737982358   -1.27903283483641    3.59016389380753
C         0.98285578391329   -0.72821022578432    3.29177922885365
C         0.96404490182574    0.69075965556860    3.26281579909241
C        -0.38109215587286    1.14731551290871    3.29380094670735
C         2.32950792776537   -2.58667206845263    0.56503874421159
C         3.16364508762537   -1.41833578449761    0.56524086961499
C         2.90548507537394   -0.69371140124164    1.78986406961570
C         1.92515031305377   -1.40808436066980    2.55218028197561
C         1.57225290023021   -2.59603640722537    1.79094306127722
C         3.27981552104039    1.46394947437016    0.59334899569523
C         2.31804665685237    2.58840049497723    0.57606714826635
C         1.56356479580066    2.56640671914343    1.79351003128566
C         1.93392533562400    1.39740607425774    2.53804425803865
C         2.92446075606234    0.68865458418691    1.80043367141368
C        -0.37408150747018    3.44806857716906    0.58323627044192
C        -1.74425633268772    3.00833253330228    0.58244455660378
C        -1.98201229705313    2.28685776635887    1.80529092623640
C        -0.73914454939615    2.25655586036903    2.56014379554265
C         0.23800810228045    2.98400362857609    1.80111818789160
C        -3.39724538402359    0.72788032704279    0.57586609453550
C        -3.38046504945872   -0.70524616847873    0.57828779239795
C        -2.75044344973888   -1.12902673259666    1.82033475367912
C        -2.40239750850009   -0.01438134735784    2.55923538664124
C        -2.77631780675533    1.15915815459409    1.80258991658401
C        -1.70604255927790   -3.00553771591376    0.57176548380546
C        -0.34797721274569   -3.46289055500722    0.56452633614202
C         0.25640707317108   -3.00759966168368    1.79112050899025
C        -0.74378712587713   -2.29319323942572    2.55288307713752
C        -1.91294981565078   -2.27993594156883    1.81751879569755
C        -0.23793297921020   -3.01523680312034   -1.84104551750452
C         0.74811217713992   -2.29071361746983   -2.60288698757384
C         1.97758706609072   -2.29469188591692   -1.84871828725542
C         1.74708683579730   -3.02294577137684   -0.62359364168979
C         0.38021112893067   -3.46732676449747   -0.62168246748127
C         2.78740002206660   -1.17133689067122   -1.84983197659223
C         2.40606032723782   -0.00248638760361   -2.60162484087795
C         2.77889068361984    1.15702122977381   -1.83221408956383
C         3.41326315452679    0.71334906401928   -0.62941394079523
C         3.38819438205043   -0.71964368501541   -0.61741681004156
C         1.96422267666393    2.29070960977749   -1.83075665310552
C         0.74423501479609    2.29316834076956   -2.58434121725567
C        -0.25156642217717    3.01505438068443   -1.82646536825880
C         0.35733736710825    3.45841769604959   -0.59748900075223
C         1.72465067480120    3.00638393382278   -0.59931313431077
C        -1.57047136436330    2.58927537022192   -1.82933633122482
C        -1.94908583728552    1.42251453623499   -2.58950455354643
C        -2.94096764293748    0.70418597740383   -1.83022267646292
C        -3.18011649785572    1.42627051024691   -0.60773763141739
C        -2.33526519396138    2.59051255945959   -0.60528668386525
C        -2.93212872232049   -0.68708068245485   -1.82280279735379
C        -1.94195844112542   -1.40974298986447   -2.58251741938830
C        -1.55765481896945   -2.57733866244743   -1.82835529418497
C        -2.29962551230291   -2.57431965589587   -0.59774909944412
C        -3.15451467594399   -1.39818291950624   -0.59487715423357
C        -0.99179428137112   -0.71647285618495   -3.31634101373325
C        -0.99228909901151    0.72601866273237   -3.31595812085769
C         0.37783360629925    1.16898635577764   -3.31914428369363
C         1.22352529179199    0.00323883276335   -3.32600878938131
C         0.37848204432776   -1.16443592337807   -3.32385899318529
Cl       -2.10166452890653    0.29467096533256    5.20710623592594
Cl       -0.35291681916179   -2.11245659317346    5.20036566593993
Cl        4.93937610664263    2.21120734658692    0.92847633890160
63
 energy: -142.094331192228 gnorm: 0.013856300851 xtb: 6.4.1 (a3dbbd7)
C        -1.33069646566793    0.00437730315824    3.59320682953627
C        -0.39675087181999   -1.28029365164117    3.59121717459706
C         0.97796424472032   -0.72789645907328    3.28917994748178
C         0.96022959121247    0.68801458252161    3.25807860443250
C        -0.38401748336942    1.14620879055524    3.29266290097411
C         2.32791363652762   -2.58328578558513    0.56268373532159
C         3.16424822018943   -1.42006695095626    0.56452630856212
C         2.90264466495569   -0.68831146639883    1.78777083679142
C         1.92022317519352   -1.40421025815048    2.54629973034695
C         1.56891635110063   -2.59390122136756    1.78809976589338
C         3.36317823664304    1.50468922519660    0.61354716856786
C         2.31984397363967    2.59348263126122    0.57659170608094
C         1.56217520621505    2.56086527019635    1.78308028352247
C         1.93240682836521    1.39067324231089    2.52670003950346
C         2.92678755137765    0.68928185848617    1.80345125273061
C        -0.37767599086381    3.44534472694402    0.58450691861917
C        -1.74842219561282    3.00863843952394    0.58365699549557
C        -1.98557862369782    2.28591311296641    1.80650791551388
C        -0.74233354626913    2.25591707088249    2.55976429064957
C         0.23513803657293    2.98196464283168    1.79831381787695
C        -3.40014637208705    0.72594120662320    0.57653923189402
C        -3.38345592734077   -0.70674862394267    0.57873140446693
C        -2.75396678877939   -1.13059246943390    1.82020346093140
C        -2.40683763147458   -0.01571460094433    2.56013386548372
C        -2.78001429498998    1.15749748607015    1.80352124865342
C        -1.70798849767354   -3.00662738293237    0.57129227746742
C        -0.35107391052280   -3.46453176038962    0.56409925847730
C         0.25386194820390   -3.00755565018524    1.78981400538123
C        -0.74674380772498   -2.29362127911381    2.55263054190361
C        -1.91575252129362   -2.28106946694152    1.81731751930399
C        -0.24154177275922   -3.01736432195179   -1.84263672491186
C         0.74431918179870   -2.29419902234205   -2.60629332448397
C         1.97305939253355   -2.29628680571549   -1.85022272966235
C         1.74368825733026   -3.02565949244982   -0.62578010913623
C         0.37824633401782   -3.46821965400668   -0.62246918359906
C         2.78075651924891   -1.17153961150011   -1.84992931305770
C         2.40000441212343   -0.00517535701471   -2.60024801316331
C         2.77412885111734    1.15239609526097   -1.82346167153962
C         3.40943179758951    0.71033032994170   -0.63241920075542
C         3.37972588708503   -0.71201456417187   -0.61640779349914
C         1.96378622844127    2.29104329074040   -1.83316987371961
C         0.74469732808166    2.28934964870116   -2.58137930845597
C        -0.25311752404515    3.01088810788100   -1.82449692083899
C         0.35632538151824    3.45103655288929   -0.59540460280015
C         1.72469125338011    3.00248682518719   -0.59470956911400
C        -1.57225951120205    2.58690648183134   -1.82822064736928
C        -1.95203874105321    1.42051389275375   -2.58925175181611
C        -2.94247632359336    0.70224822590001   -1.83001401765544
C        -3.18173765799925    1.42468071817314   -0.60687434762443
C        -2.33821654286012    2.58926810758942   -0.60447514331668
C        -2.93477694356056   -0.68907646009774   -1.82284336365954
C        -1.94521986258618   -1.41179416977056   -2.58371282528703
C        -1.56066944176864   -2.57928396304338   -1.82932120177083
C        -2.30265101357042   -2.57557063414207   -0.59820801262424
C        -3.15626991027113   -1.39994252193482   -0.59521285627401
C        -0.99568564909576   -0.71910516136829   -3.31838416726249
C        -0.99441734343379    0.72404961829261   -3.31645808390192
C         0.37421901305286    1.16606256657883   -3.32109741252545
C         1.21913589757311    0.00052111348121   -3.32746083044767
C         0.37451191116235   -1.16789490294166   -3.32778637422943
Cl       -2.10315858733750    0.29368165522818    5.20799983283538
Cl       -0.36243391438930   -2.11406395459887    5.20121567196484
Cl        5.03746097267113    2.25506111767962    0.94719347080508
63
 energy: -142.094637370043 gnorm: 0.008336674590 xtb: 6.4.1 (a3dbbd7)
C        -1.33240460725358    0.00419987926032    3.59337805423027
C        -0.39798354006121   -1.28089091420817    3.59106768049481
C         0.97657136754686   -0.72770602157345    3.28725397577431
C         0.95936466353371    0.68745177602891    3.25404461138837
C        -0.38477413621157    1.14515405086945    3.29091767983249
C         2.32754281591050   -2.58220298985356    0.56181205601395
C         3.16620108163425   -1.42126366205691    0.56521989548342
C         2.90635507373940   -0.68588876738402    1.78806624495718
C         1.91914796051880   -1.40120667104838    2.54261452759508
C         1.56752105978568   -2.59182019687343    1.78615471093268
C         3.38264093124341    1.51518759601441    0.61973578662157
C         2.32815069531530    2.59834724005321    0.57773925630201
C         1.56417956166267    2.55977575061738    1.77979847351931
C         1.93434659007260    1.38915201803358    2.52311904055238
C         2.93535442145117    0.69237049990705    1.80546822133148
C        -0.37798700736547    3.44280447405942    0.58460772404939
C        -1.74979055146853    3.00806686101322    0.58379634936331
C        -1.98692930586796    2.28516592605501    1.80671662666220
C        -0.74300034971757    2.25463836189158    2.55840487922814
C         0.23575605844533    2.97917441203983    1.79672614175487
C        -3.40204839128507    0.72498656875534    0.57675553316251
C        -3.38537910942743   -0.70779087785410    0.57886021891498
C        -2.75608707394832   -1.13152934610965    1.82019620683912
C        -2.40876616178071   -0.01633689387489    2.56027880447249
C        -2.78193072458573    1.15675973334152    1.80382941951822
C        -1.70942662474210   -3.00742051726583    0.57097923021620
C        -0.35264243496917   -3.46521810976230    0.56385967545217
C         0.25276882361451   -3.00684859421461    1.78872682217087
C        -0.74810082652770   -2.29342488883244    2.55178050317556
C        -1.91747993563001   -2.28171380595151    1.81705204881594
C        -0.24303218545196   -3.01839115048992   -1.84315115840793
C         0.74302057937851   -2.29496601540868   -2.60676221515721
C         1.97124681103197   -2.29560400034006   -1.84960443608532
C         1.74223533923642   -3.02623086205978   -0.62595857274970
C         0.37719120677326   -3.46856867229611   -0.62258479009500
C         2.77781237615803   -1.16984561074697   -1.84705972383374
C         2.39723973823491   -0.00442441839505   -2.59672293180112
C         2.77460019523768    1.15366137238210   -1.81923255146508
C         3.40663238861956    0.71212422002248   -0.62852893611640
C         3.37948467333024   -0.70833597163878   -0.61367057269180
C         1.96460508278966    2.29304659601522   -1.83464142292509
C         0.74493055786784    2.28806264384898   -2.58044800717444
C        -0.25322039960748    3.00797284656833   -1.82289545943837
C         0.35758181238691    3.44627745783391   -0.59393563436460
C         1.72873225074859    3.00359143658740   -0.59337950707263
C        -1.57277277432490    2.58527004527118   -1.82738182244832
C        -1.95360602920916    1.41944578202816   -2.58897785571206
C        -2.94374466038435    0.70115472795162   -1.82988376772611
C        -3.18313931758131    1.42363229357830   -0.60654684151924
C        -2.33938891402142    2.58803766116074   -0.60404784554279
C        -2.93643223989025   -0.69024598892883   -1.82294458950335
C        -1.94688358017815   -1.41286107959922   -2.58430101468293
C        -1.56220765781891   -2.58051675862975   -1.82983798313071
C        -2.30443982070272   -2.57658773795495   -0.59853574172567
C        -3.15768704111877   -1.40102823853307   -0.59534660604101
C        -0.99739238487065   -0.72010984452717   -3.31906597476464
C        -0.99564977721372    0.72332273683381   -3.31626975669006
C         0.37263106938978    1.16534260943074   -3.32103471428528
C         1.21754872522360    0.00011881951729   -3.32626897921199
C         0.37310493714249   -1.16868502931045   -3.32839613907423
Cl       -2.10699082538587    0.30021481552578    5.20601919939419
Cl       -0.36231310827611   -2.11945417830140    5.19828204705882
Cl        5.05472726378342    2.26032291505915    0.94634254372261
63
 energy: -142.094714329259 gnorm: 0.005065027446 xtb: 6.4.1 (a3dbbd7)
C        -1.33212100677510    0.00374149117692    3.59187980757664
C        -0.39864280667542   -1.28036708171261    3.58957462278363
C         0.97629896325853   -0.72744228969944    3.28652756373881
C         0.95907304207280    0.68749079425878    3.25076083661565
C        -0.38472487358669    1.14479556191432    3.28958462938232
C         2.32757295483863   -2.58207572176012    0.56170782149090
C         3.16764556703356   -1.42279167192334    0.56599844957304
C         2.90893292556504   -0.68465225927277    1.78836480085025
C         1.91895458181787   -1.39922671273751    2.54073113217515
C         1.56674682786897   -2.59032222606187    1.78521347625320
C         3.39246430670889    1.52069163864110    0.62286118805945
C         2.33384683501364    2.60129159920887    0.57792223236027
C         1.56509561762242    2.55893859173804    1.77716108920985
C         1.93552919768694    1.38817863374627    2.52026138752239
C         2.94143108873259    0.69443573958934    1.80617644393206
C        -0.37821721849254    3.44159355348782    0.58442797849163
C        -1.75070293642678    3.00796265530520    0.58375877968859
C        -1.98774297735626    2.28503459226563    1.80687725790426
C        -0.74337668121853    2.25414674523101    2.55749812880407
C         0.23614514149953    2.97721494489739    1.79550492285482
C        -3.40318572198003    0.72475504022974    0.57679755475456
C        -3.38644064043966   -0.70816443583715    0.57871783823472
C        -2.75726246121211   -1.13193942926268    1.81980302964734
C        -2.40997384587072   -0.01665203949646    2.56020337997424
C        -2.78322795185387    1.15659563315153    1.80417693761939
C        -1.71009901001804   -3.00799331111018    0.57067429683174
C        -0.35334208340846   -3.46577322118181    0.56394081755611
C         0.25226415135947   -3.00667948390255    1.78844541599355
C        -0.74898539026877   -2.29333805041638    2.55106831492971
C        -1.91846242269567   -2.28203101415745    1.81656120051650
C        -0.24344080918408   -3.01889059716394   -1.84330011739878
C         0.74274065849210   -2.29509946104567   -2.60672163020909
C         1.97052808836468   -2.29512581887658   -1.84897376398431
C         1.74161294966378   -3.02670554614980   -0.62567873692439
C         0.37689993322990   -3.46878824984800   -0.62240387923875
C         2.77579699193438   -1.16852707110414   -1.84479546391843
C         2.39540547350255   -0.00379530010914   -2.59406944994596
C         2.77491979502786    1.15502327628869   -1.81649021067795
C         3.40311581916548    0.71347267988604   -0.62506627771029
C         3.37946743952550   -0.70603404388451   -0.61131593800164
C         1.96494838860060    2.29498009864436   -1.83645414687706
C         0.74510473581940    2.28787014737339   -2.58055761855218
C        -0.25313942584022    3.00627771294059   -1.82198121834722
C         0.35842603108965    3.44344938352125   -0.59303269126770
C         1.73112321262774    3.00440778104999   -0.59307035595158
C        -1.57293212242610    2.58464631209675   -1.82704656615835
C        -1.95431272635577    1.41912995434282   -2.58898566803518
C        -2.94424245458618    0.70081410476650   -1.82995434880365
C        -3.18393256235704    1.42325656773428   -0.60647539594744
C        -2.33989616116245    2.58743321408006   -0.60388247503313
C        -2.93696564884384   -0.69063984637051   -1.82313596672461
C        -1.94731143732748   -1.41318617643163   -2.58470816154918
C        -1.56259044494433   -2.58103541211243   -1.83019147415726
C        -2.30513145932037   -2.57700481661378   -0.59884282161262
C        -3.15809900249304   -1.40138529449765   -0.59558480134624
C        -0.99791963528788   -0.72038053537084   -3.31954783957408
C        -0.99609400359451    0.72326076826325   -3.31630439401660
C         0.37185741809926    1.16532058265398   -3.32124078548913
C         1.21696599417425    0.00016088264709   -3.32558031253882
C         0.37277317503103   -1.16883751711862   -3.32851840292745
Cl       -2.09919171494857    0.28599650641673    5.21007202972154
Cl       -0.37506294770589   -2.10884119262978    5.20138806878451
Cl        5.05867789415851    2.25907495384358    0.94145811665225
63
 energy: -142.094761373512 gnorm: 0.003498416984 xtb: 6.4.1 (a3dbbd7)
C        -1.33319083541156    0.00390882674132    3.59364038881874
C        -0.39895457195098   -1.28167224277600    3.59138347394032
C         0.97554499980629   -0.72811338743924    3.28681553561230
C         0.95798326080574    0.68693836385820    3.24961497646365
C        -0.38547191197138    1.14406338764895    3.28904587378497
C         2.32792387886057   -2.58262605856704    0.56193072618264
C         3.16840192486576   -1.42426329746096    0.56678900924214
C         2.90969989257792   -0.68443189952760    1.78873852495449
C         1.91840017322896   -1.39829676831892    2.53983815619283
C         1.56651354524797   -2.58967419872716    1.78481516686126
C         3.39635951885657    1.52287343581117    0.62467743566162
C         2.33637174972022    2.60219113476058    0.57821678830120
C         1.56462081399584    2.55765341532756    1.77585931931440
C         1.93492710152317    1.38674766029750    2.51888980610463
C         2.94399548861040    0.69512232670562    1.80658361625418
C        -0.37855280836589    3.44124279111168    0.58439395382549
C        -1.75141026603964    3.00825442842038    0.58364743339672
C        -1.98831381093323    2.28528695223877    1.80686112963472
C        -0.74392918386295    2.25339994957612    2.55679463184980
C         0.23591045772554    2.97567297042703    1.79498065643476
C        -3.40346682671765    0.72478964602981    0.57680980213834
C        -3.38647340355028   -0.70820355246476    0.57899681095168
C        -2.75744781288901   -1.13189627701698    1.82011850188074
C        -2.40998199218900   -0.01636909277474    2.56041937146248
C        -2.78353115662394    1.15663036411951    1.80424479213415
C        -1.71008657185902   -3.00799472522455    0.57091960651824
C        -0.35342475439298   -3.46595609864560    0.56417286441185
C         0.25227111701425   -3.00646890291263    1.78837308047533
C        -0.74881844473120   -2.29286071076121    2.55089083736112
C        -1.91860194877968   -2.28195209668262    1.81685731762361
C        -0.24326633912575   -3.01900716065147   -1.84317612208234
C         0.74300222045050   -2.29490988219594   -2.60641283488142
C         1.97053551450760   -2.29490916606490   -1.84850967739808
C         1.74158524339042   -3.02720402331485   -0.62533108422679
C         0.37706584373295   -3.46890158516703   -0.62212915670047
C         2.77465007732252   -1.16768652259633   -1.84323342605150
C         2.39440416392473   -0.00337296138994   -2.59219358042774
C         2.77485042619358    1.15599415044690   -1.81446348301574
C         3.39939952953504    0.71413538344622   -0.62202799137096
C         3.37925191326027   -0.70483516578050   -0.60941930384780
C         1.96488055695488    2.29641806526925   -1.83758722520988
C         0.74525630140946    2.28829153041074   -2.58083004903514
C        -0.25302876787001    3.00561869662010   -1.82139946641562
C         0.35877644528180    3.44212065269929   -0.59228359230816
C         1.73190658077916    3.00460537381853   -0.59268843999914
C        -1.57292817894860    2.58469662797545   -1.82697509113753
C        -1.95445876944715    1.41921201035863   -2.58901450154356
C        -2.94422936394981    0.70083113613570   -1.82998862696894
C        -3.18422818238343    1.42321015217827   -0.60647443813345
C        -2.34009864882583    2.58731609402517   -0.60387579078708
C        -2.93678938710840   -0.69064006366538   -1.82299393117358
C        -1.94703255926122   -1.41310151561587   -2.58465998164986
C        -1.56232623820620   -2.58106572296304   -1.83008840693152
C        -2.30501624360196   -2.57693277368155   -0.59864500226365
C        -3.15776185997495   -1.40131395345975   -0.59538506887543
C        -0.99777228286629   -0.72026229319919   -3.31960154553021
C        -0.99601072305660    0.72351967125187   -3.31627789826267
C         0.37165173213429    1.16567751791101   -3.32133415348226
C         1.21701421325056    0.00044261833616   -3.32512591154086
C         0.37303061552145   -1.16862833005733   -3.32826733439966
Cl       -2.10759498082496    0.30349001150290    5.20541827111524
Cl       -0.36151938246306   -2.12348023025414    5.19577343894592
Cl        5.05512752262335    2.25439162742883    0.93607045536557
63
 energy: -142.094792502929 gnorm: 0.001956611758 xtb: 6.4.1 (a3dbbd7)
C        -1.33262899951769    0.00394383421759    3.59338522020663
C        -0.39858896507808   -1.28120007407024    3.59110670912703
C         0.97605663209065   -0.72802949013686    3.28732691128038
C         0.95843280193099    0.68718911231274    3.25097646152325
C        -0.38511312411382    1.14442218975566    3.28966987944759
C         2.32813697220870   -2.58284693089684    0.56221570600857
C         3.16775676171046   -1.42370860156686    0.56648975186456
C         2.90834752810595   -0.68501953556715    1.78858799736494
C         1.91879430143520   -1.39920966696013    2.54099772561930
C         1.56705594214239   -2.59040395581142    1.78552185142058
C         3.39234860608799    1.52050153335844    0.62299994819977
C         2.33334589039075    2.60056219979413    0.57784500617163
C         1.56403461466630    2.55801784138825    1.77684411754174
C         1.93442615473336    1.38725949729885    2.51993129455675
C         2.94091598623665    0.69408985194231    1.80589469604896
C        -0.37848332946965    3.44208522817078    0.58448415172961
C        -1.75096885252600    3.00843725376998    0.58374701787384
C        -1.98785346446229    2.28544409692661    1.80690052505322
C        -0.74366468567830    2.25387315073108    2.55736323188441
C         0.23574079079853    2.97677751576056    1.79563206291181
C        -3.40280466729863    0.72497393836979    0.57677055124353
C        -3.38588851230551   -0.70796857245342    0.57890214991854
C        -2.75676198420332   -1.13167834395587    1.82002157601122
C        -2.40952195890704   -0.01630809818921    2.56040078628516
C        -2.78290893219930    1.15674877792540    1.80419215614611
C        -1.70954126394206   -3.00777503094439    0.57091834613960
C        -0.35284942143385   -3.46574636131596    0.56419254028153
C         0.25266871149162   -3.00674594532603    1.78874208082609
C        -0.74841784950022   -2.29296465357396    2.55114373673274
C        -1.91799183811519   -2.28178304076727    1.81683487401555
C        -0.24279392719977   -3.01865201558982   -1.84307202098499
C         0.74339648391565   -2.29471282730659   -2.60638138014927
C         1.97113412319013   -2.29517841065448   -1.84881772870595
C         1.74209958599791   -3.02701146688122   -0.62534472362892
C         0.37748843538915   -3.46874555747098   -0.62216641894077
C         2.77564150286650   -1.16828110534869   -1.84442025379675
C         2.39533550004875   -0.00371334238835   -2.59356123592913
C         2.77441806457534    1.15533331682081   -1.81569956676184
C         3.39995371096440    0.71338882811346   -0.62347114229756
C         3.37894426261063   -0.70586213507750   -0.61045433890488
C         1.96459509021775    2.29569483649719   -1.83698807129672
C         0.74520797670997    2.28872983022246   -2.58102068541058
C        -0.25304682886190    3.00669172909158   -1.82191822733969
C         0.35834069525184    3.44366955157899   -0.59270277491270
C         1.73047818877494    3.00414881447108   -0.59293062087183
C        -1.57278394793286    2.58522220434597   -1.82718748146490
C        -1.95395132981978    1.41950836054723   -2.58904837197477
C        -2.94377623729417    0.70110538910602   -1.82999792803831
C        -3.18367898369165    1.42347001667516   -0.60651391093496
C        -2.33970929893514    2.58768793064622   -0.60390732232990
C        -2.93626168662371   -0.69034084311833   -1.82296895273946
C        -1.94652464299187   -1.41281925856748   -2.58449682446305
C        -1.56183151321254   -2.58068932498271   -1.82998064828940
C        -2.30442006860142   -2.57663706967628   -0.59860911668354
C        -3.15731394847373   -1.40106224035523   -0.59540436517103
C        -0.99726233784378   -0.71999729926586   -3.31938319295129
C        -0.99559420305336    0.72370504858953   -3.31631584119810
C         0.37212398579200    1.16588771485082   -3.32138712462477
C         1.21747894213430    0.00055385296675   -3.32563815292853
C         0.37343426718218   -1.16843022652031   -3.32817961261295
Cl       -2.10513672485148    0.29822290655102    5.20692630076132
Cl       -0.36527742153932   -2.11870655042031    5.19776976717407