2
 energy: -0.982139694991 gnorm: 0.026109981878 xtb: 6.4.1 (a3dbbd7)
H         0.00000000000000    0.00000000000000    0.00000000000000
H         0.00000000000000    0.00000000000000    0.74417000000000
2
 energy: -0.982678245904 gnorm: 0.002945318871 xtb: 6.4.1 (a3dbbd7)
H         0.00000000000000    0.00000000000000   -0.01424036158703
H         0.00000000000000    0.00000000000000    0.75841036158703
2
 energy: -0.982686087699 gnorm: 0.000306395666 xtb: 6.4.1 (a3dbbd7)
H         0.00000000000000    0.00000000000000   -0.01605093945449
H         0.00000000000000    0.00000000000000    0.76022093945449
2
 energy: -0.982686154800 gnorm: 0.000146835228 xtb: 6.4.1 (a3dbbd7)
H         0.00000000000000    0.00000000000000   -0.01636626861975
H         0.00000000000000    0.00000000000000    0.76053626861975
