63
 energy: -142.094162369366 gnorm: 0.000146601833 xtb: 6.4.1 (a3dbbd7)
C        -1.29774472574299    0.00014955205347    3.53858431981785
C        -0.37032391197517   -1.17390798697187    3.31154337898841
C         0.98327594630303   -0.72027643170941    3.28731543971245
C         0.98340006049608    0.72019890683336    3.28737276715964
C        -0.37011583766708    1.17404079098384    3.31159982899370
C         2.33604751399874   -2.57767479081614    0.59415819787708
C         3.18714491861625   -1.41532558810291    0.59338410162791
C         2.95280613839668   -0.69427150974373    1.82016106312363
C         1.95799312092014   -1.41443739636317    2.57324946548553
C         1.58402402167222   -2.57485525453344    1.81635515887580
C         3.18734702151783    1.41508897612699    0.59347746582518
C         2.33643190160915    2.57756786951052    0.59432075250875
C         1.58443293431068    2.57478280396425    1.81648995921136
C         1.95821350301187    1.41426558687517    2.57332858757852
C         2.95290309312430    0.69399072950271    1.82020005702628
C        -0.35128445487488    3.43745623491187    0.58363010539620
C        -1.74010559435544    3.00488849778293    0.59951782818302
C        -1.97086676639274    2.29505296788958    1.80687471194100
C        -0.73015414182214    2.27202234689473    2.56608661102479
C         0.25791047189040    2.98761458338727    1.80563301171414
C        -3.40748356457845    0.71811757816475    0.58491550959564
C        -3.40758610300843   -0.71720600219175    0.58487299917054
C        -2.77659468440131   -1.14878544322832    1.81508171137712
C        -2.41866308622893    0.00023725673791    2.56103827268572
C        -2.77641533159490    1.14948529766108    1.81508779453562
C        -1.74061904239333   -3.00426883191134    0.59936481448897
C        -0.35181842962440   -3.43705414901325    0.58343208573337
C         0.25744388866914   -2.98746750307244    1.80545709615967
C        -0.73053522679107   -2.27178289994781    2.56596076047192
C        -1.97125937817462   -2.29460231838890    1.80675251555532
C        -0.25102495804169   -3.22046871075752   -1.94089991579961
C         0.75559587604227   -2.28968980117871   -2.58150726266074
C         1.95718046349568   -2.27607724251522   -1.81041795676956
C         1.72300911513139   -2.99635678866840   -0.58512759747884
C         0.37388122570189   -3.46376530809944   -0.58430378837152
C         2.79589461141841   -1.16324812299746   -1.81197689820556
C         2.42118704257024    0.00010185147363   -2.56399032629698
C         2.79606122840618    1.16329245500821   -1.81188613026520
C         3.41292875358760    0.72099477920696   -0.58744865040959
C         3.41282507659592   -0.72115622351775   -0.58748644301256
C         1.95754159598977    2.27629416422053   -1.81028030041118
C         0.75601281621826    2.29025849788616   -2.58145075145591
C        -0.25047813487037    3.22121514079007   -1.94076126521244
C         0.37448170306337    3.46423232013861   -0.58409284325191
C         1.72348296493459    2.99649664124574   -0.58494808682528
C        -1.58264688210515    2.57202190921151   -1.81365247342662
C        -1.94110178121259    1.42100456752019   -2.55649717402034
C        -2.94916605644769    0.69291694487342   -1.81391833154963
C        -3.18237455402563    1.41053554809117   -0.59293760405904
C        -2.31453166886791    2.57008879105917   -0.60147009623725
C        -2.94919856519325   -0.69181447341709   -1.81390421970058
C        -1.94130961554308   -1.41998679622950   -2.55656863844848
C        -1.58298351018345   -2.57107515293257   -1.81370676309553
C        -2.31491724138865   -2.56924031887387   -0.60166503009471
C        -3.18256716751594   -1.40952199198094   -0.59302888939617
C        -0.99445962852564   -0.70929618758496   -3.30466165888299
C        -0.99433855528809    0.71017340606591   -3.30461061019964
C         0.38703394202857    1.16564349316275   -3.28153974887959
C         1.22879148500271    0.00022847817068   -3.27701015088548
C         0.38687632560049   -1.16500898432423   -3.28158937399284
Cl       -1.93361361956196    0.00019047349237    5.25744716761755
Cl       -0.37809118955537   -4.78588710285715   -2.88545419737319
Cl       -0.37721995909681    4.78666252675555   -2.88508259430106
