63
 energy: -142.115407844446 gnorm: 0.000114253702 xtb: 6.4.1 (a3dbbd7)
C        -1.28755893666762    0.01029012096072    3.55331210429693
C        -0.36152728140306   -1.16578947872897    3.31074809534727
C         0.98538340735819   -0.71781411858398    3.27752526947537
C         0.98784850506118    0.72477913617063    3.27459958696270
C        -0.36283993572918    1.18745441364938    3.31063130884047
C         2.34313661333167   -2.58238496540400    0.57764335909169
C         3.19093075723830   -1.41752616302112    0.57740738254033
C         2.95139790542403   -0.69586337055514    1.80220944214115
C         1.95800232498546   -1.41414693681598    2.55656301145006
C         1.58220035452851   -2.57452423915695    1.80287095756529
C         3.19105323914778    1.41188879605914    0.57729377470694
C         2.34256194480983    2.57544548974201    0.57776182565563
C         1.58244239596802    2.56976338206158    1.80299017682827
C         1.95857880407089    1.41236499712581    2.55507889566361
C         2.95472380523823    0.69177684795917    1.80178867352454
C        -0.36211051312006    3.42853513392353    0.58318408589067
C        -1.72256313961024    3.02223143949552    0.58932149369647
C        -2.08731220890587    2.47119684545709    1.95418332535424
C        -0.72257830336466    2.29439459908850    2.59132463094059
C         0.25451133253942    2.98131159854435    1.80827811122610
C        -3.35271070515630    0.68953141306157    0.57754960003015
C        -3.39071077671679   -0.72289460785981    0.58372768018425
C        -2.75540108753347   -1.14844030367207    1.77188130746286
C        -2.37146987624095    0.03449211844152    2.53345250448369
C        -2.72914756209419    1.13511278165740    1.81825077237481
C        -1.72628796240241   -3.00038583970097    0.56900640954702
C        -0.35547960347776   -3.43617051819040    0.57590154153794
C         0.25533702262047   -2.98612169970657    1.79978751193743
C        -0.73109540151178   -2.26579941407932    2.56003974038182
C        -1.96572041151041   -2.28683747145982    1.80643024412773
C        -0.23251621091412   -3.00914474458448   -1.82168963962030
C         0.75848016455697   -2.28917972195717   -2.58150054730387
C         1.98633760559082   -2.29138843950347   -1.82802219268705
C         1.75324853320088   -3.01203745836508   -0.60258607060090
C         0.37977045563215   -3.45199665027784   -0.60251293079304
C         2.80509677153139   -1.16834161741719   -1.82962668095459
C         2.42616174862285   -0.00232764885402   -2.58731555891225
C         2.80588133482915    1.16273696931667   -1.83044664645999
C         3.42006876500744    0.71763168841069   -0.60564041068865
C         3.41872260395369   -0.72302536723835   -0.60505772262295
C         1.98726017636649    2.28625938278316   -1.82935229639249
C         0.76106831645850    2.28575948345590   -2.58572850173989
C        -0.23002016333133    3.00181619395721   -1.82069461659882
C         0.37911689095350    3.44420957646705   -0.60044958521877
C         1.74926605024050    3.00318649556149   -0.60147310610010
C        -1.54768600643470    2.56192134838798   -1.80538730738578
C        -1.92718706391503    1.40009418703958   -2.56675234690551
C        -2.92118712910097    0.67641431495558   -1.82021797888350
C        -3.16601300758721    1.40661988790030   -0.59361762606993
C        -2.30147111774542    2.56637807505207   -0.57995864207204
C        -2.94144897755110   -0.70397393179465   -1.84535495139841
C        -1.93701330813581   -1.40632309274575   -2.56933862644080
C        -1.55710489366186   -2.57532350217092   -1.80970694824732
C        -2.32402953856383   -2.60382734821694   -0.61081171053342
C        -3.39089453187360   -1.53203666011037   -0.66137655534708
C        -0.97678638255959   -0.71896745799689   -3.30986787791799
C        -0.97456630206858    0.71539724753339   -3.31052879241430
C         0.39621126013120    1.16366915943520   -3.31600473044719
C         1.24239842747533   -0.00223265708954   -3.31553818684591
C         0.39352054437067   -1.16617217491385   -3.31124090484167
Cl       -1.95025089743922   -0.00545428564371    5.23755030044157
Cl       -3.13067021106026    3.62676320265676    2.87727776099113
Cl       -5.03545810126660   -2.27432998032110   -0.98121976014855
