63
 energy: -142.110547719869 gnorm: 0.000140817917 xtb: 6.4.1 (a3dbbd7)
C        -1.29879893341672    0.00655045201157    3.52923691272817
C        -0.37310421439755   -1.17397549121734    3.28974194583630
C         0.98283160184136   -0.71791973063851    3.27641377918118
C         0.97791977454635    0.71610661245200    3.25920381303745
C        -0.37479916250698    1.18044208768081    3.29005103670452
C         2.32551247042174   -2.56825419940795    0.58386525294908
C         3.18756153825745   -1.40471221619220    0.57216203807897
C         2.95014731249647   -0.68711421428429    1.79051634280731
C         1.94437140278006   -1.41734640954749    2.53473211091644
C         1.59696131512568   -2.57338785664267    1.80325238165068
C         3.19180189474630    1.42038562132904    0.57133647128299
C         2.33870037659191    2.58198851677356    0.57221479089810
C         1.57505330448714    2.56976862540096    1.79576123260279
C         1.95198052555602    1.41495595608657    2.54627095530217
C         2.95244867908023    0.69790893906138    1.79462033234563
C        -0.36646498245248    3.43231904642169    0.57553148896798
C        -1.73261264996812    3.02446591660836    0.57880257421867
C        -2.09903690196950    2.47153918019772    1.94286730045558
C        -0.73418937697895    2.28900284950682    2.57588136251850
C         0.24548137586887    2.98247134023672    1.79876023472449
C        -3.37924494066653    0.71384359851246    0.57179271706855
C        -3.38827006386429   -0.72228127990895    0.56481057143002
C        -2.76885909689806   -1.15105075278813    1.78560567056771
C        -2.39668576344187    0.03316461686784    2.52602692909901
C        -2.75764994749775    1.14271668127956    1.80911493498351
C        -1.71315962558949   -2.99017777261874    0.57359873641890
C        -0.36615623771151   -3.45669094099356    0.57634373022246
C         0.26044509119424   -3.20522742489074    1.92766677375089
C        -0.74179928392996   -2.27793313167274    2.57698258166754
C        -1.95107814744172   -2.26780893955478    1.79505199496052
C        -0.24641581516383   -3.00029759450123   -1.82112913862220
C         0.74697702539123   -2.28342757542075   -2.57847577097482
C         1.97400609558291   -2.28665581634334   -1.82098657304251
C         1.74732907116761   -3.00922824092475   -0.60488312238577
C         0.36142106620625   -3.44173504776220   -0.59272761692813
C         2.79787191278621   -1.16158608489183   -1.83369833355844
C         2.41686238016245   -0.00025185720528   -2.58847625598437
C         2.79978722371609    1.16904200623901   -1.83553397320794
C         3.41840396332404    0.72593907941546   -0.61096219666719
C         3.41512666802123   -0.71475490720985   -0.60969569887078
C         1.98267664508802    2.29100460062733   -1.83362987238251
C         0.75285477228036    2.29082259593911   -2.58905458594500
C        -0.23536112857881    3.00877659913173   -1.82658666332231
C         0.37258074064181    3.44800618201602   -0.60584250920592
C         1.74610052857488    3.00820517408056   -0.60675996078330
C        -1.55759291249250    2.57490120815893   -1.81400579462537
C        -1.94106582935250    1.41335516313346   -2.57595727636186
C        -2.93977104200440    0.69419256482906   -1.82751907561306
C        -3.17380035535327    1.40812228038227   -0.60269174707933
C        -2.30732441861283    2.58114722654066   -0.59045328439948
C        -2.94651543710162   -0.69902454803652   -1.84045207470735
C        -1.95013015504669   -1.41608430415200   -2.59668586604882
C        -1.57012973121408   -2.58155013397034   -1.83498479777693
C        -2.32364710361255   -2.57992703796427   -0.61428662072225
C        -3.17614143028807   -1.42109321179854   -0.61844179752535
C        -0.98980020621043   -0.71915781937588   -3.31575722452966
C        -0.98788986214086    0.72125847381522   -3.31090026294688
C         0.38532944686877    1.16590735818153   -3.31351669239245
C         1.23051990252859    0.00092946087981   -3.31594101615655
C         0.38342348304352   -1.16345647016961   -3.31269230112327
Cl       -1.94297274325512   -0.02128347114827    5.22317817279164
Cl       -3.13028286009073    3.64023156171078    2.87212749750258
Cl        0.37856486439435   -4.77592051603319    2.88134539660526
