63
 energy: -142.112949535584 gnorm: 0.000118007848 xtb: 6.4.1 (a3dbbd7)
C        -1.29628880027482    0.00744618744690    3.54460993344569
C        -0.36748880440826   -1.16775596412505    3.30305849207907
C         0.98486038970673   -0.71526533063388    3.27679449270020
C         0.98132169873660    0.72464026750611    3.27110856063181
C        -0.37223666964839    1.18329633069205    3.30143183765953
C         2.33727579941220   -2.57420208931456    0.58642437205930
C         3.18885450048525   -1.41052187974428    0.58369859806317
C         2.95529865311647   -0.69005784670895    1.80828401916063
C         1.95943944031128   -1.41005014950877    2.56357998757401
C         1.58619813054247   -2.57003807569294    1.80888893074755
C         3.19147463508091    1.41921569122425    0.58137125435337
C         2.34016179182614    2.58122148892363    0.58048670137746
C         1.57720531705442    2.57239330988672    1.80295928777718
C         1.95413389502903    1.41527781217748    2.55564984727625
C         2.95403885111617    0.69730109413791    1.80697368073955
C        -0.36533606514473    3.43171917690797    0.58297799556722
C        -1.73122983853316    3.02381247210159    0.58665810622693
C        -2.09607772311093    2.46924906470283    1.95124615617433
C        -0.73150920610667    2.29040310451998    2.58458433402393
C         0.24799206241643    2.98136400650775    1.80535927364083
C        -3.37952609369632    0.71636389872264    0.58080570323938
C        -3.39154039752650   -0.72079158792829    0.57303674240845
C        -2.77091197191176   -1.15475106522509    1.79361812998534
C        -2.38893657454919    0.02597764571521    2.53150057302514
C        -2.75335506048336    1.14005474842798    1.81726797337852
C        -1.73757897591714   -3.00892067179774    0.58733426618589
C        -0.35017437317506   -3.43623659175183    0.57678154635001
C         0.25794764297665   -2.98300572616539    1.79985983473186
C        -0.72644687602044   -2.26600483874240    2.55930779861637
C        -1.96840439805506   -2.28657776076715    1.79305185722532
C        -0.24657714241947   -3.22188987288365   -1.94743272951862
C         0.76041059411215   -2.29376336583540   -2.59035073729337
C         1.95941678015400   -2.27607376310750   -1.81951198840874
C         1.72525765127385   -2.99514297291424   -0.59185226551399
C         0.37777961594957   -3.46483682914637   -0.59088691676514
C         2.79353263789335   -1.15913000714872   -1.82126638864144
C         2.42123186287255    0.00174987756275   -2.57732810779104
C         2.80476116070280    1.16973713320413   -1.82592067672430
C         3.41920671410334    0.72471002308840   -0.60014202389051
C         3.41296545134485   -0.71675701769835   -0.59833153157555
C         1.98464724906560    2.29080454804930   -1.82462393519206
C         0.75393612033399    2.28755272989925   -2.57951318880119
C        -0.23468177856297    3.00954814045123   -1.81962406529789
C         0.37339141383717    3.44682541179086   -0.59911405777986
C         1.74774855002594    3.00760268940630   -0.60015060235633
C        -1.55683222642512    2.57299911368678   -1.80615025665192
C        -1.94313861156589    1.41497049637771   -2.56705793060250
C        -2.94228047076834    0.69792216229442   -1.81717587992637
C        -3.17715509316561    1.41170330561488   -0.59282200081838
C        -2.30734653707756    2.58311654788397   -0.58110996173275
C        -2.94617513943371   -0.69389893697562   -1.82523426334015
C        -1.93754817610835   -1.41938751428651   -2.56849824282471
C        -1.58196451729526   -2.58282291171369   -1.82652247262506
C        -2.31183235522194   -2.57373601604028   -0.61504936638457
C        -3.17736094412841   -1.41422234342122   -0.60971677961807
C        -0.99144137264017   -0.72033323828446   -3.31037672113459
C        -0.98805685678444    0.71320726565332   -3.29820668147786
C         0.38526399650403    1.16010890662689   -3.29791055161426
C         1.23104548619929   -0.00375933040986   -3.29551184371718
C         0.38967997294829   -1.17080543101490   -3.29489044538898
Cl       -1.95459630778073   -0.00675114971247    5.23292556290815
Cl       -3.13149024366281    3.63303283560009    2.88279933855326
Cl       -0.36956870273803   -4.79182660660663   -2.89321627233283
