63
 energy: -142.110416483706 gnorm: 0.000072244730 xtb: 6.4.1 (a3dbbd7)
C        -1.29717219031939    0.00498178265060    3.54015000248969
C        -0.37227157339927   -1.17387111363243    3.31577546639079
C         0.98576494199822   -0.72092143852406    3.26007993175323
C         0.97742771805139    0.71843303474621    3.25328024537125
C        -0.37358745561565    1.17897607626165    3.28992494663380
C         2.34712675943219   -2.59108089971629    0.57220831810171
C         3.15810211079622   -1.41792633312330    0.56894407245822
C         2.91764531373324   -0.69622311773870    1.79497174356852
C         1.96306226097823   -1.41487700751714    2.56737322097370
C         1.69497135701279   -2.75395610850183    1.92634093176013
C         3.18019729962477    1.41758315258075    0.57113575079467
C         2.33521768244736    2.58483792018095    0.57089038288552
C         1.57387164944367    2.57698037272320    1.79437372851833
C         1.94872590795502    1.41537511445909    2.54201995317457
C         2.94044034715549    0.69742455404745    1.79492345031582
C        -0.36947288579769    3.43350931799684    0.57531350410183
C        -1.73316133625762    3.02205938130019    0.57921278727880
C        -2.09856205700347    2.46821523243683    1.94423123402635
C        -0.73348371778429    2.28926623479890    2.57733886259896
C         0.24439713911533    2.98277769102579    1.79839516726865
C        -3.38056013856476    0.70962906501025    0.57315675234702
C        -3.39878200109062   -0.72546061348803    0.56528696541394
C        -2.77321092275642   -1.15512989938068    1.78448936816202
C        -2.39322977637299    0.03005192810109    2.53048351318085
C        -2.75265574698495    1.13579036832221    1.81199190955347
C        -1.73945550064866   -2.99657788102575    0.57357882498575
C        -0.35757377028822   -3.42460599006360    0.58665677205607
C         0.23756039068908   -3.00050441277913    1.80307670298059
C        -0.72153097272033   -2.26536128424116    2.54264218653783
C        -1.97246731006130   -2.27484382950868    1.78834250936579
C        -0.24404023743158   -3.00843472957015   -1.82074271015875
C         0.74784837653717   -2.28344722238146   -2.57967724933021
C         1.96985475044307   -2.27955101779150   -1.82205778003718
C         1.74188572595431   -2.99917404018974   -0.59643118037320
C         0.36662914387632   -3.46068982257306   -0.60519501241374
C         2.79333694798070   -1.15953324075145   -1.83292551837037
C         2.41563371191771    0.00470952112587   -2.59269146471225
C         2.79636290865813    1.17090503150820   -1.83644507740433
C         3.40641309910264    0.72355646258181   -0.61079570837483
C         3.40118761044300   -0.71832167842485   -0.61106185413940
C         1.97945524081655    2.29570240496580   -1.83579233591756
C         0.75084847695522    2.29346872707388   -2.59081387220791
C        -0.23861286841984    3.01098965359553   -1.82821384869264
C         0.36995417125530    3.45032598959436   -0.60709625572712
C         1.74313299450649    3.01293640119574   -0.60951680837007
C        -1.55815750729779    2.57208700478972   -1.81347550747931
C        -1.94099446236532    1.41112130944766   -2.57557870860555
C        -2.93805704889521    0.68931798567089   -1.82455631868892
C        -3.17225143651779    1.40346335743419   -0.59892482587168
C        -2.30795533364623    2.57794106099960   -0.58836715156007
C        -2.94468561587774   -0.70183989122338   -1.83780136342229
C        -1.94678450923676   -1.42012721641719   -2.59291029573246
C        -1.57078428485869   -2.58535257200108   -1.83649773460232
C        -2.33499228715370   -2.58557496517437   -0.61269900466456
C        -3.18501984321379   -1.42576068865228   -0.61754066746212
C        -0.98942677552694   -0.72109016800210   -3.31796899051041
C        -0.98884415782881    0.71985286698937   -3.31062498176744
C         0.38334324304215    1.16719042309817   -3.31478428131553
C         1.22945459675996    0.00289074994717   -3.31601007713378
C         0.38253240865823   -1.16367317808303   -3.31370892921554
Cl       -1.95590066930166    0.00640187798223    5.23295478335714
Cl       -3.13681558165444    3.62769630460381    2.87200371986267
Cl        2.50394736334419   -4.11019735166503    2.87381768273056
