63
 energy: -142.113249156318 gnorm: 0.000108017906 xtb: 6.4.1 (a3dbbd7)
C        -1.30163390659986    0.01273482404094    3.54972582972481
C        -0.37146238758809   -1.16131384346828    3.30697556936272
C         0.97281873015654   -0.71277123295080    3.27124591067833
C         0.97506486446812    0.72768795012843    3.26896232033498
C        -0.37682350274947    1.18909685911824    3.30527766718985
C         2.49744280963892   -2.75464788325660    0.62879878038990
C         3.19793428166720   -1.41350631072398    0.58074179179928
C         2.93379343721476   -0.69437882612224    1.78135683793538
C         1.93517580354945   -1.41417015686322    2.53543164346037
C         1.57891021917334   -2.58193866111670    1.81808073704464
C         3.18106126670238    1.41877348013531    0.58030887343048
C         2.33420611838918    2.58380273787673    0.57883331774402
C         1.57166482089197    2.57618999874546    1.80279333876805
C         1.94633548219311    1.41651049690535    2.55151601486593
C         2.94238640310923    0.69757802800759    1.79668775705041
C        -0.37125725554697    3.43159813679219    0.58067023581762
C        -1.73382619880081    3.02286787456471    0.58370918201914
C        -2.10059934066100    2.46952519561509    1.94817839324199
C        -0.73657989648964    2.29508532261356    2.58526901417361
C         0.24231536846963    2.98517485960916    1.80550386207369
C        -3.37634355349413    0.70645764700253    0.57515903357413
C        -3.39297422689378   -0.72706166289779    0.56855117975768
C        -2.76714765276526   -1.15776213037651    1.78767560171697
C        -2.39112322958929    0.03064947556030    2.53313107978770
C        -2.75084938309854    1.13522666902324    1.81411733725568
C        -1.72963111015402   -3.00552130752487    0.57707419450484
C        -0.36852373433989   -3.44804559186201    0.58131972676953
C         0.25655149743971   -2.98052214997075    1.80399988249651
C        -0.72690143343725   -2.26121621836678    2.55947100971728
C        -1.96810956184435   -2.27901536155875    1.79589370285568
C        -0.25282680866493   -3.00112064942421   -1.83349891005102
C         0.73613383489264   -2.28383664520047   -2.58816064890555
C         1.95722250524298   -2.28521392092722   -1.81304827642771
C         1.72921945618095   -3.01311452731434   -0.61580516541246
C         0.37461294718671   -3.42992175027142   -0.59975803669819
C         2.79207218368998   -1.16723364626053   -1.83575941937336
C         2.40896804098299   -0.00762409231217   -2.58227731113442
C         2.78782695032830    1.16052814638531   -1.82507356850510
C         3.40063157164672    0.71630197896267   -0.59998764081103
C         3.39966552155725   -0.72216003827519   -0.59426508678695
C         1.97639983305941    2.28669096036334   -1.82788790042764
C         0.74926794894972    2.28993019420950   -2.58693259719204
C        -0.23866126582704    3.00642314668304   -1.82402822809165
C         0.36977047099073    3.44631808260170   -0.60194271226322
C         1.74072719817544    3.00689464350624   -0.60210776232423
C        -1.55965411578655    2.57160691770161   -1.80994440321334
C        -1.94304289761922    1.41038640244665   -2.57462086888853
C        -2.93944525668113    0.68884587154657   -1.82344435995071
C        -3.17193344974107    1.40313062659074   -0.59702522676998
C        -2.30801164600572    2.57617504748701   -0.58609429250342
C        -2.94699998973277   -0.70216974242538   -1.83760839465033
C        -1.95410745288034   -1.41818608037088   -2.59875151391075
C        -1.57335972156193   -2.58417239167703   -1.83818272308941
C        -2.33494944818879   -2.58717368865515   -0.61293070274819
C        -3.17926645631079   -1.42877804751145   -0.61534782967402
C        -0.99705357403198   -0.72062315108835   -3.32250233180535
C        -0.99297621252753    0.72135922148104   -3.31283147501796
C         0.38151166838388    1.16394885547998   -3.31389432252410
C         1.22370101209456    0.00063323809349   -3.31879424558425
C         0.37514388534468   -1.16377955549468   -3.32087170236773
Cl       -1.96444730842351    0.00113564044150    5.23486696468835
Cl       -3.14450302785856    3.62713058442072    2.87292204766135
Cl        3.70506038742619   -4.10395607298927    0.92847259059887
