63
 energy: -142.092903063390 gnorm: 0.000081285024 xtb: 6.4.1 (a3dbbd7)
C        -1.31829251048097    0.00568939495579    3.59192676181727
C        -0.38217142951989   -1.27835825698017    3.59233857056649
C         0.99348415253400   -0.72689867313621    3.28966879897607
C         0.97445683508218    0.69469266370590    3.25931092041147
C        -0.37127451557244    1.14723901023489    3.29370011495803
C         2.34065269519699   -2.58856140669586    0.57163118145940
C         3.17591751311591   -1.41629308957992    0.57283763445772
C         2.92696052106396   -0.69364685555598    1.79486177345314
C         1.93779661524385   -1.40600706096704    2.55265247939046
C         1.58352666706013   -2.59712756614370    1.79712007325655
C         3.18861829077582    1.41980298907048    0.57595572435224
C         2.34042078802177    2.58763895555099    0.57882581246518
C         1.57847011017336    2.57216905792903    1.80206090570088
C         1.94829129001537    1.40442830596337    2.54512736940490
C         2.94209051415191    0.69594502499800    1.79570704924883
C        -0.35881050712480    3.45350691070604    0.58596939438388
C        -1.73089682900517    3.01536635837909    0.58587751145940
C        -1.97080292428007    2.29294831082018    1.80786629833450
C        -0.73009311073957    2.25697036235813    2.55820555523481
C         0.25316009354068    2.98496322541548    1.80500474817696
C        -3.39637929896628    0.73427933209084    0.58064217821182
C        -3.36186699679482   -0.70923453633970    0.57017501648564
C        -2.73061094772199   -1.12864945504387    1.81407734842017
C        -2.38829837677823   -0.01468086325713    2.55209802310033
C        -2.76750664783965    1.15920908222430    1.79365672579482
C        -1.69685906408385   -3.00289525034197    0.57894019763010
C        -0.33903116815070   -3.46034061997919    0.57021122579661
C         0.26652593009706   -3.01047039993005    1.79854797103822
C        -0.73272728699388   -2.29799423111692    2.56093417299627
C        -1.90188393500939   -2.28407794424297    1.82216929347139
C        -0.22507879331753   -3.00717452429832   -1.83263075268775
C         0.76014336284636   -2.28941528128840   -2.59030129894238
C         1.99087057080167   -2.29204652047270   -1.83841553281299
C         1.75929090133224   -3.02205238439237   -0.61491802321226
C         0.38912131903664   -3.46393765887474   -0.61487603531261
C         2.79791023121423   -1.16403446112225   -1.83291608738564
C         2.41315870230317    0.00783248383223   -2.58485720741050
C         2.79504512344633    1.17087730610230   -1.82819460488874
C         3.40765990041882    0.72503235596317   -0.60553171706132
C         3.40687703041194   -0.71928826934370   -0.60584697276087
C         1.97403180860733    2.29738970428348   -1.82554857084717
C         0.75309806117782    2.30198981617218   -2.58073981932718
C        -0.24021185965633    3.02449304945395   -1.82202153591136
C         0.37272184064765    3.46422694511305   -0.59327332858137
C         1.74541311634131    3.01703888679066   -0.59819607566754
C        -1.55752830464115    2.59655997078270   -1.81952786644584
C        -1.94258426619590    1.41676293611516   -2.56654353580781
C        -2.94047027047469    0.72426756708854   -1.82954737824503
C        -3.15763353191300    1.41968492887871   -0.61460031902140
C        -2.31785272630247    2.59673860247865   -0.60078694751352
C        -3.13088715612389   -0.74555957291609   -1.94583703373695
C        -1.93862325058332   -1.41725019264716   -2.58961541237530
C        -1.54588686524782   -2.55229219388932   -1.82047355616406
C        -2.28830239440170   -2.55163497248444   -0.58945624752185
C        -3.16203248073321   -1.40820317435436   -0.58785300509778
C        -0.98720513368847   -0.71812437934588   -3.29747050191367
C        -0.98631524498994    0.73335300648586   -3.31523644879902
C         0.37838810800043    1.17313509256524   -3.30692992477372
C         1.22769250728706    0.00841951216276   -3.30628659134639
C         0.38361310008436   -1.15884791375180   -3.30299086685619
Cl       -2.10346663260582    0.29137708026985    5.20083274977382
Cl       -0.34126108265699   -2.10378707429707    5.20699672842085
Cl       -4.66724383471313   -1.12812848155462   -2.88091813292630
