63
 energy: -142.106789166752 gnorm: 0.000080764019 xtb: 6.4.1 (a3dbbd7)
C        -1.31323321793541    0.01985047540086    3.57964787300176
C        -0.38853575766255   -1.25568321695374    3.57581937015392
C         0.99384423324117   -0.71093161705173    3.27992959749723
C         0.98337048819702    0.70973987883169    3.25566968582954
C        -0.36318018929955    1.15979809854954    3.29095217017051
C         2.33228325168927   -2.57993684742345    0.56564189416331
C         3.17318950094214   -1.40874139846737    0.56861556215980
C         2.93065227313703   -0.68542925926409    1.79080140753667
C         1.93572777744287   -1.39255625312650    2.54626271446401
C         1.57092595720655   -2.57884690136201    1.78310276124945
C         3.19444329641593    1.42533485674768    0.56933373422687
C         2.35002819408441    2.59570157607542    0.57177079530848
C         1.59310172380767    2.58663290290210    1.79737028377260
C         1.96194501086679    1.41786070203010    2.54377832894832
C         2.94980918384874    0.70489886341550    1.79346076142351
C        -0.34701464309577    3.45420525521320    0.58098642640494
C        -1.71784945382210    2.99752747649839    0.58864375793143
C        -1.94593104824343    2.29237759538243    1.80682295717347
C        -0.71704907512014    2.27298644557211    2.55600817577908
C         0.26957040258989    3.00176825614115    1.80000166599205
C        -3.36115293799325    0.69157121427443    0.56859590006594
C        -3.40918569843458   -0.72565690095597    0.56780606309487
C        -2.98165813277519   -1.23180251257479    1.93255400616521
C        -2.40815523735304    0.00422590916956    2.57268310329953
C        -2.71941053325929    1.11281980229125    1.80233933437294
C        -1.70709915411363   -2.98885449512139    0.56102417852929
C        -0.34664678868190   -3.44217123773224    0.55594793428805
C         0.25326057483617   -2.97791008784144    1.77449517842504
C        -0.75558829420924   -2.23385834021719    2.51097151279147
C        -1.91595729164372   -2.25295526468778    1.79621259840691
C        -0.23294326341453   -3.01642784166209   -1.84751017332811
C         0.75521471371260   -2.28746136784795   -2.60257582218369
C         1.98412351103102   -2.28738348417453   -1.84490189330890
C         1.75076794330517   -3.01421651512542   -0.62332418297125
C         0.38406226222984   -3.46303132678561   -0.62709030797931
C         2.79450796786574   -1.15993027685082   -1.83817599051282
C         2.41428922014801    0.00843845088478   -2.59172013445859
C         2.79430793524352    1.17286518611443   -1.83388476846370
C         3.41020525263168    0.72786645105248   -0.61048228125784
C         3.40543707393806   -0.71547811126247   -0.61064916158196
C         1.97895387534677    2.29856263450556   -1.83171089876819
C         0.74997000622951    2.29826931403174   -2.58474810662482
C        -0.23785035947652    3.01904828574011   -1.82862762083296
C         0.37808372427899    3.46238881085476   -0.60167520570887
C         1.75155203428040    3.02079752908826   -0.60672220588142
C        -1.56116171964081    2.58592836532228   -1.82293559472954
C        -1.94176626515355    1.41979261743784   -2.58688840816701
C        -2.93336336901370    0.69781108910508   -1.83068803641830
C        -3.15536213906393    1.40550036460880   -0.60550988711902
C        -2.31229174177001    2.57848504694925   -0.60260357285340
C        -2.92876168901780   -0.69457926253597   -1.82331225034045
C        -1.93748937369974   -1.41332691389983   -2.58514271962954
C        -1.55701090376969   -2.58479979692814   -1.83651344794568
C        -2.30934605813935   -2.58925453153741   -0.61221120055662
C        -3.16751894956696   -1.40944888413172   -0.60295448502881
C        -0.98576420291742   -0.71670104861823   -3.31563111054913
C        -0.98631655979429    0.72633344459665   -3.31352483899114
C         0.38428473065487    1.17202633536170   -3.31510997701871
C         1.23056629942334    0.00939921938897   -3.31829997104109
C         0.38551771057885   -1.16051453351450   -3.32174881774462
Cl       -2.08595680852750    0.31129288502963    5.21317957727639
Cl       -0.35719949715365   -2.12884264209720    5.15718708386555
Cl       -4.40219020604111   -1.88300705581936    2.86775934158386
