63
 energy: -142.093107675927 gnorm: 0.000060487744 xtb: 6.4.1 (a3dbbd7)
C        -1.33251908337519    0.00404466195293    3.59677390310682
C        -0.39510484465870   -1.27902526032880    3.59055142814773
C         0.98024122375694   -0.72549486663245    3.29283647374919
C         0.95973538768838    0.69409738328643    3.26523305113985
C        -0.38662230932638    1.14679964393459    3.29907719176622
C         2.31926269598366   -2.57823086242332    0.56135818650420
C         3.15856255160553   -1.41022256563984    0.55805634526523
C         2.91810320947537   -0.69316351462046    1.79709154264870
C         1.92699967853400   -1.39908439756608    2.54479538319988
C         1.56675436210741   -2.58834970909189    1.78716268191970
C         3.17857274828468    1.42936360976829    0.58735278248806
C         2.32635788315708    2.56261319913493    0.57744250819798
C         1.55962417537794    2.56458736738570    1.80465026749063
C         1.92864022814648    1.40504519196306    2.54706276790096
C         2.92105525038774    0.70031198531663    1.77895712082878
C        -0.37706935347324    3.44446068426185    0.58480453761623
C        -1.74373614677774    3.00662604816556    0.58231667602253
C        -1.98642517234161    2.28594364734186    1.80693931789374
C        -0.74404616161102    2.25558418912002    2.56430673558161
C         0.23579516866163    2.97852264968321    1.80581178415438
C        -3.40171644043077    0.72723000519515    0.57618083179765
C        -3.38404370968546   -0.70489001912635    0.57825989744694
C        -2.75471178759050   -1.12896303091422    1.82204007011203
C        -2.40712902303513   -0.01494672111762    2.56119697761046
C        -2.78040009099302    1.15942107479521    1.80366099378227
C        -1.71222168236564   -3.00580499413558    0.57314946047461
C        -0.35445509744888   -3.46201611361603    0.56482836753592
C         0.25241398065172   -3.00464188366040    1.79115765150649
C        -0.74805161661965   -2.29310316112764    2.55398403052872
C        -1.91798578419797   -2.27976546487161    1.81933776019048
C        -0.24587233287401   -3.01826545181912   -1.84044671612303
C         0.74129575152776   -2.28923719616283   -2.59657828675536
C         1.96825830523713   -2.28992941251468   -1.83808065949930
C         1.73768891243628   -3.02031155564809   -0.62278746600895
C         0.37113723147171   -3.47157054487684   -0.62165909023285
C         2.77582919935813   -1.15657953066302   -1.81809260511823
C         2.39339048571641    0.01551393764544   -2.57299525792302
C         2.78852776000333    1.17255930253244   -1.84575682397606
C         3.63466276259887    0.76607124067425   -0.65978499815461
C         3.40731448609915   -0.72942222831063   -0.61292261124810
C         1.96327976435519    2.27966679520026   -1.82763414608062
C         0.73857282574592    2.28308021951114   -2.58044169325225
C        -0.25302660174183    3.00578190810320   -1.82377574314119
C         0.36424743065973    3.44734130880970   -0.59528365147106
C         1.73151406619726    3.01735118907498   -0.60155029459879
C        -1.57385846597362    2.58589886739167   -1.82894801318949
C        -1.95550623858107    1.41968263339032   -2.58966875904659
C        -2.94786651133667    0.70290796689828   -1.83007657431983
C        -3.18417934425892    1.42573214698292   -0.60730827365618
C        -2.33954607657240    2.58912099039647   -0.60579092055829
C        -2.94059139341506   -0.68907557222339   -1.82272172169925
C        -1.95148369371339   -1.41210992764220   -2.58227045740742
C        -1.56678001061384   -2.58016437525010   -1.82720633456973
C        -2.30698535502896   -2.57581414582874   -0.59709239003528
C        -3.16267503839509   -1.39955013576204   -0.59412759989387
C        -1.00076616470811   -0.71888189671182   -3.31662414429581
C        -1.00277173376721    0.72344754958722   -3.31935748331221
C         0.36972084476899    1.16527918505472   -3.31832607090673
C         1.21399248958445    0.00655379653691   -3.31541329417477
C         0.37160813019621   -1.16269161055662   -3.31708186242952
Cl       -2.11185698139889    0.28441559082825    5.20970876271704
Cl       -0.35603085126244   -2.11545047023202    5.19991219309633
Cl        5.40729263900013    1.13328842009792   -0.98205395335912
