63
 energy: -142.099792225405 gnorm: 0.000157045573 xtb: 6.4.1 (a3dbbd7)
C        -1.32211897822907    0.00682829503188    3.58606888217209
C        -0.38848890384429   -1.27388196025840    3.58068009057738
C         0.98832965490803   -0.72112354261484    3.28165024438746
C         0.96972631155810    0.70229634815554    3.25911465379429
C        -0.37674086336452    1.15020084722244    3.29149178895770
C         2.32838056486841   -2.58834835246037    0.58446159454667
C         3.16541845923270   -1.39828454466419    0.56883785902319
C         2.91962835970188   -0.67982643598349    1.79034490735804
C         1.93087300910107   -1.39715830615586    2.54507230960472
C         1.58174075819318   -2.58993144987346    1.78529600942520
C         3.17657634220586    1.42668758402496    0.58130644154448
C         2.32978756987641    2.59500069101663    0.58264217211989
C         1.57140215237313    2.58421429103310    1.80675631761164
C         1.94446690102736    1.41765374342734    2.55250923286030
C         2.93692749927671    0.70945844419799    1.80072701601098
C        -0.37256173810909    3.45216261672086    0.58690498999233
C        -1.74345848673728    3.00949939348729    0.58890820411129
C        -1.97854828497834    2.29146085178356    1.80929888540274
C        -0.73736532755190    2.26281199286955    2.56091172670483
C         0.24374150436817    2.99105829121124    1.80711497164774
C        -3.39592786225337    0.72365260965452    0.57751542366629
C        -3.38814904300643   -0.71063016845788    0.57634194476214
C        -2.75488977436255   -1.13792201257724    1.81399889282777
C        -2.40068879281989   -0.01145875954382    2.55658338432008
C        -2.76934509368121    1.15122764254843    1.80409490845485
C        -1.73043538431462   -3.00853141497473    0.57227620756996
C        -0.36497961977381   -3.45374759459863    0.56633389792113
C         0.24265766993620   -2.99659903826472    1.79726042098716
C        -0.73624117873536   -2.28921088664259    2.54181076033649
C        -1.93272884237557   -2.28185120522208    1.80976412838172
C        -0.25751916408140   -3.01366994682539   -1.83236463848144
C         0.74309010534892   -2.27929112714672   -2.57411536765782
C         1.96102489896606   -2.30031581814730   -1.82535399810820
C         1.73183846758268   -2.99174541113254   -0.62454508266545
C         0.35681071948885   -3.45555301223846   -0.61405824000781
C         2.98704035791118   -1.23081927915159   -1.95430215116853
C         2.41188756528576    0.01568572327136   -2.59300303674648
C         2.76612409821872    1.15862340068442   -1.82231535808156
C         3.38398372475114    0.71536434852985   -0.59720848652621
C         3.41273057746844   -0.71271517461247   -0.59671066696770
C         1.95791273813866    2.29716717805182   -1.81973329465625
C         0.73881010057225    2.30205900020428   -2.57423198258967
C        -0.25504676213568    3.02467055747771   -1.82200968569217
C         0.35758297045445    3.46365534930677   -0.59227364917719
C         1.73092011680426    3.01836066832200   -0.59538264379001
C        -1.57467572247950    2.59104782374396   -1.82124742856215
C        -1.95167802967250    1.42160590606623   -2.58093331655713
C        -2.95078529680305    0.70418906024226   -1.82852115829685
C        -3.18129543675637    1.42155372971185   -0.60407590558124
C        -2.33496300690919    2.58972926715584   -0.60111985859913
C        -2.94453880398602   -0.68850680773729   -1.82585736726953
C        -1.95689239565890   -1.41188594451207   -2.58192008237872
C        -1.57919858929151   -2.58304343503036   -1.82916874258983
C        -2.32583920976276   -2.58315327408854   -0.60221664011030
C        -3.17301787616517   -1.40393237215308   -0.59872049140930
C        -0.99161181417118   -0.71786093707710   -3.30523066681874
C        -0.99290729165484    0.72545114682247   -3.30036253390176
C         0.37756854317586    1.16978653544819   -3.29534816986082
C         1.22728862155439    0.01120364997956   -3.29571024266537
C         0.37232099166174   -1.16415299010843   -3.31246690559012
Cl       -2.09864439434011    0.29357522994378    5.20382304733115
Cl       -0.34760445392465   -2.11357756290984    5.18590711858971
Cl        4.43340941817389   -1.83526872996964   -2.89896055082902
