63
 energy: -142.097539080401 gnorm: 0.000242647735 xtb: 6.4.1 (a3dbbd7)
C        -1.32649254941092    0.01006244353906    3.59152699331583
C        -0.39450091517199   -1.27357365773447    3.58683218423387
C         0.98252825616771   -0.72387994535584    3.28291830765283
C         0.96588550483786    0.69826030013596    3.25935883641899
C        -0.37710754104929    1.15023450207954    3.29210324173043
C         2.31468450863204   -2.58089178187532    0.56235077695222
C         3.17253149657545   -1.40878300731761    0.57501540808178
C         2.91872368126415   -0.69057643630267    1.78551371453957
C         1.92309376007178   -1.40171520506083    2.54367837975104
C         1.56442162459553   -2.58679177985137    1.78639422609355
C         3.18140906458105    1.43239434605675    0.57801251189053
C         2.33544166630297    2.59985099998328    0.58128563810350
C         1.57228292991647    2.58039608481728    1.80385404292160
C         1.94355325694858    1.40878282890192    2.54546682443397
C         2.93439065949265    0.70454846304945    1.79891829105653
C        -0.36718826807009    3.45097115245874    0.58341375819449
C        -1.73980472269866    3.01031564761553    0.58590586198233
C        -1.97485985711970    2.29063639246413    1.80735850687650
C        -0.73693932455778    2.26209199917010    2.55992243597243
C         0.24696594986417    2.98831337423681    1.80351959238108
C        -3.39962931500746    0.73045688519760    0.58023481760755
C        -3.38919457390738   -0.70435550743946    0.58267235111131
C        -2.76061606381066   -1.12961768740596    1.82279870978222
C        -2.40406227854301   -0.00854412111110    2.55819873244542
C        -2.77508027440480    1.15956114632860    1.80747140968296
C        -1.71719473072207   -3.00081464879434    0.57859190928682
C        -0.35406293816065   -3.45328657286084    0.57299736439635
C         0.24376877667786   -3.00264578813128    1.79526089450600
C        -0.75128097784514   -2.29106356000352    2.55609377298547
C        -1.92835600933131   -2.27927659872450    1.81998003388091
C        -0.23289226745000   -2.98726413107094   -1.83191489522451
C         0.74138427696785   -2.29290237745251   -2.60372411306385
C         2.10494058339466   -2.45160416787174   -1.96459200758165
C         1.74709011344940   -3.02915174892424   -0.61243320649211
C         0.38359476811114   -3.44074973763362   -0.61013046881582
C         2.79720234980143   -1.14215671722103   -1.83340549240206
C         2.40138354054328    0.00262126748770   -2.56721467170287
C         2.78351304054489    1.18285268973232   -1.82044798177266
C         3.39626197234666    0.73888392148382   -0.60220096722134
C         3.38015123712703   -0.71033112158936   -0.61360794734088
C         1.96803793067550    2.30578817530136   -1.82176123305565
C         0.74038804995399    2.30413721523403   -2.57932326429740
C        -0.24887447154575    3.01943860277661   -1.82503510279312
C         0.36280932921346    3.46408454715580   -0.59484302334828
C         1.73817123493019    3.02689563234612   -0.59740326973739
C        -1.57359126739538    2.59273647606836   -1.82345867382634
C        -1.95090792479030    1.42306081020976   -2.58130395280744
C        -2.94819305358296    0.70572802765473   -1.82494163233271
C        -3.18128375111179    1.42562451495925   -0.60247975694787
C        -2.33093057239715    2.59231635089025   -0.60211254392767
C        -2.94571393643851   -0.68567160421592   -1.82023592886448
C        -1.95205844052432   -1.40787146148395   -2.57528101458326
C        -1.56542099116960   -2.56867736702709   -1.82216582115813
C        -2.30711720646556   -2.56893738385344   -0.59419838845971
C        -3.16750473156673   -1.39706542883089   -0.59167925818500
C        -0.99301460650958   -0.71447234078096   -3.29884203156562
C        -0.99384133386586    0.72616291020606   -3.30191465539332
C         0.38056048092845    1.16876375848636   -3.30648306217133
C         1.22269713498339    0.01383176995058   -3.31781419598433
C         0.37604232826803   -1.16304200005126   -3.30275605529498
Cl       -2.10324887213046    0.29945983961444    5.20432674532707
Cl       -0.35096985275466   -2.10547700987212    5.19865967781654
Cl        3.13530434252801   -3.62521663391970   -2.92446284916532
