63
 energy: -142.091907152826 gnorm: 0.000111705149 xtb: 6.4.1 (a3dbbd7)
C        -1.32437189545103    0.00455015420883    3.58392637943378
C        -0.39124275891472   -1.27811434215988    3.57810986277501
C         0.98121394069216   -0.72523083514505    3.27000215426329
C         0.97285623827271    0.69362000833273    3.24386189708480
C        -0.37984390270223    1.14939029463543    3.29965901008275
C         2.32744707554410   -2.59789340192665    0.56113599594780
C         3.16085820288240   -1.42311577539461    0.56290738706254
C         2.90702410535930   -0.70143876626331    1.78404779299506
C         1.92478964492077   -1.41291946709784    2.53751109500404
C         1.57129768091948   -2.60644358521620    1.78585406816431
C         3.15472037062147    1.41863763434854    0.56284069265398
C         2.34513879333682    2.59289796892795    0.56838735857188
C         1.68985695214389    2.74727985802800    1.92312239985583
C         1.95257971585126    1.40411624772859    2.55419643965941
C         2.90255843821054    0.69412575894181    1.78615025047163
C        -0.36182897514844    3.41892172178159    0.58670996251419
C        -1.74326646586915    2.99075371707607    0.57620132128864
C        -1.97805705500046    2.27187254606195    1.79371794459408
C        -0.72543678422349    2.24915540328872    2.53685003746536
C         0.23431455114700    2.98870043268234    1.79963960304967
C        -3.40510965360861    0.71988001227384    0.57227766017704
C        -3.38613141485301   -0.71350234230113    0.57452828447916
C        -2.75505762523595   -1.13719352197607    1.81718816696865
C        -2.40544370258178   -0.02130143364997    2.55474846293665
C        -2.77956855111784    1.14940913184292    1.79842246908903
C        -1.71077112706645   -3.01231923061802    0.56690859686748
C        -0.35169188150366   -3.46996133665965    0.55972142522936
C         0.25249531324701   -3.01404184740779    1.78575858136285
C        -0.74587712831694   -2.29766409077924    2.54591525386057
C        -1.91738168502897   -2.28692142056040    1.81289685481876
C        -0.23925696875736   -3.02074241417750   -1.84480153754354
C         0.74891671499741   -2.29490640870599   -2.60345267499764
C         1.97752373054249   -2.29863558161211   -1.84808229032911
C         1.74535326551795   -3.02990682974241   -0.62609928195405
C         0.37654666758360   -3.47435643830391   -0.62570956182275
C         2.79047126325822   -1.17360678588498   -1.84373253496697
C         2.41030237062617   -0.00268242059110   -2.59782310704983
C         2.78761416342737    1.15882139128261   -1.83608687032998
C         3.39322307812185    0.71692306918003   -0.61494916115579
C         3.39428855370590   -0.72743410472470   -0.61415676995566
C         1.96505713775474    2.28259304001893   -1.82491225377699
C         0.74355379828410    2.28567441630552   -2.58060232848716
C        -0.24925131438226    3.01068182660581   -1.81990465097859
C         0.36152675693783    3.46219472807837   -0.60615302539220
C         1.73842701294570    3.00146426227597   -0.59928329746739
C        -1.57542118917786    2.58338745054620   -1.83300018385588
C        -1.94983279262956    1.41875203814502   -2.58973653532553
C        -2.94542116480687    0.69767044428768   -1.83316838954553
C        -3.18736234190425    1.41835157385925   -0.61087414882256
C        -2.33911022841975    2.58139996192136   -0.60892427254895
C        -2.93527650065824   -0.69247550338422   -1.82625098320662
C        -1.94330661658890   -1.41479042154894   -2.58567698052082
C        -1.55935226229239   -2.58154604438105   -1.83257343615952
C        -2.30282848050896   -2.58007247423420   -0.60193312904723
C        -3.15937530790822   -1.40492618013078   -0.59837658176442
C        -0.99161787163412   -0.71917923113604   -3.31684473438167
C        -0.99337983344397    0.72174721139905   -3.31793207797814
C         0.37834022648427    1.16570834336147   -3.31494032423485
C         1.22569749865185    0.00044648883274   -3.32134574321857
C         0.38003585676003   -1.16663584324997   -3.32265332391251
Cl       -2.10295707352235    0.29088208141107    5.19975636188130
Cl       -0.34418182068305   -2.10957266496468    5.18915282339835
Cl        2.50040086626657    4.09563234741671    2.88201668553608
