72
 energy: -177.381187383115 gnorm: 0.264479315384 xtb: 6.4.1 (a3dbbd7)
C        -1.23626340000000    0.00000000000000    3.32997640000000
C        -0.38202640000000   -1.17575640000000    3.32997640000000
C         1.00015810000000   -0.72665740000000    3.32997640000000
C         1.00015810000000    0.72665740000000    3.32997640000000
C        -0.38202640000000    1.17575640000000    3.32997640000000
C         2.34433560000000   -2.60145750000000    0.59464210000000
C         3.19857260000000   -1.42570110000000    0.59464210000000
C         2.96246730000000   -0.69904370000000    1.83090550000000
C         1.96230920000000   -1.42570110000000    2.59495830000000
C         1.58028280000000   -2.60145750000000    1.83090550000000
C         3.19857260000000    1.42570110000000    0.59464210000000
C         2.34433560000000    2.60145750000000    0.59464210000000
C         1.58028280000000    2.60145750000000    1.83090550000000
C         1.96230920000000    1.42570110000000    2.59495830000000
C         2.96246730000000    0.69904370000000    1.83090550000000
C        -0.36750900000000    3.48258920000000    0.59464210000000
C        -1.74969350000000    3.03349030000000    0.59464210000000
C        -1.98579880000000    2.30683290000000    1.83090550000000
C        -0.74953540000000    2.30683290000000    2.59495830000000
C         0.25062270000000    3.03349030000000    1.83090550000000
C        -3.42570570000000    0.72665740000000    0.59464210000000
C        -3.42570570000000   -0.72665740000000    0.59464210000000
C        -2.80757400000000   -1.17575640000000    1.83090550000000
C        -2.42554760000000    0.00000000000000    2.59495830000000
C        -2.80757400000000    1.17575640000000    1.83090550000000
C        -1.74969350000000   -3.03349030000000    0.59464210000000
C        -0.36750900000000   -3.48258920000000    0.59464210000000
C         0.25062270000000   -3.03349030000000    1.83090550000000
C        -0.74953540000000   -2.30683290000000    2.59495830000000
C        -1.98579880000000   -2.30683290000000    1.83090550000000
C        -0.25062270000000   -3.03349030000000   -1.83090550000000
C         0.74953540000000   -2.30683290000000   -2.59495830000000
C         1.98579880000000   -2.30683290000000   -1.83090550000000
C         1.74969350000000   -3.03349030000000   -0.59464210000000
C         0.36750900000000   -3.48258920000000   -0.59464210000000
C         2.80757400000000   -1.17575640000000   -1.83090550000000
C         2.42554760000000    0.00000000000000   -2.59495830000000
C         2.80757400000000    1.17575640000000   -1.83090550000000
C         3.42570570000000    0.72665740000000   -0.59464210000000
C         3.42570570000000   -0.72665740000000   -0.59464210000000
C         1.98579880000000    2.30683290000000   -1.83090550000000
C         0.74953540000000    2.30683290000000   -2.59495830000000
C        -0.25062270000000    3.03349030000000   -1.83090550000000
C         0.36750900000000    3.48258920000000   -0.59464210000000
C         1.74969350000000    3.03349030000000   -0.59464210000000
C        -1.58028280000000    2.60145750000000   -1.83090550000000
C        -1.96230920000000    1.42570110000000   -2.59495830000000
C        -2.96246730000000    0.69904370000000   -1.83090550000000
C        -3.19857260000000    1.42570110000000   -0.59464210000000
C        -2.34433560000000    2.60145750000000   -0.59464210000000
C        -2.96246730000000   -0.69904370000000   -1.83090550000000
C        -1.96230920000000   -1.42570110000000   -2.59495830000000
C        -1.58028280000000   -2.60145750000000   -1.83090550000000
C        -2.34433560000000   -2.60145750000000   -0.59464210000000
C        -3.19857260000000   -1.42570110000000   -0.59464210000000
C        -1.00015810000000   -0.72665740000000   -3.32997640000000
C        -1.00015810000000    0.72665740000000   -3.32997640000000
C         0.38202640000000    1.17575640000000   -3.32997640000000
C         1.23626340000000    0.00000000000000   -3.32997640000000
C         0.38202640000000   -1.17575640000000   -3.32997640000000
C        -1.76086815247998    0.00000000000000    4.78849957557021
F        -0.76911826531252    0.00000000000000    5.67468926254662
F        -2.50968386795825   -1.06794314680471    5.04863888333743
F        -2.50968386795825    1.06794314680471    5.04863888333743
C         2.84103082519036    3.32439911178427   -2.62817407941587
F         2.23127406184888    4.50005340761388   -2.75037746012491
F         3.10404037880940    2.89718378306489   -3.85992609894427
F         4.01248672303644    3.55720929213525   -2.04303264409737
C        -0.34440953624153   -4.35941144868709   -2.62817404748705
F         0.83992598883967   -4.95213069234126   -2.75037577510431
F        -0.80829780400759   -4.16837989546168   -3.85992670963205
F        -1.15529636597892   -5.23632261667420   -2.04303359185445
72
 energy: -177.442460693663 gnorm: 0.169520444207 xtb: 6.4.1 (a3dbbd7)
C        -1.24463686712796   -0.00138492570399    3.33521477496630
C        -0.35838212893311   -1.19021363758903    3.33758298132515
C         1.00246348150941   -0.72451356641541    3.31771890487118
C         1.00131412034522    0.72632230946914    3.31753231150855
C        -0.36084906861865    1.18977434010311    3.33766179012047
C         2.34374186362375   -2.59349917774382    0.60250689569232
C         3.19131578454242   -1.42268034841384    0.59607789482186
C         2.95732200244152   -0.69717999982969    1.82458132002439
C         1.96596878951714   -1.42096922849228    2.58544284671663
C         1.58584028932302   -2.59232202326392    1.83048160263693
C         3.18945762648015    1.41686653430970    0.59151891778626
C         2.32820138594008    2.58703217822921    0.60252069955733
C         1.57679189386379    2.59096646394691    1.83174544195637
C         1.96168673479986    1.42404949806828    2.58422366401104
C         2.95668205483434    0.69974092244482    1.82007542959281
C        -0.36992275245154    3.46389075499934    0.60225509301982
C        -1.74642798082095    3.01884448379618    0.59734063721173
C        -1.97884967266674    2.29470723404780    1.82207462507215
C        -0.73921780267684    2.29774259144614    2.58825102778487
C         0.24986477384381    3.02500917049602    1.82965215237669
C        -3.42705559465267    0.72584082022768    0.57848976560399
C        -3.42738306568647   -0.72074928655357    0.57811615940475
C        -2.79959562953640   -1.16739906514256    1.80452536491827
C        -2.43765582099718   -0.00497536079732    2.53239081670808
C        -2.80240568250735    1.16991909713819    1.80359040533831
C        -1.74432046767067   -3.01766957544640    0.59905899377586
C        -0.35895975065832   -3.45682867974734    0.60894238269674
C         0.25985991409693   -3.02603485922109    1.83738875154241
C        -0.73416105372974   -2.29934754821765    2.58800706097275
C        -1.97254153966843   -2.30080045888813    1.81716324834621
C        -0.25429482383971   -3.08975819265841   -1.84723664509139
C         0.75719626969846   -2.27376832909468   -2.57185154246133
C         1.97728545888561   -2.29866686021337   -1.81821359931067
C         1.74318486018036   -3.01406903064242   -0.58137486046197
C         0.37689418921445   -3.45426044881785   -0.55721969550294
C         2.80728953593371   -1.18154244575800   -1.82328156689965
C         2.41765628277513   -0.01480379954917   -2.58073919858067
C         2.82129435634575    1.13486239652062   -1.83854586615708
C         3.41043805974079    0.71174187666966   -0.59946455468864
C         3.41272241498816   -0.73567448233533   -0.59217917020963
C         2.01699962648114    2.33462041777631   -1.85163364144294
C         0.72112100255716    2.31271613995421   -2.58258122249247
C        -0.25785635615167    3.02609901779243   -1.81813403022371
C         0.36001899634090    3.46577898352632   -0.58340032641083
C         1.72367605243040    3.01017269350409   -0.56370351851079
C        -1.58551309076788    2.59437250972093   -1.82069689474847
C        -1.96131402702847    1.42615983620058   -2.58130582240889
C        -2.96056011347639    0.70245565401437   -1.82542362081186
C        -3.19672297912786    1.42466375351589   -0.59779298598017
C        -2.34058056604737    2.59227835817843   -0.59081181971400
C        -2.96585268877741   -0.68714313363412   -1.82715879764085
C        -1.96322252838249   -1.40566150638558   -2.58210161226363
C        -1.60916825711719   -2.57471428617142   -1.83109650343872
C        -2.33748922557263   -2.58123325144339   -0.60028136657997
C        -3.20031126192435   -1.41416968137374   -0.60011231788409
C        -1.00094125669387   -0.71537813554201   -3.31521860310358
C        -1.00150754088745    0.72791977208559   -3.31242581144648
C         0.37148038368507    1.17952031072962   -3.31206998820019
C         1.22777912774257    0.00436744388253   -3.31150661058524
C         0.38197827593518   -1.15789684072297   -3.31018860071835
C        -1.77108912596921    0.00070756633318    4.81276493058071
F        -0.77503905630404    0.00194313070712    5.70010869770688
F        -2.51938052966528   -1.07153945323307    5.06915721024783
F        -2.51977177508796    1.07341040166739    5.06710791434897
C         2.86507494458873    3.35924884248444   -2.65332447624097
F         2.24703294573572    4.53400740272065   -2.77183834308309
F         3.11898899566193    2.91821104666608   -3.88458614996980
F         4.03618708070020    3.58279057056327   -2.06014119247208
C        -0.34424803324733   -4.40907815319296   -2.65055809662785
F         0.84561952349620   -4.99502093997863   -2.76992654303730
F        -0.81122132671167   -4.19869225417765   -3.88022774474055
F        -1.16057953930809   -5.27651461611138   -2.05547117497239
72
 energy: -177.479052526104 gnorm: 0.089866983974 xtb: 6.4.1 (a3dbbd7)
C        -1.27538898622882   -0.00318505478551    3.43297184498394
C        -0.33025266818625   -1.19593987121959    3.28442330947897
C         1.00111588497135   -0.72259323527185    3.28562558006728
C         0.99838151808170    0.72336857823181    3.28501908534159
C        -0.33493907336390    1.19407538779979    3.28439711568040
C         2.34273267647764   -2.58706643298015    0.60882964981013
C         3.18735620958654   -1.42176183590337    0.59893012716920
C         2.95448204839188   -0.69854516957352    1.81932744588155
C         1.97196432017756   -1.42084131293373    2.57047607789965
C         1.59002887020372   -2.58508689714279    1.82395997943517
C         3.18330260916343    1.40976628116937    0.59716225646405
C         2.31030372886517    2.57265312174517    0.60710098550512
C         1.57378039828071    2.58487684079663    1.83056991524614
C         1.96174400369058    1.42613299340286    2.56908395912923
C         2.95026648510029    0.70029223609773    1.80885497482790
C        -0.37351638221050    3.45559975935952    0.60656221391217
C        -1.74392033664732    3.00712945958659    0.59623175678957
C        -1.97769435059735    2.28887096829247    1.80940583232620
C        -0.72968070812985    2.28804395986392    2.55893693069867
C         0.24689384850458    3.02314282001367    1.81981639734868
C        -3.42503277189853    0.72804676421124    0.56614463090940
C        -3.42697019920959   -0.70976987418499    0.56754359773030
C        -2.78618625303230   -1.14990103020956    1.78936079626741
C        -2.44884491037023   -0.01191487553654    2.48870584921302
C        -2.78898953667541    1.16086350168680    1.78251483143418
C        -1.74350139308817   -3.00340313479820    0.60943546563061
C        -0.35134202471086   -3.43508318425686    0.61201891232176
C         0.26592952219875   -3.02220277855195    1.83197636697236
C        -0.72048567378468   -2.29125491397982    2.55802371447114
C        -1.96596228939309   -2.30218866794225    1.80011851582638
C        -0.25456249680728   -3.17362368863336   -1.89467496031721
C         0.77310599743218   -2.23915713065527   -2.55496896690584
C         1.96416246793915   -2.28278519883932   -1.80444645525233
C         1.73292067727305   -2.99395155316457   -0.57144350216163
C         0.38751992646043   -3.42159918356956   -0.52775916516444
C         2.80928714800460   -1.18106395385899   -1.81136558573155
C         2.40960316016690   -0.01973140888033   -2.55267921255355
C         2.82071883097323    1.09523103162520   -1.81458860139227
C         3.38743088486457    0.69974595603143   -0.59283258655987
C         3.40544447731508   -0.74344925585264   -0.58586582825328
C         2.06672701216802    2.40578520012115   -1.89933912564996
C         0.68389611352303    2.28201376129530   -2.56228444111373
C        -0.25950248842743    3.00055360919929   -1.80809149489570
C         0.35371480424963    3.43855387701145   -0.57544660156607
C         1.69514779086220    2.99160918020320   -0.53341138234682
C        -1.59060644320400    2.58174045199148   -1.81603672694264
C        -1.96004603454866    1.42373514555072   -2.57211859508346
C        -2.95958220667634    0.70725828743261   -1.82184555762786
C        -3.19308171719114    1.42455412909441   -0.60111039083910
C        -2.33537472245657    2.58410385876229   -0.59238521794636
C        -2.96672836635140   -0.67304104723442   -1.81926676180972
C        -1.95884330834046   -1.38875225735503   -2.55765941870548
C        -1.63303054610604   -2.53302683631357   -1.79963399484749
C        -2.32754000358502   -2.55397382661276   -0.59991834124280
C        -3.20040162284569   -1.39548289044607   -0.59921074194429
C        -1.00194686145966   -0.71118848185892   -3.30091587803413
C        -1.00462805571360    0.71959140021858   -3.30081126914431
C         0.36012966133169    1.16383202590091   -3.28945012017131
C         1.22617907019013    0.00280998992665   -3.29938443626202
C         0.38657000329263   -1.14198459491449   -3.28839284135686
C        -1.79630501520010   -0.00085040530649    4.88834012887349
F        -0.78379902959975    0.00106422783566    5.75860920207161
F        -2.54228312440284   -1.08244983468257    5.11858853599371
F        -2.54213879184787    1.08216102706657    5.11565266045861
C         2.90335110325600    3.40986034795420   -2.68811435720282
F         2.26936618758764    4.57890056279984   -2.79860624860890
F         3.14414299076599    2.94244835760824   -3.91456383385067
F         4.06988257548480    3.61577407898600   -2.07518075394714
C        -0.34716856752757   -4.46737386236400   -2.68524185320884
F         0.85208114705762   -5.03937774006025   -2.79616404984809
F        -0.81795297168594   -4.22940374220068   -3.91075373787103
F        -1.17003410460055   -5.31858307536473   -2.07130941167862
72
 energy: -177.490594681029 gnorm: 0.051072365950 xtb: 6.4.1 (a3dbbd7)
C        -1.28546272174602   -0.00312349335328    3.46778295532041
C        -0.34352064655551   -1.18982581995648    3.30588911095791
C         0.99564883535313   -0.72169679506557    3.28981720436810
C         0.99184906230292    0.72233991582126    3.28775195105345
C        -0.34907675068685    1.18791508722532    3.30624947774640
C         2.34268328439959   -2.58825244300884    0.60809704320648
C         3.19013902600798   -1.42135580661104    0.59904740243532
C         2.95826326380067   -0.69738980131974    1.82071628893976
C         1.97043713042907   -1.41736215367383    2.57252677063906
C         1.59066049196558   -2.58351544670472    1.82578146767028
C         3.18725783423877    1.41330175330360    0.59397869926888
C         2.31733026576564    2.57793863380022    0.59816933796080
C         1.57182658915850    2.57959166506322    1.82365142292477
C         1.95768382239037    1.42212068365993    2.56706099756130
C         2.95172445251580    0.70067369631665    1.80739170518405
C        -0.37266912802013    3.44932938105867    0.60498307523828
C        -1.74588185436355    3.00545403380420    0.59749732484311
C        -1.98026775823512    2.28615215749173    1.81297651622779
C        -0.73661352388366    2.28234017745503    2.56991756790121
C         0.24390188200959    3.01175322296311    1.81956272352915
C        -3.42935206249261    0.73221000399440    0.56870030298956
C        -3.42590971606905   -0.70710759520111    0.56768923912906
C        -2.78546126388024   -1.14712578742041    1.79471204700632
C        -2.44315563907288   -0.01038222023116    2.51364298409848
C        -2.79046244594358    1.16008948561962    1.78980004837193
C        -1.74274837444202   -3.00177571026955    0.60703077317068
C        -0.35343376957686   -3.44025491062802    0.60591058281820
C         0.26371392030306   -3.01107283355648    1.82778249883907
C        -0.72550004191045   -2.28514987821243    2.56742981770259
C        -1.96552537140878   -2.29734999538930    1.80138587082854
C        -0.25702888687192   -3.20037288276934   -1.90881701740313
C         0.76377678503741   -2.26411484471140   -2.56114335955844
C         1.95764091549324   -2.28595513272616   -1.80308711212572
C         1.72879130550521   -2.99985534769985   -0.57214331534764
C         0.38140652049062   -3.44346481202797   -0.54536931336579
C         2.80166822492252   -1.17863020461585   -1.80917939773974
C         2.40878195257110   -0.01013043352590   -2.55118944289635
C         2.82607022537373    1.12311810328762   -1.82347314656181
C         3.38993389666760    0.70863194277072   -0.59771932803779
C         3.40527334496375   -0.73861254390634   -0.58630452618248
C         2.08452669898348    2.43181981981392   -1.91640979912692
C         0.70532284280737    2.29977297481909   -2.57129057159260
C        -0.25353178970016    3.00319286987132   -1.80814685144653
C         0.35998498626412    3.43831743833390   -0.57688338106405
C         1.71295393946721    3.00747007670781   -0.55280259137123
C        -1.58740203714605    2.58491881544215   -1.81309876635032
C        -1.96189270604170    1.42878322744016   -2.57119445392320
C        -2.96706266145859    0.71260652931984   -1.82598371481745
C        -3.20187452283653    1.43125477468701   -0.60241307458932
C        -2.34010391316132    2.58858594171844   -0.59146816794139
C        -2.96832035678111   -0.67182244325529   -1.82398784014637
C        -1.95707294675450   -1.39439051403940   -2.55898779501451
C        -1.62347343546481   -2.55493918165795   -1.80846254315929
C        -2.32516154658640   -2.55751358515850   -0.60357824207081
C        -3.19835771953913   -1.39430034163554   -0.60192620716881
C        -1.00204713199458   -0.71068126062481   -3.29532270244398
C        -1.00042504337989    0.72328240932259   -3.28979062975107
C         0.36765690153184    1.17207491834940   -3.28534262174499
C         1.22283091370676    0.00349691658507   -3.28967173664046
C         0.38237215379439   -1.14985665487161   -3.28060759423538
C        -1.81208640615287   -0.00105212213044    4.92396336241975
F        -0.80986776714658    0.00157536367657    5.80749623074929
F        -2.56105474493738   -1.07875036392872    5.16888578551270
F        -2.56116898785569    1.07813732954231    5.16450117195332
C         2.92678941156157    3.44231866221597   -2.71120692187879
F         2.30544846883707    4.61902790039558   -2.83141732755321
F         3.17556372001276    2.98941832874041   -3.94290664766063
F         4.10002040264793    3.66220995660055   -2.11291236381330
C        -0.35196700824206   -4.50708746632848   -2.70344023948454
F         0.84078457288987   -5.09481195425124   -2.82546903661529
F        -0.82202524511930   -4.28630052644499   -3.93389176337434
F        -1.17235200092468   -5.37323994887161   -2.10329401623694
72
 energy: -177.496662044626 gnorm: 0.021135015138 xtb: 6.4.1 (a3dbbd7)
C        -1.30111189537925   -0.00375291634676    3.52171170994036
C        -0.35743578341632   -1.18347296309856    3.31616658600029
C         0.98672112798327   -0.72072693254532    3.28917305753727
C         0.98186844544890    0.72126023233857    3.28505948749294
C        -0.36404873232210    1.18051891658163    3.31749625998384
C         2.33979457438239   -2.58731473202326    0.60372599404052
C         3.18742747480616   -1.41913092236685    0.59739300631663
C         2.95638952327755   -0.69597637007084    1.82110586451380
C         1.96553455603037   -1.41368245891675    2.57290397620751
C         1.58855583382737   -2.57997367539004    1.82359588866988
C         3.19178006033341    1.41837407253865    0.59371420093798
C         2.32188975097973    2.58259535216359    0.58845378097819
C         1.56779090692637    2.57365325040677    1.81379912915830
C         1.95024489233032    1.41811142431044    2.56201748078024
C         2.94949696899591    0.70103687999191    1.80567625333407
C        -0.37026438287977    3.44237914417429    0.60151148817234
C        -1.74486635047899    3.00286790103829    0.59722245094551
C        -1.98390088698622    2.28674610379956    1.81661132418720
C        -0.74259833620862    2.27588917043825    2.57611073496844
C         0.24062722836652    2.99897138550677    1.81623243399613
C        -3.42543552923175    0.73399262468756    0.57386441017186
C        -3.41662832571340   -0.70404937164291    0.57128627405180
C        -2.78028146349161   -1.14266396606712    1.80444723228530
C        -2.43428126402590   -0.01010319365917    2.53749445604147
C        -2.78947664766485    1.15927359695173    1.80009533478861
C        -1.74261332261793   -3.00221926762728    0.60763265233140
C        -0.35384858466045   -3.44173116103569    0.59695094619200
C         0.26130377109216   -2.99812660501494    1.81864911781098
C        -0.72936558617229   -2.27835251608285    2.56962947752546
C        -1.96655335423502   -2.29684700746093    1.80262500017728
C        -0.25820495350820   -3.23261038573850   -1.93046075780259
C         0.75548523055890   -2.28734223510871   -2.57102532345381
C         1.94875489232660   -2.28341065597896   -1.80288946194670
C         1.72285345168526   -3.00266766854582   -0.57558702690760
C         0.37536951005333   -3.46283187889988   -0.56439932836310
C         2.78942302080690   -1.17093508131336   -1.80547199827852
C         2.40644063422705    0.00293735647940   -2.54741199432766
C         2.82427027555397    1.14832817103536   -1.82401738609506
C         3.38978798187094    0.71981495565567   -0.60075761254515
C         3.39897579381707   -0.73046732404658   -0.58653566103077
C         2.10654127314777    2.46679754885097   -1.93933418752887
C         0.72591744029699    2.31011191193514   -2.57971381120036
C        -0.24484494211532    3.00080571985162   -1.80925747920789
C         0.36810636452121    3.43460227874414   -0.57895377290928
C         1.73180279804162    3.02402509854314   -0.57188813271028
C        -1.58071209633220    2.58559830171903   -1.81140807571136
C        -1.96108457504896    1.43103607930066   -2.56990860620932
C        -2.96949869104425    0.71459541857949   -1.82694875560480
C        -3.20397485227207    1.43410869357975   -0.60185696844096
C        -2.33968592117045    2.59028886023651   -0.59185812053835
C        -2.96302407489119   -0.67266606818559   -1.82331366193903
C        -1.95283273645136   -1.40127338457468   -2.55823827039594
C        -1.61033895884580   -2.56991384422054   -1.80859412091166
C        -2.31832959384038   -2.56052368719163   -0.60579067278333
C        -3.18882243523726   -1.39201169654660   -0.60000474440707
C        -1.00082861785694   -0.71090937661192   -3.28978921668799
C        -0.99574287023395    0.72490204068725   -3.27961290953002
C         0.37417848808209    1.17479441344217   -3.27808600596368
C         1.22069312535222    0.00182088151595   -3.28148717691548
C         0.38033212785510   -1.15720868264008   -3.27329532664726
C        -1.83276526547185   -0.00215249928533    4.96854578340744
F        -0.83803031959849    0.00119190448890    5.86218140182662
F        -2.58449292650756   -1.07724045799922    5.22365131272838
F        -2.58497124429019    1.07451999326221    5.21790066989568
C         2.95300124362448    3.47546615103068   -2.73653019126040
F         2.34084471375292    4.65817150680562   -2.86420048377241
F         3.20818133505743    3.03351951974222   -3.97251785324943
F         4.13154930205213    3.70687882560922   -2.14929734141362
C        -0.35964864366675   -4.54581115171222   -2.72360595781191
F         0.82818106710509   -5.14624150235541   -2.85376807925545
F        -0.83057971176480   -4.34057531587091   -3.95811956044973
F        -1.17759119114936   -5.42246778841387   -2.13125294505753
72
 energy: -177.497682082823 gnorm: 0.008017204202 xtb: 6.4.1 (a3dbbd7)
C        -1.30970488377414   -0.00432383464778    3.55224514597440
C        -0.36517427767806   -1.18139583887065    3.31727048017081
C         0.98050314789729   -0.72003649077397    3.28758426454304
C         0.97553257346149    0.72160184058027    3.28279471252469
C        -0.37210846710089    1.17767499034721    3.31901065980788
C         2.33595392321443   -2.58471070380141    0.59880764397206
C         3.18251714040709   -1.41639235995579    0.59477656475600
C         2.95137969905852   -0.69411525237972    1.82001616670778
C         1.96006400301816   -1.41121955698410    2.57126606343457
C         1.58526023382281   -2.57756311224880    1.82006790551059
C         3.19346664835417    1.42276949188918    0.59492052110602
C         2.32286743164446    2.58603511758433    0.58430527209625
C         1.56532007413754    2.57309578305479    1.80859262245495
C         1.94451503753487    1.41719128971210    2.55868119497626
C         2.94627629074787    0.70232211865225    1.80517842252383
C        -0.36840579501284    3.44036259888083    0.59851265671532
C        -1.74294993357941    3.00225193478073    0.59643609226563
C        -1.98571367048709    2.28933999789845    1.81878868562695
C        -0.74498800501546    2.27472933818670    2.57782596636517
C         0.23915802993649    2.99463778709304    1.81404087299207
C        -3.41771175120459    0.73241793389858    0.57853609836786
C        -3.40723451461287   -0.70379708158859    0.57604485250785
C        -2.77631962687437   -1.14115977084374    1.81317547928652
C        -2.43049486527126   -0.01050012208597    2.55098355212224
C        -2.78764013826583    1.15871254454481    1.80786460298738
C        -1.74331441704479   -3.00556191619891    0.60978664861668
C        -0.35360361308181   -3.44203083855282    0.59178337915564
C         0.25957416748473   -2.99319909509491    1.81277962711489
C        -0.73126473181147   -2.27701210896093    2.56908433196655
C        -1.96862528140412   -2.30048467148343    1.80518022419981
C        -0.25781814607081   -3.24538555266760   -1.94279121396455
C         0.75402362840676   -2.29671803388384   -2.57922447485795
C         1.94619516787328   -2.28113343498857   -1.80556528936053
C         1.71998070151427   -3.00300304840010   -0.57984863762156
C         0.37280866482594   -3.47078508574205   -0.57345630844181
C         2.78290832565405   -1.16526196018836   -1.80465646452311
C         2.40600670100905    0.01062524147300   -2.54677306956906
C         2.82050062524337    1.15884170019893   -1.82145079168778
C         3.38844213162322    0.72642342609083   -0.60152383838388
C         3.39368334137642   -0.72481044154875   -0.58745351860944
C         2.11641697481025    2.48360202609700   -1.95117884297393
C         0.73501648469787    2.31059097206131   -2.58447598968759
C        -0.23928770179137    2.99839899761227   -1.81155358361109
C         0.37258428712456    3.43382136048147   -0.58113360709081
C         1.74064499050969    3.03289453310961   -0.58011337787201
C        -1.57491714067693    2.58427546014807   -1.81188626108733
C        -1.95748119071218    1.42920242250536   -2.56948301057660
C        -2.96505186423503    0.71234632858804   -1.82463232589317
C        -3.19870698698104    1.43173293560860   -0.59962653835799
C        -2.33561918689337    2.58908621940602   -0.59263629361311
C        -2.95525614698720   -0.67528293285351   -1.81952007419770
C        -1.94820456854960   -1.40558753828839   -2.55753614774053
C        -1.60204433825601   -2.57423814058468   -1.80531413079344
C        -2.31323136952574   -2.56331255734579   -0.60541091245974
C        -3.17997671871689   -1.39193705760929   -0.59609954536561
C        -0.99778764455577   -0.71254493130010   -3.28960099555540
C        -0.99216983609035    0.72392374631554   -3.27834741110865
C         0.37754571348766    1.17348540496886   -3.27696654632872
C         1.22217918136086   -0.00002151324456   -3.28262596918382
C         0.38255332281696   -1.16076421355397   -3.27441111146147
C        -1.84423861462954   -0.00365546857733    4.99300582013949
F        -0.85392982048280   -0.00018044725701    5.89256068237106
F        -2.59760173488726   -1.07816004959656    5.24911081043650
F        -2.59913494060042    1.07161787548932    5.24386651927333
C         2.96500261085728    3.48946758943880   -2.74855247358275
F         2.35531356115666    4.67401024897763   -2.87802521746015
F         3.22322943138714    3.05102233128769   -3.98568151497547
F         4.14461247592583    3.72395377563528   -2.16344640170154
C        -0.36668986003466   -4.56005885289841   -2.73314956646431
F         0.81860718516351   -5.16629878943651   -2.86588271310870
F        -0.84020587239900   -4.36088563536195   -3.96825077940380
F        -1.18463613446190   -5.43633598136399   -2.13915339626360
72
 energy: -177.497791274037 gnorm: 0.004131375704 xtb: 6.4.1 (a3dbbd7)
C        -1.31056715326302   -0.00447656405528    3.55833659230600
C        -0.36676822094143   -1.18104232405054    3.31541875688264
C         0.97916037406283   -0.71953447519995    3.28649692334190
C         0.97413107184777    0.72236460105806    3.28184080687329
C        -0.37399860587853    1.17745251835261    3.31717607168204
C         2.33506496211947   -2.58328616810643    0.59709319289496
C         3.18110096129736   -1.41522451316389    0.59378732932816
C         2.94966596523627   -0.69296534658787    1.81942761130662