72
 energy: -177.497831785750 gnorm: 0.000078333008 xtb: 6.4.1 (a3dbbd7)
C        -1.30830474290266   -0.00417931960902    3.55816691487366
C        -0.36557925434128   -1.17962420399246    3.31241139720009
C         0.98026097475660   -0.71799443067292    3.28524475742920
C         0.97449722815222    0.72406970891448    3.28067858296782
C        -0.37419416798524    1.17784651426946    3.31428995771441
C         2.33694709542173   -2.58213686831445    0.59739080551154
C         3.18246329566084   -1.41380977136884    0.59394404547247
C         2.95077017444709   -0.69100365994891    1.81938912676387
C         1.95982494363416   -1.40844970608852    2.56957589108640
C         1.58624192458316   -2.57588379893643    1.81880843874886
C         3.19384268292159    1.42686309740115    0.59597114179726
C         2.32253368022211    2.58918313511457    0.58376724030012
C         1.56482050635541    2.57716729851242    1.80729869618085
C         1.94318281820397    1.41992709663653    2.55747280509214
C         2.94597421729341    0.70559414097691    1.80563071293812
C        -0.36917360262446    3.44218286120468    0.59665159139382
C        -1.74346999611462    3.00280555226523    0.59504755828080
C        -1.98685544483077    2.29109126734981    1.81825073958555
C        -0.74587088836318    2.27725348503724    2.57678096651416
C         0.23836772682233    2.99672841709411    1.81290773086711
C        -3.41297344498316    0.72970738195262    0.57999517922065
C        -3.40211650376599   -0.70584516464646    0.57881733875027
C        -2.77346228202512   -1.14209719978781    1.81735037490159
C        -2.42928888599171   -0.01116273992639    2.55523562138485
C        -2.78577269371299    1.15746165854794    1.81012277859106
C        -1.74197344006793   -3.00907731136420    0.61261564176894
C        -0.35097095594644   -3.44271456255845    0.59148243291418
C         0.26167667709185   -2.99299120511592    1.81178963520155
C        -0.72976810684128   -2.27839163353455    2.56925100435626
C        -1.96861950125989   -2.30440219208000    1.80811956658427
C        -0.25605423492530   -3.24149320234775   -1.94476023653330
C         0.75883755217585   -2.29746803846432   -2.58240536866009
C         1.95005078344824   -2.28114732807365   -1.80721433233002
C         1.72249487198665   -3.00289308737568   -0.58098727961010
C         0.37568404499447   -3.47234597415023   -0.57375838311065
C         2.78387882545620   -1.16311282245440   -1.80494156963371
C         2.40679742140826    0.01260190746227   -2.54690708874045
C         2.81554126026083    1.16011944308530   -1.81716366031734
C         3.38720374774667    0.72898566278342   -0.60054690486855
C         3.39433259808588   -0.72213791749543   -0.58777162764176
C         2.11517195721338    2.48335084337797   -1.95339961683479
C         0.73568198621658    2.30513297597685   -2.58433208799118
C        -0.23841006036650    2.99575492585177   -1.81303477251419
C         0.37250533223020    3.43505327293793   -0.58265053635806
C         1.74120778732852    3.03681840810330   -0.58102696584056
C        -1.57324028140248    2.58162573119346   -1.81355632601027
C        -1.95499517933213    1.42545004201267   -2.57023212214071
C        -2.96122817492318    0.70895759792108   -1.82315368797015
C        -3.19502547601742    1.42829242597431   -0.59884392724578
C        -2.33403808348437    2.58711689698038   -0.59400316722912
C        -2.95024304353337   -0.67807709637860   -1.81667389177779
C        -1.94280440404529   -1.40699020611533   -2.55467889875306
C        -1.59413773401504   -2.57122297358245   -1.79856712361060
C        -2.30962103664816   -2.56487138830104   -0.60231575144204
C        -3.17572946172819   -1.39420416991634   -0.59354592955733
C        -0.99402062205441   -0.71543525236867   -3.29144326285324
C        -0.99046525608363    0.72139084781905   -3.28179863475497
C         0.37846823891509    1.17120690123565   -3.28031126765795
C         1.22555034647141   -0.00149885749301   -3.28792568947015
C         0.38706246742023   -1.16214754914988   -3.27865396560278
C        -1.84785879757583   -0.00786458121893    4.99541954271056
F        -0.86363972803450   -0.00484590815031    5.90110840884020
F        -2.60055297988716   -1.08527331865748    5.24151674393418
F        -2.60765651603456    1.06464945935114    5.24303294545310
C         2.96587117027925    3.48683547671119   -2.74862556507211
F         2.35630811614190    4.67119011509079   -2.87690811203377
F         3.22642794725051    3.04800812896776   -3.98448238374376
F         4.14332014440240    3.71758113024490   -2.15850677282424
C        -0.37809697634246   -4.55399915475215   -2.73370490232523
F         0.80170853908325   -5.16841758834911   -2.87092169431851
F        -0.85695826780463   -4.35001738949508   -3.96546549584853
F        -1.20093874029922   -5.42017529468917   -2.13287111397164
