62
 energy: -137.506910589214 gnorm: 0.135998587862 xtb: 6.4.1 (a3dbbd7)
C        -1.29770965891222    0.00000000000000    3.53163224767276
C        -0.37107604425475   -1.17478800586359    3.31058196643012
C         0.97979757550459   -0.72157705231961    3.28110534952822
C         0.97979757550459    0.72157705231961    3.28110534952822
C        -0.37107604425475    1.17478800586360    3.31058196643013
C         2.33544184946295   -2.58264348698296    0.58346340581249
C         3.18207169571150   -1.41543014636129    0.58234433372313
C         2.94373959867916   -0.69404060100004    1.80708186552027
C         1.95046398470883   -1.41556779135961    2.56176558167067
C         1.57767488865866   -2.57871801508103    1.80912454278211
C         3.18207169571150    1.41543014636129    0.58234433372313
C         2.33544184946295    2.58264348698296    0.58346340581249
C         1.57767488865866    2.57871801508103    1.80912454278211
C         1.95046398470883    1.41556779135961    2.56176558167066
C         2.94373959867916    0.69404060100004    1.80708186552027
C        -0.36119281684147    3.44519252612879    0.58582996047390
C        -1.73469290191499    3.00153459982720    0.58916793337350
C        -1.97220713510261    2.29308475607878    1.81059639720294
C        -0.73400332666893    2.27691900303500    2.56853480078419
C         0.25309257506893    2.99789064535074    1.80898867763471
C        -3.39649784746455    0.71758744312072    0.57410478167568
C        -3.39649784746455   -0.71758744312072    0.57410478167568
C        -2.77168037603652   -1.14964415915414    1.80664876434809
C        -2.42168465399864    0.00000000000000    2.56054627302143
C        -2.77168037603652    1.14964415915414    1.80664876434809
C        -1.73469290191499   -3.00153459982719    0.58916793337351
C        -0.36119281684148   -3.44519252612879    0.58582996047390
C         0.25309257506893   -2.99789064535073    1.80898867763471
C        -0.73400332666892   -2.27691900303499    2.56853480078419
C        -1.97220713510261   -2.29308475607878    1.81059639720295
C        -0.24585893810850   -3.00970705822685   -1.82232538763502
C         0.74439012833927   -2.28841876480361   -2.57822875384061
C         1.97268106729833   -2.28861170675520   -1.82114897801170
C         1.74031203428013   -3.00832022201671   -0.59623578829480
C         0.36724813466371   -3.45114129717027   -0.59443426078026
C         2.79027372790168   -1.16551010025889   -1.82330670861298
C         2.41077011246349    0.00000000000000   -2.58030971859023
C         2.79027372790168    1.16551010025889   -1.82330670861298
C         3.40598095600767    0.72109250237888   -0.59875668403540
C         3.40598095600767   -0.72109250237888   -0.59875668403540
C         1.97268106729833    2.28861170675520   -1.82114897801170
C         0.74439012833927    2.28841876480360   -2.57822875384062
C        -0.24585893810850    3.00970705822685   -1.82232538763502
C         0.36724813466371    3.45114129717027   -0.59443426078026
C         1.74031203428013    3.00832022201671   -0.59623578829480
C        -1.56847069976934    2.58049680433801   -1.82122736601016
C        -1.94730857051169    1.41533687195356   -2.58360676406823
C        -2.94243160962768    0.69434475341889   -1.82977489504240
C        -3.17479380115303    1.41444285760430   -0.60326970185865
C        -2.32688654321742    2.58113588269429   -0.60086409487791
C        -2.94243160962768   -0.69434475341889   -1.82977489504240
C        -1.94730857051169   -1.41533687195356   -2.58360676406823
C        -1.56847069976934   -2.58049680433801   -1.82122736601016
C        -2.32688654321742   -2.58113588269429   -0.60086409487790
C        -3.17479380115303   -1.41444285760429   -0.60326970185865
C        -0.99138524268633   -0.72097607833148   -3.31029871234527
C        -0.99138524268633    0.72097607833148   -3.31029871234528
C         0.38054100031802    1.16548515734434   -3.30884687187952
C         1.22668597234242    0.00000000000000   -3.30783368151334
C         0.38054100031802   -1.16548515734434   -3.30884687187952
Cl       -1.93737486741132   -0.00000000000005    5.25509316806359
Cl        1.13103141811894   -3.47583152455156   -3.88844226736628
62
 energy: -137.530504705840 gnorm: 0.059237599634 xtb: 6.4.1 (a3dbbd7)
C        -1.29897804242769    0.00097123226668    3.53390593008642
C        -0.37239555690472   -1.17344934895819    3.31279424921085
C         0.97897319180607   -0.72040097253234    3.28325399463384
C         0.97846168121227    0.72208742543770    3.28160357509669
C        -0.37186714856490    1.17499086939717    3.31127124533023
C         2.33863130132283   -2.58010289647795    0.59143164665185
C         3.18538285233083   -1.41560530855088    0.58912538897833
C         2.94448209995947   -0.69330870632845    1.81131803495640
C         1.95072562635313   -1.41489720729126    2.56632500128227
C         1.57788071356582   -2.57773794337386    1.81448274140861
C         3.18178843151896    1.41607518528316    0.58381420095083
C         2.33550540687387    2.58382128361569    0.58423562713459
C         1.57751942710537    2.57932058597495    1.80887375452885
C         1.95033861549373    1.41613314123118    2.56212557491861
C         2.94390878308583    0.69473469536107    1.80928015973143
C        -0.36142431108318    3.44655591986318    0.58644615468521
C        -1.73521240003529    3.00276804864251    0.59024699384212
C        -1.97273958958143    2.29439518990364    1.81168444925918
C        -0.73467715517626    2.27748877394999    2.56787782972708
C         0.25269228284206    2.99849935213083    1.80899575857763
C        -3.39580554096086    0.71785617360119    0.57540538135637
C        -3.39555750398156   -0.71743309988889    0.57541438023347
C        -2.77178201784281   -1.14926307929993    1.80909842191704
C        -2.42225060777164    0.00038126669058    2.56234409637202
C        -2.77094759573156    1.14943838707811    1.80708202655456
C        -1.73796091540385   -3.00388087876181    0.59658163460287
C        -0.36555037074012   -3.44525926333005    0.59438429302931
C         0.25187268101153   -2.99743795661934    1.81405309049075
C        -0.73579602191777   -2.27632499353362    2.57261454338409
C        -1.97484489533428   -2.29406618502587    1.81608730230338
C        -0.25296493388769   -3.00951787528488   -1.80680657157165
C         0.76770223740904   -2.36041725490341   -2.65457394760654
C         1.97698470811542   -2.28288053452795   -1.80610233220920
C         1.73787060269397   -2.99850562730333   -0.58983265550469
C         0.36325480708066   -3.44222681417961   -0.58805503221014
C         2.78540106485684   -1.16088271643034   -1.81100106736104
C         2.40788638496118    0.00535580603462   -2.57646300959577
C         2.78846210491966    1.16655525066077   -1.82169870652588
C         3.40634250340905    0.72180211353227   -0.59634847069564
C         3.40861630766797   -0.71981787607560   -0.59312186080930
C         1.97204758108561    2.29361689586793   -1.82054643817716
C         0.74332134011991    2.29732339246456   -2.57815995926828
C        -0.24712463672014    3.01625955801754   -1.82127064876683
C         0.36691751053786    3.45436929078140   -0.59349201760305
C         1.74011173656166    3.01061531921549   -0.59620438345952
C        -1.56986426295406    2.58654965013560   -1.81923509835454
C        -1.94924700296573    1.42259376533323   -2.58125571035844
C        -2.94286471163191    0.69781487067504   -1.82779084979303
C        -3.17491979030276    1.41586800727870   -0.60261511844026
C        -2.32810713667723    2.58407923788572   -0.59939808392425
C        -2.94109487985059   -0.69390665274359   -1.82914633241691
C        -1.94801686147215   -1.41104691940099   -2.58103868415770
C        -1.56733385857749   -2.57473900345014   -1.80860096544683
C        -2.33070295291621   -2.58291136268489   -0.59459129845093
C        -3.17433839506794   -1.41459914854593   -0.60125011735628
C        -0.98968349696987   -0.70980157238482   -3.30856958593912
C        -0.99264108325033    0.73329886203702   -3.30704979969004
C         0.37685162354222    1.17834886453793   -3.31013709728095
C         1.21750123135583    0.00805307376985   -3.30152363749136
C         0.37413208700011   -1.14873119029440   -3.32767282308255
Cl       -1.93624462289098    0.00075849363260    5.25869765337703
Cl        1.16353642288812   -3.57545911865713   -3.99259002244188
62
 energy: -137.536647805360 gnorm: 0.013203186774 xtb: 6.4.1 (a3dbbd7)
C        -1.29930766274354    0.00304286658922    3.53690814462606
C        -0.37314710582057   -1.17201107420754    3.31794922690014
C         0.97801865624719   -0.71878518427781    3.28775578977781
C         0.97690125684445    0.72346440249792    3.28485654102775
C        -0.37234047903722    1.17701627294735    3.31507477375310
C         2.33683550218807   -2.57568833415976    0.59343125662867
C         3.18295767950394   -1.41495661905814    0.59357314858541
C         2.94451893332037   -0.69281354965068    1.81599193545124
C         1.94982549832775   -1.41407485942776    2.57114667064979
C         1.57676519447754   -2.57543159124631    1.81760194160874
C         3.17833811514736    1.41649833248676    0.58518219201954
C         2.33413763963223    2.58561957795304    0.58632423130306
C         1.57628161135975    2.58033720454017    1.81038699068390
C         1.94921324202969    1.41712091708200    2.56429181148130
C         2.94177385385333    0.69565552080215    1.81193572087144
C        -0.36200186657473    3.44980974672424    0.58874243488026
C        -1.73558062907732    3.00578992028477    0.59235338185942
C        -1.97240765373178    2.29695786972526    1.81432738305893
C        -0.73518399893090    2.27953843668999    2.57010794221911
C         0.25185407153694    3.00010051899210    1.81122993038768
C        -3.39567749567570    0.72025478034805    0.57812794454289
C        -3.39443632086997   -0.71544780160770    0.57813797432710
C        -2.77221249662273   -1.14792383723148    1.81254478368081
C        -2.42193316681955    0.00245214301909    2.56446305776565
C        -2.77082740623273    1.15145890082627    1.80878012566358
C        -1.73633402276980   -3.00186760467239    0.60072351117430
C        -0.36694593667678   -3.44117698055160    0.59657489971168
C         0.25075878441322   -2.99485742558695    1.81665721492844
C        -0.73642958179408   -2.27510332137510    2.57774553137132
C        -1.97571639814155   -2.29303227066287    1.82116711221706
C        -0.25315930002240   -3.01343350815127   -1.80689499930715
C         0.79068162682193   -2.42731487646892   -2.72273184763411
C         1.98040639310527   -2.28585091716337   -1.80665125126789
C         1.73429525650329   -2.98752029136879   -0.59259202902061
C         0.35974385821158   -3.43073672016972   -0.59104540209584
C         2.77927945186417   -1.16384228836604   -1.80799810919437
C         2.40728029276527    0.00680798008238   -2.57713251413194
C         2.78301950401387    1.16508934111660   -1.82161360057012
C         3.40001326478358    0.72133156429727   -0.59474215279517
C         3.40189876400146   -0.71967591549053   -0.59090131134717
C         1.96961597559740    2.29743592063622   -1.81890673795719
C         0.74073555519402    2.30185625107898   -2.57584496811787
C        -0.24895392713015    3.02260442679728   -1.81981851964383
C         0.36574869379911    3.45886250084803   -0.59121726375863
C         1.73876604891488    3.01293299212678   -0.59494788462504
C        -1.57179046396468    2.59220664791348   -1.81811848522427
C        -1.95118141275601    1.42773053128865   -2.58121520134762
C        -2.94365056010974    0.70212483314157   -1.82601670733757
C        -3.17442352515121    1.41801474778594   -0.60125164691412
C        -2.32864652110002    2.58811144822442   -0.59715615700559
C        -2.93564125947316   -0.69219532996507   -1.82671460822442
C        -1.94749460002726   -1.40908595398947   -2.57763860716880
C        -1.55987737313432   -2.57335260401084   -1.80515291915296
C        -2.32448257034913   -2.57791301683057   -0.59145670200103
C        -3.17080648840016   -1.41180842947655   -0.59789722102965
C        -0.97953532284793   -0.70738875644068   -3.29462241034870
C        -0.99437231181862    0.73852055197661   -3.30747072945043
C         0.37330184207866    1.18185195405266   -3.30583234451764
C         1.21059837758643    0.00566765604812   -3.29402704048757
C         0.37319470932487   -1.14275696374508   -3.32585596191172
Cl       -1.93951555902746    0.00267916269217    5.26031893252250
Cl        1.18941881247746   -3.64873142081414   -4.07623439346748
62
 energy: -137.536955197803 gnorm: 0.008017668526 xtb: 6.4.1 (a3dbbd7)
C        -1.29971696809411    0.00457965497612    3.53920545124608
C        -0.37341606801274   -1.17072425523285    3.32041695578186
C         0.97773680612000   -0.71750506909053    3.29014560069112
C         0.97648454368156    0.72486255862951    3.28702560423004
C        -0.37256993989947    1.17855241719235    3.31747985401438
C         2.33390701850887   -2.57340739981106    0.59177131202183
C         3.17947726124049   -1.41368888066802    0.59344902943992
C         2.94369652853223   -0.69189391563088    1.81700114515622
C         1.94905667074904   -1.41291531094152    2.57246953741757
C         1.57557564821112   -2.57320588352404    1.81741865188208
C         3.17691427918573    1.41693598993039    0.58586778097070
C         2.33365157412744    2.58659918965824    0.58766397835209
C         1.57583793247792    2.58154981922675    1.81184357017432
C         1.94880220417064    1.41832708219928    2.56592876016501
C         2.94047305470583    0.69659793743638    1.81301278887813
C        -0.36222204368112    3.45158520313504    0.59013971537634
C        -1.73584296645995    3.00747959341104    0.59390138516135
C        -1.97237352561833    2.29842132600504    1.81614797916197
C        -0.73538721433382    2.28097789292869    2.57183580325976
C         0.25156736115921    3.00159407608441    1.81298808368718
C        -3.39576021638958    0.72133223172713    0.57997322521773
C        -3.39341938760673   -0.71453951490096    0.57904711278226
C        -2.77214872853445   -1.14693024369329    1.81393307899278
C        -2.42166585229743    0.00375263192104    2.56573080125106
C        -2.77103352325011    1.15285460810202    1.81023020691603
C        -1.73429293086111   -2.99954898681772    0.60057746985718
C        -0.36599289903213   -3.43823211224113    0.59508342924826
C         0.25034683498657   -2.99235142169769    1.81632066591647
C        -0.73645759252339   -2.27371618848033    2.57927956590838
C        -1.97537399909331   -2.29163734496550    1.82244375803463
C        -0.25166901033984   -3.02007243713205   -1.81470920135398
C         0.79591541943594   -2.44360978868079   -2.73761363235663
C         1.98284360233826   -2.29197725722916   -1.81437457437673
C         1.73350431962395   -2.98555493355822   -0.59621937611889
C         0.35903630753010   -3.42855902180541   -0.59476038945456
C         2.77872941534937   -1.16698378378595   -1.81151338219259
C         2.40884674567752    0.00691056352734   -2.57904525226253
C         2.78120231071272    1.16451784224790   -1.82155088134873
C         3.39679268144063    0.72109636169644   -0.59418881354166
C         3.39598868841780   -0.71959411124519   -0.59184702682078
C         1.96902112705305    2.29811708941290   -1.81752546796718
C         0.74028556499214    2.30153502442422   -2.57416055535373
C        -0.24919356953138    3.02376888125650   -1.81868400636195
C         0.36550055397055    3.46052951058840   -0.58986282038439
C         1.73841538485673    3.01367069730179   -0.59383436747794
C        -1.57210442497408    2.59340037134457   -1.81665778781257
C        -1.94979166354601    1.42700277424310   -2.57771371632459
C        -2.94372284507297    0.70281137099681   -1.82424216170001
C        -3.17402463130900    1.41840928880695   -0.59961396787087
C        -2.32878659618729    2.58940900626035   -0.59538678478576
C        -2.93390567009829   -0.69187608376714   -1.82652555971038
C        -1.94977937688665   -1.41081684138792   -2.58027772131058
C        -1.55766147017067   -2.57573190531271   -1.80889823020388
C        -2.31942595740502   -2.57481561540924   -0.59206042068133
C        -3.16796971836557   -1.41017488079228   -0.59715765720732
C        -0.97708914045629   -0.71157171877624   -3.29402092302449
C        -0.99270063903847    0.73595665676813   -3.30244280633212
C         0.37362185541966    1.17971049287988   -3.30230422199838
C         1.21032859618704    0.00134781758808   -3.29326072787526
C         0.37386137353878   -1.14629893859047   -3.32274540069132
Cl       -1.94356417548186    0.00540331184745    5.26124426360792
Cl        1.19380612924417   -3.65749695313754   -4.09166592127735
62
 energy: -137.537053347051 gnorm: 0.004435252086 xtb: 6.4.1 (a3dbbd7)
C        -1.29987136008581    0.00507290927109    3.54023384272364
C        -0.37338671377610   -1.17040461976014    3.32189564226308
C         0.97784788045353   -0.71715746429490    3.29140300611623
C         0.97654268381446    0.72532654174239    3.28799490608622
C        -0.37248296368448    1.17894319277613    3.31847043302881
C         2.33202902030477   -2.57188069284893    0.59074487559251
C         3.17798096150527   -1.41302076286955    0.59328316872757
C         2.94360845348445   -0.69146164530821    1.81749175229135
C         1.94903885160959   -1.41244497680743    2.57311060092414
C         1.57496542359441   -2.57191847421068    1.81723910642383
C         3.17649485635989    1.41702223068275    0.58606353367380
C         2.33375155765397    2.58692940521043    0.58812813881605
C         1.57583021636724    2.58190934124913    1.81239663462284
C         1.94888045696456    1.41880268831583    2.56671923165273
C         2.93995240110681    0.69696286175583    1.81338886897554
C        -0.36218864146803    3.45213136241452    0.59040119525869
C        -1.73591049700306    3.00800003344919    0.59428224949713
C        -1.97223416132652    2.29885563868946    1.81678497631014
C        -0.73531601253516    2.28118692821072    2.57224811968282
C         0.25160869537044    3.00191446404466    1.81351504154428
C        -3.39617771120009    0.72179010264560    0.58075874517754
C        -3.39332613255025   -0.71426066826292    0.57945224268337
C        -2.77221130065236   -1.14651085268416    1.81445017370938
C        -2.42142226606827    0.00434109477893    2.56603404665295
C        -2.77131908482742    1.15347074719684    1.81075082160085
C        -1.73323571602201   -2.99829322308148    0.60036998376196
C        -0.36526576005539   -3.43621707258286    0.59417074907209
C         0.25021678113217   -2.99078812033517    1.81598942543691
C        -0.73655092519949   -2.27318719997014    2.58008465775125
C        -1.97518527925781   -2.29077916647541    1.82319544150209
C        -0.25078072777339   -3.02342513280770   -1.81958000989674
C         0.79829505827037   -2.45088900713775   -2.74392694728949
C         1.98399191379277   -2.29514950744589   -1.81910675009220
C         1.73293832730489   -2.98392423326662   -0.59796750863746
C         0.35846064949882   -3.42671020386141   -0.59657716690931
C         2.77857283048551   -1.16839977368059   -1.81336518092009
C         2.41050260931700    0.00749257065627   -2.58020245291942
C         2.78099021565448    1.16452209824055   -1.82180497690053
C         3.39508478882452    0.72074449280562   -0.59403029504976
C         3.39291346833930   -0.71971696110589   -0.59242203378534
C         1.96914804424556    2.29844077484993   -1.81695924853554
C         0.74023215466567    2.30102648406243   -2.57338749269697
C        -0.24914162016885    3.02371154359308   -1.81831377157050
C         0.36562993303361    3.46109621972570   -0.58949136544743
C         1.73861097761040    3.01391755193728   -0.59347343642804
C        -1.57214748090008    2.59333634117567   -1.81613238825023
C        -1.94934747785322    1.42631614650226   -2.57623519755632
C        -2.94426302479124    0.70295091010054   -1.82355268844181
C        -3.17409381623786    1.41830368168688   -0.59898756421657
C        -2.32891695824796    2.58968043413942   -0.59478178657647
C        -2.93399551965625   -0.69183537635782   -1.82665082564736
C        -1.95231697016775   -1.41183249083385   -2.58178896000389
C        -1.55675855336008   -2.57674390677234   -1.81088008746573
C        -2.31638452295141   -2.57296809839426   -0.59223274350679
C        -3.16648871285318   -1.40918377909487   -0.59678975098595
C        -0.97592296511061   -0.71442244181384   -3.29323351393419
C        -0.99176744643334    0.73421200198342   -3.29918757971483
C         0.37372330607187    1.17793240407706   -3.29966575565038
C         1.21052399171740   -0.00155309964798   -3.29248705264371
C         0.37422834234812   -1.14869407048003   -3.31868676233730
Cl       -1.94663606877984    0.00680024909600    5.26107691622724
Cl        1.19461658918937   -3.65520194942440   -4.09551442515450
62
 energy: -137.537086958652 gnorm: 0.002483246343 xtb: 6.4.1 (a3dbbd7)
C        -1.29980288510202    0.00501314103969    3.54022650869919
C        -0.37326649406502   -1.17053807480587    3.32219020417698
C         0.97799995057833   -0.71728718506625    3.29156617623911
C         0.97669548952936    0.72523915611008    3.28794111939978
C        -0.37231443501751    1.17881388449627    3.31845268029683
C         2.33159551392540   -2.57152506166394    0.59059573303059
C         3.17805266553855   -1.41300287781874    0.59333447208710
C         2.94389066550646   -0.69149303575578    1.81764259972243
C         1.94928326778004   -1.41249462124233    2.57323153549208
C         1.57489202918910   -2.57171684625130    1.81724791568287
C         3.17672013012927    1.41692424549889    0.58594544274371
C         2.33399905751003    2.58681606699249    0.58796477194560
C         1.57596798469227    2.58176900746251    1.81225693641026
C         1.94907531157580    1.41875498719520    2.56670172380392
C         2.93997519358514    0.69688178024058    1.81328921325258
C        -0.36209012409982    3.45193509918325    0.59007592048666
C        -1.73583668034809    3.00781204723040    0.59401945624049
C        -1.97206479522470    2.29867518856872    1.81663605584741
C        -0.73518027127419    2.28090664846127    2.57194228370673
C         0.25174797666190    3.00164061908652    1.81327121303425
C        -3.39650691540078    0.72175322679383    0.58075521331528
C        -3.39367929992553   -0.71443975042304    0.57944666376069
C        -2.77226307598246   -1.14658664998174    1.81437003933020
C        -2.42122216992742    0.00433639683473    2.56573996882743
C        -2.77141802166160    1.15344552272157    1.81060848984936
C        -1.73317159194456   -2.99823066572664    0.60035910201206
C        -0.36506614114578   -3.43573692795221    0.59405475903058
C         0.25023002533671   -2.99048520831807    1.81590724545942
C        -0.73664044223228   -2.27324885882998    2.58021657447766
C        -1.97518483001341   -2.29065637426522    1.82348780455599
C        -0.25060313312605   -3.02362482652467   -1.82053621373021
C         0.79889993611900   -2.45256852183495   -2.74550187149780
C         1.98394307828061   -2.29538558108102   -1.81995293334875
C         1.73266443700151   -2.98306690244110   -0.59805004384621
C         0.35812361541853   -3.42572437954240   -0.59670870597298
C         2.77846947465651   -1.16850043530696   -1.81337847890594
C         2.41131489327572    0.00794574855413   -2.58042252760319
C         2.78153290433857    1.16465841984902   -1.82209271647267
C         3.39493687018107    0.72049600407273   -0.59411262463280
C         3.39248606898595   -0.71991402007161   -0.59248447428725
C         1.96949174058783    2.29849487796549   -1.81702653645419
C         0.74035336647698    2.30083825881838   -2.57345141029372
C        -0.24904039498141    3.02331613126550   -1.81847127520816
C         0.36578755896051    3.46095954513131   -0.58969475592315
C         1.73887870328556    3.01383594930601   -0.59365824211961
C        -1.57209544522485    2.59292282589809   -1.81625950812665
C        -1.94955126284742    1.42608190362820   -2.57634426235453
C        -2.94478202360791    0.70283693324042   -1.82365177495357
C        -3.17428257163817    1.41803333931555   -0.59909669163526
C        -2.32892394472423    2.58942436236003   -0.59491251288447
C        -2.93472857862618   -0.69201844535261   -1.82685107616274
C        -1.95361913580033   -1.41204564054772   -2.58198110671111
C        -1.55662995087441   -2.57663257060166   -1.81091038746988
C        -2.31564859039732   -2.57260233653577   -0.59207724573578
C        -3.16637591960945   -1.40903598819266   -0.59674863173861
C        -0.97556245257196   -0.71517997199289   -3.29226304799895
C        -0.99159199788950    0.73382710930108   -3.29839655374670
C         0.37361010092943    1.17734776952972   -3.29880661407469
C         1.21055322162031   -0.00243513184171   -3.29172472415154
C         0.37419470101738   -1.14915657579875   -3.31573831095546
Cl       -1.94775875196577    0.00707941746818    5.26047496537458
Cl        1.19370144367020   -3.64931367240380   -4.09393472067309
62
 energy: -137.537099159203 gnorm: 0.001374520703 xtb: 6.4.1 (a3dbbd7)
C        -1.29972635948224    0.00487275370106    3.53995325182681
C        -0.37320236445806   -1.17067359639710    3.32195810417140
C         0.97803820720994   -0.71744310452312    3.29129664015371
C         0.97674198034449    0.72507021961387    3.28759189683790
C        -0.37224682935015    1.17865461975696    3.31815228697733
C         2.33187364613733   -2.57178067317900    0.59081656551573
C         3.17854008847813   -1.41321650125624    0.59345672827578
C         2.94411772884847   -0.69166206881558    1.81763046481363
C         1.94943378210739   -1.41265984877197    2.57314510180291
C         1.57501487269427   -2.57195933801988    1.81733292589141
C         3.17699748437284    1.41681175028752    0.58578887014750
C         2.33412777207531    2.58661949786755    0.58768461903437
C         1.57604272758187    2.58156949827661    1.81195651544850
C         1.94915174160483    1.41858116771136    2.56641358600809
C         2.94012292983160    0.69669892418520    1.81309860404944
C        -0.36203677418830    3.45163355425513    0.58973668226281
C        -1.73575329119305    3.00752659114236    0.59369428256332
C        -1.97198616342083    2.29844778266824    1.81632741532215
C        -0.73513152871378    2.28069375679273    2.57158285117290
C         0.25181884660612    3.00137648964187    1.81291974891813
C        -3.39659472840037    0.72158570438204    0.58050344705591
C        -3.39393731222365   -0.71466969742858    0.57933063431737
C        -2.77225286790729   -1.14677041718289    1.81418458869261
C        -2.42113793662681    0.00417537702455    2.56543379374456
C        -2.77137183740415    1.15324441110914    1.81032226269179
C        -1.73346042048007   -2.99860323253327    0.60047166700211
C        -0.36515657132562   -3.43606194536963    0.59428179926630
C         0.25026502278300   -2.99074727972000    1.81597531808365
C        -0.73668093599888   -2.27342420910229    2.58008698452501
C        -1.97524595381031   -2.29085452950974    1.82354461517742
C        -0.25074964665486   -3.02290537061161   -1.81972986739518
C         0.79886407630791   -2.45232972208472   -2.74555896211135
C         1.98360195992302   -2.29468173708177   -1.81909135365341
C         1.73264269517738   -2.98298300447291   -0.59759818093310
C         0.35803415394691   -3.42562289614768   -0.59627803994882
C         2.77847604590654   -1.16828442663190   -1.81281945924652
C         2.41144058691458    0.00803579945535   -2.58024085851597
C         2.78203279097855    1.16468633637331   -1.82224836028134
C         3.39540066144036    0.72040030813318   -0.59422556593264
C         3.39307166673674   -0.72005960837772   -0.59235224611305
C         1.96972509746473    2.29840749437256   -1.81726492740151
C         0.74049420221679    2.30085128158465   -2.57376964418051
C        -0.24897234978002    3.02306686427330   -1.81874119115744
C         0.36584640203104    3.46066844935488   -0.58997975028122
C         1.73900180386447    3.01366460673821   -0.59394372348028
C        -1.57203679042719    2.59266179982957   -1.81654277064891
C        -1.94981632123165    1.42608384980458   -2.57686882869225
C        -2.94498628981147    0.70267549543643   -1.82394029057521
C        -3.17435329189300    1.41783975069608   -0.59940298381100
C        -2.32885206481776    2.58914984186881   -0.59521206996711
C        -2.93521340375807   -0.69225580703434   -1.82696379737751
C        -1.95379530506700   -1.41198549716557   -2.58166229996853
C        -1.55676406899436   -2.57637303012288   -1.81030164228560
C        -2.31600302493428   -2.57293389926908   -0.59188644370880
C        -3.16677057030071   -1.40928391119820   -0.59681458890098
C        -0.97558405985546   -0.71487972268105   -3.29163256099924
C        -0.99171096073801    0.73406531541564   -3.29884899302438
C         0.37350589612984    1.17746681835359   -3.29904927390837
C         1.21047811784934   -0.00222160943758   -3.29127338961208
C         0.37401312430647   -1.14868199285793   -3.31435394818712
Cl       -1.94761895889534    0.00691153545517    5.26011485239016
Cl        1.19239791936640   -3.64402049312885   -4.09147828321910
62
 energy: -137.537101989640 gnorm: 0.000476257007 xtb: 6.4.1 (a3dbbd7)
C        -1.29971949123317    0.00482270610656    3.53975247925647
C        -0.37322341736504   -1.17068311450381    3.32163591958433
C         0.97796578255377   -0.71746877381950    3.29100834597907
C         0.97667211351244    0.72501127691796    3.28735780949044
C        -0.37230106219149    1.17863090451695    3.31792685825821