63
 energy: -142.086808924756 gnorm: 0.137092683371 xtb: 6.4.1 (a3dbbd7)
C        -1.30524132879597    0.00000000000538    3.57807329023422
C        -0.38198622120159   -1.16615737488772    3.28622995044209
C         0.97316446785684   -0.71953336628746    3.26852105894251
C         0.97316446785530    0.71953336630216    3.26852105894473
C        -0.38198622120459    1.16615737490379    3.28622995045274
C         2.33525790565848   -2.58178581715533    0.58265918378867
C         3.18402429064640   -1.41551052449968    0.58305164633927
C         2.94575551469093   -0.69331830539435    1.80727245276214
C         1.94633616722705   -1.41428833030776    2.55691587181014
C         1.57537284635923   -2.57710002453835    1.80571263196464
C         3.18402429064568    1.41551052450295    0.58305164633618
C         2.33525790565840    2.58178581715875    0.58265918378237
C         1.57537284635929    2.57710002454614    1.80571263195897
C         1.94633616722623    1.41428833031814    2.55691587180842
C         2.94575551468950    0.69331830540176    1.80727245276124
C        -0.36286725388684    3.43716117593932    0.57905462418204
C        -1.73307079475598    2.99275061625332    0.57524951534827
C        -1.97752320629156    2.27496221823572    1.79457083857807
C        -0.73661625909686    2.27496497778529    2.56523814188962
C         0.24797249911112    2.99276091828423    1.80557303834060
C        -3.36590164017822    0.71953732333088    0.57375248902312
C        -3.36590164017888   -0.71953732332215    0.57375248902510
C        -2.78105190250946   -1.16617827543313    1.79633080427055
C        -2.63331800734743    0.00000000000824    2.75326019131418
C        -2.78105190250706    1.16617827544612    1.79633080426590
C        -1.73307079475815   -2.99275061624643    0.57524951535621
C        -0.36286725388906   -3.43716117593443    0.57905462419038
C         0.24797249911082   -2.99276091827599    1.80557303834608
C        -0.73661625909661   -2.27496497777287    2.56523814188986
C        -1.97752320629363   -2.27496221822376    1.79457083858313
C        -0.24045690066217   -3.00743782548085   -1.83034246730529
C         0.75231661586805   -2.28840993805800   -2.58424128273324
C         1.97824017738855   -2.28845527885670   -1.82288383798471
C         1.74258918722144   -3.00745695556584   -0.59875134393160
C         0.36899288245124   -3.44813425118672   -0.59934302533638
C         2.79566620008723   -1.16591822783908   -1.82325695863853
C         2.41697359109874   -0.00000000000271   -2.58108531976838
C         2.79566620008779    1.16591822783556   -1.82325695864148
C         3.40959680691412    0.72110795434846   -0.59778286565664
C         3.40959680691433   -0.72110795434857   -0.59778286565546
C         1.97824017738961    2.28845527885345   -1.82288383799084
C         0.75231661586926    2.28840993805322   -2.58424128273948
C        -0.24045690066036    3.00743782547884   -1.83034246731341
C         0.36899288245285    3.44813425118749   -0.59934302534530
C         1.74258918722258    3.00745695556589   -0.59875134393955
C        -1.56217286029713    2.58178679356912   -1.83784975797872
C        -1.93879975252934    1.41553008402889   -2.59849355392507
C        -2.93052386427469    0.69331652856981   -1.84222173469045
C        -3.15943698990261    1.41427069975303   -0.61403881020582
C        -2.32163160591617    2.57707956787764   -0.61452432163280
C        -2.93052386427455   -0.69331652856949   -1.84222173468868
C        -1.93879975252999   -1.41553008403179   -2.59849355392122
C        -1.56217286029877   -2.58178679357009   -1.83784975797151
C        -2.32163160591823   -2.57707956787401   -0.61452432162573
C        -3.15943698990344   -1.41427069974849   -0.61403881020168
C        -0.98033776527170   -0.72109715720207   -3.32415755726590
C        -0.98033776527144    0.72109715719620   -3.32415755726739
C         0.39032106020777    1.16579648770428   -3.31706046827290
C         1.23757908177170   -0.00000000000348   -3.31355725238661
C         0.39032106020722   -1.16579648771087   -3.31706046826971
Cl       -1.60949318930206   -0.00000000015797    5.36443419001363
Cl       -4.09957109178614    0.00000000004209    3.81802953081684
Cl        1.14207037049699   -3.47757913472323   -3.89193720780727
63
 energy: -142.110846582643 gnorm: 0.058928708676 xtb: 6.4.1 (a3dbbd7)
C        -1.30579967237379    0.00107128056786    3.57952669268168
C        -0.38264134558198   -1.16499240962735    3.28919767872298
C         0.97262028931902   -0.71837100706390    3.27167703193200
C         0.97217959170307    0.72020963408924    3.26980284353608
C        -0.38208817568226    1.16666765500121    3.28774000753084
C         2.33819006748993   -2.57918485434280    0.59052137673986
C         3.18686297373317   -1.41592013449273    0.58989137952447
C         2.94573819130814   -0.69285899305183    1.81134022332992
C         1.94641353017883   -1.41378660594453    2.56188518190268
C         1.57528339471682   -2.57634088917242    1.81155082137869
C         3.18348294168254    1.41634875861302    0.58441767001725
C         2.33565358411369    2.58320943788363    0.58339460245868
C         1.57523196468036    2.57753818432984    1.80548163634108
C         1.94647512345300    1.41496486315277    2.55779428742290
C         2.94527151227934    0.69410288955884    1.80936056474301
C        -0.36299188855967    3.43899599584076    0.57979037166840
C        -1.73310329589908    2.99422577857116    0.57630083230564
C        -1.97714754313943    2.27571447639580    1.79569114271890
C        -0.73686568672830    2.27572307229065    2.56519766447183
C         0.24783429894913    2.99318168206731    1.80576816469388
C        -3.36579504984890    0.71971377575169    0.57539102528918
C        -3.36562162208029   -0.71939563229888    0.57534492488667
C        -2.78159340613014   -1.16602700617166    1.79857695504621
C        -2.63373348676068    0.00061624151374    2.75450470361752
C        -2.78095391287752    1.16617765515576    1.79692399573515
C        -1.73558552549987   -2.99538155638070    0.58223697426129
C        -0.36719300714367   -3.43769151721957    0.58756735852867
C         0.24704423626724   -2.99237391282523    1.81118852603609
C        -0.73778789756645   -2.27466674939711    2.57016738633536
C        -1.97887588313998   -2.27503296616515    1.79961414659956
C        -0.24749320456379   -3.00594062832497   -1.81500887972045
C         0.77605304934485   -2.36097192719280   -2.66219078138209
C         1.98163847169426   -2.28194877785893   -1.80817503739520
C         1.73981229758438   -2.99726758023892   -0.59236985774342
C         0.36495536578491   -3.43874316452875   -0.59297316319526
C         2.78998161581560   -1.16076892812048   -1.81108657960830
C         2.41393500450370    0.00579543144015   -2.57809424833037
C         2.79348383422970    1.16687586711394   -1.82211569674376
C         3.40964150000203    0.72167855726936   -0.59556834936917
C         3.41162280826466   -0.71966628542071   -0.59231277855397
C         1.97744174957460    2.29382398565127   -1.82241111229702
C         0.75137219018857    2.29789328729920   -2.58427346764289
C        -0.24176628703905    3.01396637302846   -1.82904253118792
C         0.36883974974876    3.45155834476813   -0.59812902766436
C         1.74252767227494    3.00999193872971   -0.59872982919787
C        -1.56347070486290    2.58795047990708   -1.83584067238263
C        -1.94106125169131    1.42288108227752   -2.59609412461255
C        -2.93115017101509    0.69689373846926   -1.84034497093840
C        -3.15923121291354    1.41506603527919   -0.61331646176207
C        -2.32218390634772    2.57959216885300   -0.61267614961243
C        -2.92918897932912   -0.69307941694720   -1.84200247032477
C        -1.94064055088874   -1.41147684027554   -2.59724338163500
C        -1.56067838001298   -2.57520737648420   -1.82569460555856
C        -2.32483033194387   -2.57839624926894   -0.60816096895508
C        -3.15874997910941   -1.41420165035704   -0.61195202289605
C        -0.97839891187167   -0.70999637153554   -3.32184778794344
C        -0.98161701040046    0.73357209234203   -3.32032808271918
C         0.38637660951208    1.17905887232149   -3.31789048865928
C         1.22775242761336    0.00820663799115   -3.30672098585301
C         0.38380767578597   -1.14938020000467   -3.33711982760145
Cl       -1.61000781955259    0.00015284197316    5.36577111366732
Cl       -4.10029764186536    0.00027649970889    3.81847709565395
Cl        1.17647865657704   -3.58220511921695   -3.99479409162165
63
 energy: -142.116803271748 gnorm: 0.013377612581 xtb: 6.4.1 (a3dbbd7)
C        -1.30651021069241    0.00267640227863    3.58260241869866
C        -0.38349861194090   -1.16377782151469    3.29365738746107
C         0.97167503692301   -0.71691447491848    3.27570310345718
C         0.97037243412613    0.72137992086069    3.27273842715804
C        -0.38287777532268    1.16815775225744    3.29086856449207
C         2.33657650476800   -2.57487178930676    0.59212572041679
C         3.18445251684855   -1.41510078448651    0.59401185696496
C         2.94605543508628   -0.69222219213750    1.81588942111853
C         1.94570632920964   -1.41285682882531    2.56615846340540
C         1.57430280381687   -2.57428476330941    1.81421071406016
C         3.17990346411089    1.41700446119277    0.58590944159594
C         2.33414908042256    2.58523396929936    0.58562721456301
C         1.57378098583674    2.57887725107252    1.80699282605913
C         1.94507601671006    1.41585702272424    2.55952660939600
C         2.94326077887301    0.69512877577392    1.81204512142884
C        -0.36378371002039    3.44208770318777    0.58206368123482
C        -1.73368993701604    2.99679150507332    0.57833646677804
C        -1.97724937320431    2.27788342290766    1.79827282564343
C        -0.73780391448025    2.27744217855750    2.56692507922316
C         0.24668605957177    2.99503886952205    1.80802862246832
C        -3.36599546368395    0.72187624679480    0.57806686478732
C        -3.36426597258432   -0.71740213199845    0.57791269848099
C        -2.78187239084074   -1.16479510344566    1.80200380628009
C        -2.63390551307509    0.00255343231131    2.75691784056621
C        -2.78117032407888    1.16781785506842    1.79879817015917
C        -1.73416692399164   -2.99298289622751    0.58640217067622
C        -0.36858070928330   -3.43322735785076    0.58963765117390
C         0.24609287798343   -2.99042958384814    1.81389576959887
C        -0.73856200157913   -2.27390741971618    2.57488295593495
C        -1.98021151332104   -2.27452030196202    1.80480097623828
C        -0.24793010340206   -3.01015044278372   -1.81512544449985
C         0.79877169692075   -2.42628295449415   -2.72809633325761
C         1.98556529586163   -2.28512907393528   -1.80919698622299
C         1.73648384752212   -2.98641796242523   -0.59540658208467
C         0.36158715165150   -3.42733477975782   -0.59606601620792
C         2.78439791349298   -1.16367328537348   -1.80839563977700
C         2.41398848779719    0.00745266197206   -2.57881296184027
C         2.78842863155613    1.16587705576723   -1.82191097635181
C         3.40300139099461    0.72152026410365   -0.59376426866186
C         3.40490375611145   -0.71933193921210   -0.59016259934224
C         1.97564515168359    2.29804856351112   -1.82083028538982
C         0.74932270220744    2.30223065762944   -2.58172500064692
C        -0.24344316136972    3.02040216363435   -1.82765829663376
C         0.36759850530537    3.45590996735975   -0.59591347465615
C         1.74120756530747    3.01235768292946   -0.59741342382486
C        -1.56519567761157    2.59357934365745   -1.83488449201097
C        -1.94258703881106    1.42794575629612   -2.59619834636844
C        -2.93169052480875    0.70112107848224   -1.83846096164051
C        -3.15886031603313    1.41689125854759   -0.61214537602633
C        -2.32270071469702    2.58313431172822   -0.61060174024568
C        -2.92341910059503   -0.69142220937923   -1.83986777111416
C        -1.94017063363927   -1.40961633492427   -2.59439238199086
C        -1.55381729107718   -2.57427980717057   -1.82252141357439
C        -2.31899239233374   -2.57329142036741   -0.60515802359951
C        -3.15497376818557   -1.41147232780904   -0.60894739519354
C        -0.96811613077205   -0.70778154095905   -3.30855203343709
C        -0.98292646362892    0.73854941286778   -3.32058494308729
C         0.38352637574254    1.18222808042916   -3.31344751990520
C         1.22172157014381    0.00572168174144   -3.29954094391838
C         0.38313182817327   -1.14362016343316   -3.33506640850825
Cl       -1.61208007865986    0.00221260469745    5.36856258977082
Cl       -4.10043222181589    0.00249470434539    3.82063706996567
Cl        1.19956640375116   -3.65396546173360   -4.07577854256755
63
 energy: -142.117109903549 gnorm: 0.008049261562 xtb: 6.4.1 (a3dbbd7)
C        -1.30713845622338    0.00403690518410    3.58491786015037
C        -0.38408390426760   -1.16272865579642    3.29585362165129
C         0.97122051488851   -0.71574876742643    3.27783818373581
C         0.96968167970842    0.72260462484153    3.27458080425212
C        -0.38337015565586    1.16951531843372    3.29289349811876
C         2.33363425060778   -2.57266203496527    0.59061805872937
C         3.18092365387975   -1.41377582304604    0.59394642750955
C         2.94521424708870   -0.69121164309225    1.81703017127696
C         1.94491732385575   -1.41166532149022    2.56745747724729
C         1.57306790303267   -2.57207310069046    1.81390086092244
C         3.17860005185186    1.41758766882350    0.58664158538542
C         2.33359819930514    2.58640098188854    0.58701812394600
C         1.57323327390195    2.58016384910581    1.80828701782357
C         1.94443975224692    1.41696338734867    2.56082280069380
C         2.94200929706905    0.69609880339151    1.81314920904808
C        -0.36411433437797    3.44364289560991    0.58337317450545
C        -1.73411357485148    2.99805821987750    0.57971834493642
C        -1.97750046927209    2.27902815140609    1.79991311532576
C        -0.73829086818947    2.27874635123757    2.56838586109251
C         0.24616072973811    2.99652366552288    1.80961423185927
C        -3.36572810230934    0.72246607267987    0.57966082006268
C        -3.36306492404352   -0.71677673490614    0.57870167952188
C        -2.78170077639147   -1.16395614765954    1.80342681525339
C        -2.63449451767845    0.00345405536053    2.75877819976680
C        -2.78122918651688    1.16857192252178    1.80022913629497
C        -1.73257461828880   -2.99077808362568    0.58654819725508
C        -0.36772517421988   -3.43007233476532    0.58837722431878
C         0.24552548144000   -2.98819121191710    1.81371550478532
C        -0.73889913079962   -2.27284896692527    2.57650140295670
C        -1.98048582874182   -2.27379394258444    1.80629068830785
C        -0.24659219037054   -3.01697092110270   -1.82241263738014
C         0.80417242046159   -2.44285298554958   -2.74306552228845
C         1.98823147270473   -2.29128913631743   -1.81671971308383
C         1.73567232989977   -2.98432283355377   -0.59902022582977
C         0.36083627927322   -3.42521514350749   -0.59968001264522
C         2.78392974242752   -1.16676598520617   -1.81177383538633
C         2.41585509246669    0.00770159143980   -2.58050858299177
C         2.78684995987964    1.16560801174487   -1.82168095559768
C         3.39985342303427    0.72155427790273   -0.59310651961203
C         3.39884857612704   -0.71923194243539   -0.59091510783569
C         1.97537540707933    2.29905840357304   -1.81950217097629
C         0.74912183134272    2.30221416779880   -2.58012649830686
C        -0.24359532510355    3.02187375963204   -1.82667409443322
C         0.36728341492280    3.45760501809236   -0.59470551138297
C         1.74088325633770    3.01325115311020   -0.59632988085673
C        -1.56537274679726    2.59482995749766   -1.83363476389341
C        -1.94086976071286    1.42737741219205   -2.59301435219431
C        -2.93137398733413    0.70158352266798   -1.83671110507124
C        -3.15829138560451    1.41704734113508   -0.61080658149674
C        -2.32290893713446    2.58424236165671   -0.60916777279435
C        -2.92138301547987   -0.69132359767676   -1.83972644112464
C        -1.94201851506569   -1.41132421034530   -2.59681000167760
C        -1.55181982898643   -2.57704382547040   -1.82598976420255
C        -2.31449287340723   -2.57073000425308   -0.60584337025731
C        -3.15211881826627   -1.41033930371257   -0.60835566542996
C        -0.96540812997664   -0.71164843959700   -3.30799856961298
C        -0.98105502246339    0.73630477452705   -3.31587015642769
C         0.38421365910838    1.18051587474038   -3.31011320296256
C         1.22186441970226    0.00189583464813   -3.29880170481198
C         0.38390774237644   -1.14640426881316   -3.33151900454110
Cl       -1.61217296279640    0.00487338435983    5.37110157642893
Cl       -4.10211151763455    0.00490698138143    3.82114211983724
Cl        1.20243228915672   -3.66214046962546   -4.09226412122426
63
 energy: -142.117206329446 gnorm: 0.004633955260 xtb: 6.4.1 (a3dbbd7)
C        -1.30738460996184    0.00433258478239    3.58546744001336
C        -0.38424760840783   -1.16272707604877    3.29710145757142
C         0.97124914485182   -0.71550501173556    3.27901759209915
C         0.96951047648493    0.72292321454325    3.27540644887797
C        -0.38349196806406    1.16982141409841    3.29350801979416
C         2.33176324269742   -2.57123333426187    0.58980886731205
C         3.17942220677558   -1.41307382186201    0.59386358565206
C         2.94506545499822   -0.69070988568838    1.81768343792550
C         1.94490158740375   -1.41117756725083    2.56818160580445
C         1.57247102403286   -2.57082613807398    1.81366260196557
C         3.17824353323425    1.41776532471914    0.58689374212766
C         2.33361444392529    2.58686428858307    0.58752346774665
C         1.57314528144966    2.58056471488151    1.80869110405072
C         1.94431336478270    1.41736179533083    2.56140932527781
C         2.94149299903018    0.69649128490100    1.81361377917829
C        -0.36412643880088    3.44405046689734    0.58350633338574
C        -1.73428515702035    2.99837184774958    0.57986260130553
C        -1.97759359647417    2.27934909928088    1.80026946471528
C        -0.73840306821122    2.27890999480246    2.56852573115395
C         0.24602687709681    2.99687961408818    1.80993915485592
C        -3.36590148668726    0.72265195184873    0.58024071893481
C        -3.36270581814784   -0.71658408344684    0.57897764620940
C        -2.78169832636593   -1.16363969304967    1.80403382260523
C        -2.63454622982174    0.00386825126142    2.75933205794136
C        -2.78147901181548    1.16893334167246    1.80066931201289
C        -1.73185466239380   -2.98965535613023    0.58657651615710
C        -0.36702363029143   -3.42795656772920    0.58768941689980
C         0.24533595055147   -2.98690398781556    1.81351954216392
C        -0.73913055845546   -2.27260954121675    2.57736798136746
C        -1.98075540944690   -2.27349898044007    1.80707631498560
C        -0.24580919761076   -3.02045613916519   -1.82677827441679
C         0.80658042374149   -2.45010926675706   -2.74925341594358
C         1.98953155579485   -2.29450076662881   -1.82120846026672
C         1.73513101140034   -2.98266768548036   -0.60068955385472
C         0.36030227269963   -3.42358731985334   -0.60137766976748
C         2.78380463828551   -1.16812529774544   -1.81348894110800
C         2.41769177861735    0.00831144358249   -2.58148970862292
C         2.78680218324717    1.16579008177822   -1.82179929325823
C         3.39819050086981    0.72142397744527   -0.59285046776369
C         3.39567208440168   -0.71938222236127   -0.59129692300312
C         1.97572578710795    2.29957003947909   -1.81903769367991
C         0.74923891992689    2.30190241817656   -2.57952279008219
C        -0.24347172342905    3.02207756469605   -1.82649865246470
C         0.36736784365682    3.45819187543766   -0.59453581487595
C         1.74107666877059    3.01355013399632   -0.59603984024900
C        -1.56530976191490    2.59487684274163   -1.83335174507300
C        -1.94008345656680    1.42680981156368   -2.59177698153854
C        -2.93152799230496    0.70156105700450   -1.83599032907870
C        -3.15825599173760    1.41689744435498   -0.61044147247493
C        -2.32311413586443    2.58451011477949   -0.60891349310386
C        -2.92114525264666   -0.69143253276360   -1.83990523774243
C        -1.94410282639126   -1.41234613363852   -2.59818116222433
C        -1.55109232360627   -2.57838203589866   -1.82779016453124
C        -2.31197719774305   -2.56940468774244   -0.60617442192878
C        -3.15056140547612   -1.40975470459349   -0.60810791510149
C        -0.96408693772180   -0.71427783703279   -3.30744852729513
C        -0.97997211784291    0.73478570618078   -3.31295121630048
C         0.38462188945818    1.17909076118327   -3.30782303050654
C         1.22242147583092   -0.00056739510291   -3.29817938964220
C         0.38438132375156   -1.14821004673002   -3.32732597020665
Cl       -1.61584978396626    0.00625813163180    5.37107691256012
Cl       -4.10028928655050    0.00596132036746    3.82419307840566
Cl        1.20163966281790   -3.65898193231951   -4.09687457828114
63
 energy: -142.117237056218 gnorm: 0.002731880056 xtb: 6.4.1 (a3dbbd7)
C        -1.30759673948274    0.00429545316459    3.58659164606411
C        -0.38432513087218   -1.16266719266087    3.29739815748904
C         0.97136895421776   -0.71555543145098    3.27926051152392
C         0.96954082734200    0.72279558591765    3.27537601088377
C        -0.38348495705911    1.16945317503743    3.29335901210112
C         2.33099734278424   -2.57071103751937    0.58973028274245
C         3.17928169633383   -1.41295448854756    0.59396132971166
C         2.94529955237139   -0.69064010319268    1.81802855656014
C         1.94512916391191   -1.41109715527119    2.56845184395748
C         1.57224703070196   -2.57041437598912    1.81366204148047
C         3.17841269372857    1.41771870523173    0.58686026154265
C         2.33377111273974    2.58684490379410    0.58751053047799
C         1.57317601082034    2.58043785190187    1.80858656841500
C         1.94439791811609    1.41731883355988    2.56140876457589
C         2.94144046199952    0.69648322217305    1.81365739512506
C        -0.36409927633660    3.44375264610867    0.58327187309847
C        -1.73430355445645    2.99801841214059    0.57963899465567
C        -1.97759218724475    2.27898287923820    1.80016505906456
C        -0.73843672210470    2.27847273214828    2.56826325334618
C         0.24598386601116    2.99653058203955    1.80975825265005
C        -3.36603041989831    0.72249081625955    0.58018448548489
C        -3.36273183009519   -0.71666754058814    0.57889168033994
C        -2.78165677341614   -1.16340753029478    1.80411717566437
C        -2.63552187252904    0.00384328718182    2.75998740837482
C        -2.78155465535308    1.16861879545504    1.80059998826322
C        -1.73183756782461   -2.98933150114330    0.58679224333026
C        -0.36678197443710   -3.42703346815154    0.58770469272888
C         0.24520081415015   -2.98636953869434    1.81357025700515
C        -0.73939010222755   -2.27251141330853    2.57777627460310
C        -1.98104615859762   -2.27336806099788    1.80752823609016
C        -0.24557543181153   -3.02118018992269   -1.82803320722011
C         0.80744675475062   -2.45263892291410   -2.75141890142268
C         1.98968813884859   -2.29523901248057   -1.82250463816572
C         1.73474480638392   -2.98157678980921   -0.60087233434368
C         0.35987980224605   -3.42246784162989   -0.60156012731174
C         2.78363233721297   -1.16838115222458   -1.81363253697275
C         2.41877606158333    0.00880669987210   -2.58172375757117
C         2.78734773662514    1.16598251753691   -1.82199719648115
C         3.39777232984192    0.72124153345957   -0.59281885313990
C         3.39473796918019   -0.71964386365410   -0.59129206321902
C         1.97613738466766    2.29971158379181   -1.81902626701317
C         0.74938802627382    2.30168989060146   -2.57953103123232
C        -0.24334999638262    3.02177053153135   -1.82663014311920
C         0.36746188201461    3.45807117141095   -0.59469852854498
C         1.74130623632625    3.01346595812563   -0.59614964523827
C        -1.56521897597334    2.59449228409521   -1.83349493001887
C        -1.94001509230277    1.42652933599204   -2.59180569096027
C        -2.93188245192361    0.70136085826976   -1.83596164287694
C        -3.15835282684192    1.41658795433007   -0.61062441713029
C        -2.32317879596582    2.58428390161865   -0.60909647330479
C        -2.92165682956069   -0.69168736521334   -1.84018340890327
C        -1.94546174945155   -1.41273742976979   -2.59851410810039
C        -1.55093711955819   -2.57859509321179   -1.82798113102233
C        -2.31109967401388   -2.56904299623327   -0.60610963376447
C        -3.15011195820183   -1.40967632820503   -0.60808644579082
C        -0.96350055451505   -0.71536430773995   -3.30657129729341
C        -0.97961848990354    0.73424465324996   -3.31189903593821
C         0.38466730016727    1.17842212083585   -3.30679565178623
C         1.22266992396723   -0.00162629878874   -3.29739712582407
C         0.38446538554578   -1.14873311652981   -3.32377299611206
Cl       -1.60759001403429    0.00682717325408    5.37382630981700
Cl       -4.10641165502610    0.00604037172390    3.81796321475532
Cl        1.19944065249199   -3.65184600963737   -4.09611314543038
63
 energy: -142.117253555465 gnorm: 0.002050284347 xtb: 6.4.1 (a3dbbd7)
C        -1.30732339065886    0.00416956321858    3.58512597165232
C        -0.38421639816496   -1.16309840742036    3.29723141521625
C         0.97146518210336   -0.71576727972236    3.27917257050202
C         0.96963474555350    0.72263561568160    3.27513384446544
C        -0.38331536910035    1.16952158204696    3.29302520884945
C         2.33119166309885   -2.57092315743315    0.59001705613278
C         3.17982083112700   -1.41317382441169    0.59411448828403
C         2.94553468032439   -0.69082531420066    1.81808747383474
C         1.94535995312964   -1.41128976825816    2.56849845079425
C         1.57243943183577   -2.57071541953046    1.81383862185581
C         3.17874813401558    1.41756862371994    0.58663533027738
C         2.33399054459351    2.58663503595543    0.58714888757453
C         1.57334883101190    2.58022366523092    1.80819268271586
C         1.94452148441386    1.41714374768753    2.56112460890181
C         2.94151944474305    0.69627515564070    1.81339744769601
C        -0.36392966776536    3.44348088841858    0.58274281349018
C        -1.73413696984729    2.99780816640496    0.57909667953098
C        -1.97742981861863    2.27885914376936    1.79963983042310
C        -0.73825130329717    2.27836812440583    2.56771899623895
C         0.24617694039102    2.99631543912241    1.80922630292629
C        -3.36623723355114    0.72233837305292    0.57993810592658
C        -3.36307541396179   -0.71692506791083    0.57875568789816
C        -2.78170847926264   -1.16384178700583    1.80385886282631
C        -2.63453521919505    0.00365172013480    2.75900200768243
C        -2.78164583557563    1.16869541358014    1.80025688010579
C        -1.73203219729678   -2.98980192768009    0.58678463118617
C        -0.36671707355588   -3.42731734847829    0.58785919598490
C         0.24534032266516   -2.98672247776187    1.81358831687415
C        -0.73935652390127   -2.27286379799242    2.57761247673910
C        -1.98107429649536   -2.27373275136743    1.80739412126901
C        -0.24563194741033   -3.02041841778541   -1.82739292315187
C         0.80747677650535   -2.45242883861133   -2.75149128509317
C         1.98936940334616   -2.29457929554195   -1.82179808557700
C         1.73472866086063   -2.98130220336418   -0.60039021321084
C         0.35983233335434   -3.42222242143752   -0.60117144920902
C         2.78358704696765   -1.16810515734558   -1.81304035535586
C         2.41907481798969    0.00896314947350   -2.58158242726856
C         2.78798691372207    1.16602639575277   -1.82223267962145
C         3.39818455594825    0.72109472773213   -0.59296582065671
C         3.39525206370207   -0.71986824084370   -0.59113541497324
C         1.97646793608179    2.29960526430754   -1.81935291439689
C         0.74956551153431    2.30163716714002   -2.57995245865083
C        -0.24322478297554    3.02142751068214   -1.82700911642217
C         0.36763632598996    3.45778417961586   -0.59515665377681
C         1.74154255433916    3.01326127343367   -0.59655073433462
C        -1.56512243430752    2.59414492859727   -1.83389085825319
C        -1.94028910002496    1.42648072123320   -2.59240754543466
C        -2.93215416127146    0.70116575742900   -1.83622132353507
C        -3.15847912727890    1.41639459580618   -0.61097627714149
C        -2.32311607157420    2.58403311986054   -0.60953180352239
C        -2.92222678340727   -0.69194396215463   -1.84034142838623
C        -1.94583636024031   -1.41269709211423   -2.59824729430998
C        -1.55102363830834   -2.57828357234885   -1.82743940490461
C        -2.31132507448897   -2.56938091882577   -0.60600945805608
C        -3.15044138515080   -1.40995660764279   -0.60815327406788
C        -0.96343919462491   -0.71524078993438   -3.30586866819985
C        -0.97972624384731    0.73440206251252   -3.31224622857810
C         0.38455786920926    1.17842205748338   -3.30694919851781
C         1.22265612489337   -0.00156786432220   -3.29687059295558
C         0.38433749662441   -1.14835809594839   -3.32196313658916
Cl       -1.61671187329385    0.00679952855900    5.37057341553405
Cl       -4.09955851016739    0.00560024718528    3.82466817606121