108
 energy: -320.437708507631 gnorm: 4.078045704298 xtb: 6.4.1 (a3dbbd7)
C        -1.23626340000000    0.00000000000000    3.32997640000000
C        -0.38202640000000   -1.17575640000000    3.32997640000000
C         1.00015810000000   -0.72665740000000    3.32997640000000
C         1.00015810000000    0.72665740000000    3.32997640000000
C        -0.38202640000000    1.17575640000000    3.32997640000000
C         2.34433560000000   -2.60145750000000    0.59464210000000
C         3.19857260000000   -1.42570110000000    0.59464210000000
C         2.96246730000000   -0.69904370000000    1.83090550000000
C         1.96230920000000   -1.42570110000000    2.59495830000000
C         1.58028280000000   -2.60145750000000    1.83090550000000
C         3.19857260000000    1.42570110000000    0.59464210000000
C         2.34433560000000    2.60145750000000    0.59464210000000
C         1.58028280000000    2.60145750000000    1.83090550000000
C         1.96230920000000    1.42570110000000    2.59495830000000
C         2.96246730000000    0.69904370000000    1.83090550000000
C        -0.36750900000000    3.48258920000000    0.59464210000000
C        -1.74969350000000    3.03349030000000    0.59464210000000
C        -1.98579880000000    2.30683290000000    1.83090550000000
C        -0.74953540000000    2.30683290000000    2.59495830000000
C         0.25062270000000    3.03349030000000    1.83090550000000
C        -3.42570570000000    0.72665740000000    0.59464210000000
C        -3.42570570000000   -0.72665740000000    0.59464210000000
C        -2.80757400000000   -1.17575640000000    1.83090550000000
C        -2.42554760000000    0.00000000000000    2.59495830000000
C        -2.80757400000000    1.17575640000000    1.83090550000000
C        -1.74969350000000   -3.03349030000000    0.59464210000000
C        -0.36750900000000   -3.48258920000000    0.59464210000000
C         0.25062270000000   -3.03349030000000    1.83090550000000
C        -0.74953540000000   -2.30683290000000    2.59495830000000
C        -1.98579880000000   -2.30683290000000    1.83090550000000
C        -0.25062270000000   -3.03349030000000   -1.83090550000000
C         0.74953540000000   -2.30683290000000   -2.59495830000000
C         1.98579880000000   -2.30683290000000   -1.83090550000000
C         1.74969350000000   -3.03349030000000   -0.59464210000000
C         0.36750900000000   -3.48258920000000   -0.59464210000000
C         2.80757400000000   -1.17575640000000   -1.83090550000000
C         2.42554760000000    0.00000000000000   -2.59495830000000
C         2.80757400000000    1.17575640000000   -1.83090550000000
C         3.42570570000000    0.72665740000000   -0.59464210000000
C         3.42570570000000   -0.72665740000000   -0.59464210000000
C         1.98579880000000    2.30683290000000   -1.83090550000000
C         0.74953540000000    2.30683290000000   -2.59495830000000
C        -0.25062270000000    3.03349030000000   -1.83090550000000
C         0.36750900000000    3.48258920000000   -0.59464210000000
C         1.74969350000000    3.03349030000000   -0.59464210000000
C        -1.58028280000000    2.60145750000000   -1.83090550000000
C        -1.96230920000000    1.42570110000000   -2.59495830000000
C        -2.96246730000000    0.69904370000000   -1.83090550000000
C        -3.19857260000000    1.42570110000000   -0.59464210000000
C        -2.34433560000000    2.60145750000000   -0.59464210000000
C        -2.96246730000000   -0.69904370000000   -1.83090550000000
C        -1.96230920000000   -1.42570110000000   -2.59495830000000
C        -1.58028280000000   -2.60145750000000   -1.83090550000000
C        -2.34433560000000   -2.60145750000000   -0.59464210000000
C        -3.19857260000000   -1.42570110000000   -0.59464210000000
C        -1.00015810000000   -0.72665740000000   -3.32997640000000
C        -1.00015810000000    0.72665740000000   -3.32997640000000
C         0.38202640000000    1.17575640000000   -3.32997640000000
C         1.23626340000000    0.00000000000000   -3.32997640000000
C         0.38202640000000   -1.17575640000000   -3.32997640000000
C        -1.76086815247998    0.00000000000000    4.78849957557021
F        -0.76911826531252    0.00000000000000    5.67468926254662
F        -2.50968386795825   -1.06794314680471    5.04863888333743
F        -2.50968386795825    1.06794314680471    5.04863888333743
C        -0.54413818249354   -1.67468516033722    4.78849957845317
F        -0.23767107904745   -0.73147481112462    5.67468925997942
F        -1.79120914301982   -2.05683909935453    5.04863874564184
F         0.24013968171955   -2.71686350152345    5.04863903502921
C         0.53602450593361   -4.99908416128281   -0.86730591619822
F         1.22448605650957   -5.23152837615597   -1.98125850960180
F        -0.63540201352706   -5.61404743764837   -1.00324736766175
F         1.18149064144157   -5.61404773804446    0.11965571789346
C         4.58877084110522   -2.05459160147071    0.86730597290559
F         4.59709252483521   -2.78118520641283    1.98125951001435
F         4.97417519512416   -2.85850196315549   -0.11965482382298
F         5.53562669678859   -1.13053295630600    1.00324569798425
C         2.82790274436383   -2.05459160758554    3.71645040671519
F         3.82797483682855   -2.78118494419178    3.22571836876305
F         3.37293748548841   -1.13053297859378    4.50255013394648
F         2.11749631416700   -2.85850222732984    4.50254863174647
C         2.84103082519036    3.32439911178427   -2.62817407941587
F         2.23127406184888    4.50005340761388   -2.75037746012491
F         3.10404037880940    2.89718378306489   -3.85992609894427
F         4.01248672303644    3.55720929213525   -2.04303264409737
C         2.82790274436383    2.05459160758554    3.71645040671519
F         3.82797483682855    2.78118494419178    3.22571836876305
F         2.11749631416700    2.85850222732984    4.50254863174647
F         3.37293748548841    1.13053297859378    4.50255013394648
C         4.25247495652193    1.01957928511255    2.62817407757680
F         4.45020405360857    2.32910962270745    2.75037677428973
F         5.33704498641440    0.51936149478962    2.04303305824599
F         4.21414295278389    0.51936236815949    3.85992636334022
C        -2.28376457660886    3.72927671755932   -2.62817408867206
F        -3.59030321655004    3.51265997057978   -2.75037870097715
F        -1.79618325340527    3.84739782561575   -3.85992562899768
F        -2.14318168460923    4.91533956626621   -2.04303190988614
C        -4.92005227074660    1.03501232949151    0.86730592957069
F        -5.35386609588658    0.45207588830481    1.98125865327758
F        -5.70437742108406    0.61117153086585   -0.11965558739362
F        -5.14292645153878    2.33913927311179    1.00324714649869
C        -1.42457227037960    1.03501233722714   -4.78849957248258
F        -0.62223011468481    0.45207589682711   -5.67468926529602
F        -2.65809836182651    0.61117154425495   -5.04863869666891
F        -1.40265511061956    2.33913928186680   -5.04863905501621
C        -2.84103082519036   -3.32439911178427    2.62817407941587
F        -2.23127406184888   -4.50005340761388    2.75037746012491
F        -4.01248672303644   -3.55720929213525    2.04303264409737
F        -3.10404037880940   -2.89718378306488    3.85992609894427
108
 energy: -322.146828915023 gnorm: 1.259609725109 xtb: 6.4.1 (a3dbbd7)
C        -1.24002593334490    0.00449085313553    3.32860205545803
C        -0.37856070988689   -1.17965835302168    3.32788470886684
C         0.99724288164956   -0.71795178885204    3.33191919596406
C         0.99011375887501    0.72061136425564    3.33217955149098
C        -0.37744036289994    1.18040764014325    3.33151714130402
C         2.33528467314159   -2.60277988509313    0.59636729340272
C         3.20664359313809   -1.43100613495335    0.59569653222402
C         2.96144870704278   -0.70009065902003    1.82926054437639
C         1.96844280342596   -1.43096081418019    2.59959651641974
C         1.57833966622925   -2.60403000626552    1.82198496916152
C         3.19660746750189    1.42995160298965    0.58828173717346
C         2.34231973470667    2.60039341617364    0.59470129081971
C         1.57770526921865    2.60431553190058    1.82530289545000
C         1.96072967014411    1.43087405601433    2.59802425665928
C         2.96307487255840    0.69699592599147    1.82558259009993
C        -0.36965992622665    3.48083830206813    0.59630905122438
C        -1.74791926584871    3.03351065847079    0.59652342127564
C        -1.98394910978810    2.30744479769841    1.83073552732987
C        -0.75014279024209    2.30873326686370    2.59266701975357
C         0.24796782567594    3.03251044594644    1.82928136149996
C        -3.43152714687889    0.72764619633160    0.59783004240801
C        -3.42580480946502   -0.73232425953894    0.59876923187384
C        -2.81073874850155   -1.16423505843491    1.82772791215369
C        -2.43234760452201    0.00220562690769    2.58395305477607
C        -2.80009530782639    1.17479612136595    1.83443901327798
C        -1.74267012428596   -3.03277269109676    0.58777784238550
C        -0.37500270790234   -3.48471944450096    0.60313997166329
C         0.24765817884789   -3.03055955684202    1.82853715949370
C        -0.74400891902611   -2.31430835953354    2.58883596287791
C        -1.99059003030475   -2.31410447320461    1.83223298026808
C        -0.25190022886105   -3.02589913924487   -1.83490549574820
C         0.74878045482041   -2.30794243034879   -2.59226986216757
C         1.98429491457981   -2.30708844406288   -1.82933716325410
C         1.75374292166890   -3.02699518171503   -0.59615491654925
C         0.36991332033383   -3.48745408413907   -0.59779378557653
C         2.80877168210234   -1.17348598659442   -1.82864454490961
C         2.42718168545742    0.00161252504305   -2.59251950437282
C         2.81020901670459    1.16363313527104   -1.83283146446111
C         3.42374208861881    0.72398341961396   -0.59795481891546
C         3.42052915801558   -0.72120788769094   -0.60489693041002
C         1.99094835702414    2.31245915723035   -1.83369684114383
C         0.74209402561126    2.30855360792628   -2.59250716778770
C        -0.23860732131411    3.03123312051554   -1.83255517755870
C         0.36943578243772    3.47994811733884   -0.59629067275503
C         1.74494075903705    3.03451108203230   -0.58890723571723
C        -1.58827843004311    2.60508758054994   -1.83265125281619
C        -1.96917091723574    1.42038641998125   -2.58604562876730
C        -2.95853134881726    0.70177147199895   -1.83119773952274
C        -3.19019782589434    1.43187828387404   -0.60262736706412
C        -2.34654524345305    2.59944378984674   -0.58847952393357
C        -2.96113522605347   -0.70264010210659   -1.82932035822117
C        -1.96217757374030   -1.42566984976405   -2.59343561810464
C        -1.58020657926920   -2.60028672235683   -1.83057765449684
C        -2.34431964866294   -2.60046033752888   -0.59629058167932
C        -3.19683519436216   -1.42691081118952   -0.59727835142991
C        -0.99862711383542   -0.73347335144589   -3.33075680171458
C        -0.99957147571459    0.72647021114608   -3.33149956977361
C         0.38848336626995    1.17481797600179   -3.33118441914761
C         1.23361845409636    0.00125572293177   -3.32942593828839
C         0.37994041514466   -1.17357825127536   -3.33009094161243
C        -1.78387621492653    0.01654841624538    4.77233112489721
F        -0.81586121158662    0.08392855172958    5.69609508886916
F        -2.60508025933187   -0.94642222093103    5.05315577387022
F        -2.51451739767964    1.07847634640907    5.05038522298458
C        -0.53997332415928   -1.70125987748778    4.77319760220152
F        -0.16814119014388   -0.80353305447637    5.69601190844725
F        -1.70229451623279   -2.18103209674397    5.05879394771683
F         0.23897491853607   -2.72339146429867    5.05272875562645
C         0.53683029630123   -5.00219635213370   -0.86811388706739
F         1.22534879740710   -5.23283794933344   -1.98238530764166
F        -0.63614088158812   -5.61506774584114   -1.00336166092939
F         1.18219850510939   -5.61506299205675    0.12052559325800
C         4.59284951966706   -2.05553792429858    0.86015028950301
F         4.63668777986998   -2.78615969388748    1.92733273320731
F         4.97583357353254   -2.85966329914772   -0.12400237978771
F         5.53968339010800   -1.13541278706777    0.99804490142030
C         2.82509080464488   -2.05642636237266    3.72037843233797
F         3.79753450468615   -2.78574278970575    3.28531401773796
F         3.37048138593348   -1.13461489969999    4.50936050142904
F         2.12216662848161   -2.86099497662289    4.50554565962886
C         2.84181934174881    3.32618723434799   -2.63059419584880
F         2.23144143202050    4.50198073320721   -2.75093243209916
F         3.10470568830251    2.89724624159520   -3.86117324158144
F         4.01411855925673    3.55801776066003   -2.04244384550287
C         2.80318944331739    2.04940521020588    3.72906725181089
F         3.77397547960909    2.85137895580208    3.27627964015356
F         2.11075197217450    2.86661766123567    4.50782159222880
F         3.26869415945262    1.20682971567590    4.59276268540705
C         4.25977302477534    0.99261242839488    2.61769482205827
F         4.53299337389778    2.30268693916073    2.69812638749051
F         5.34398160565412    0.52441276802324    2.04140276092744
F         4.32934005023119    0.44620075371069    3.78387380518117
C        -2.28625614314638    3.73153081468505   -2.62951109373756
F        -3.59232657647660    3.51314371778375   -2.75111913207996
F        -1.79758744186617    3.85512736379139   -3.85611915260849
F        -2.14342478731410    4.91699343635872   -2.04248319129825
C        -4.92292899375082    1.03530989246939    0.86745746076290
F        -5.35528598382267    0.45172329726062    1.98267664756445
F        -5.70532683740047    0.61087866397598   -0.12015642492485
F        -5.14364836486583    2.34012825647690    1.00351605102504
C        -1.42490878338558    1.03470742441304   -4.79156603838488
F        -0.62165520636626    0.45112688189064   -5.67653391636135
F        -2.65904041642854    0.61053707710286   -5.04927274033588
F        -1.40080322585318    2.33354021392298   -5.05528628523703
C        -2.84287849140757   -3.32786769568495    2.62667001872893
F        -2.23129291853094   -4.50180304766496    2.75146656278368
F        -4.01396775511639   -3.55799585982059    2.04283015359106
F        -3.11055473846427   -2.90092811089290    3.85768211450462
108
 energy: -322.668259854895 gnorm: 1.182405989280 xtb: 6.4.1 (a3dbbd7)
C        -1.25417330116255    0.01629984859748    3.34858728410751
C        -0.37454681675295   -1.18768755173174    3.33999194619993
C         0.99396095776046   -0.69994345710368    3.32573510522156
C         0.96428041434606    0.70978330757224    3.32050701713867
C        -0.37156159763927    1.19208661564604    3.31619228355338
C         2.31303037716229   -2.60140609610768    0.59366074982997
C         3.23178693733487   -1.44731831671452    0.59558754351012
C         2.95799655409924   -0.70512898111467    1.81903333683152
C         1.98607134912660   -1.44874628604457    2.61603563429589
C         1.57205739779830   -2.60893189785498    1.80162706422745
C         3.18887162278026    1.43779374361775    0.56980358952444
C         2.33305098823525    2.59257938230394    0.59161805173370
C         1.56985329918128    2.61681738452303    1.81268680606687
C         1.96195799027060    1.44853583229836    2.60970708154414
C         2.97104254137344    0.69747033068943    1.81724376731419
C        -0.37618222249417    3.48165783257180    0.59784176796732
C        -1.74404982557089    3.03191390112058    0.60284999855822
C        -1.97827380221853    2.31230652385276    1.83365550535277
C        -0.75040286540178    2.31609024617423    2.58400855131349
C         0.24050942971883    3.03203121575359    1.81843680766039
C        -3.46856853377242    0.73384248212493    0.60630664147515
C        -3.40275709728866   -0.74056776200925    0.59583719940893
C        -2.80906752488946   -1.14305636877295    1.80350074248661
C        -2.44426766975329    0.01062299834294    2.55709810320764
C        -2.78300847349708    1.17532011335804    1.83432827808858
C        -1.72854258131237   -3.02445482744191    0.57261081075620
C        -0.38887023371143   -3.46273463504611    0.61086886687226
C         0.24003864034146   -3.01865563009259    1.81668540767485
C        -0.73217247231212   -2.32335628422471    2.57485052772029
C        -2.00810925819665   -2.34026884849683    1.84830018404608
C        -0.25390654056786   -3.00763010530293   -1.84211774399653
C         0.74769868712975   -2.30688113418058   -2.58590779479802
C         1.98032474786296   -2.30491052760951   -1.82415686249418
C         1.75625174778578   -3.01302875750399   -0.60008332531281
C         0.37397017736789   -3.52728951507561   -0.61044270956728
C         2.80961874937984   -1.16879431421177   -1.82649065384927
C         2.42927394237310    0.00459403770845   -2.58779337570526
C         2.80975355056798    1.14264210093270   -1.83136583088207
C         3.40831672546606    0.71725665896433   -0.60658507161299
C         3.41332471331885   -0.71344312116720   -0.62586085420593
C         2.00958130558401    2.34131838987077   -1.85249869651434
C         0.72719667416724    2.29571806052710   -2.57786346740819
C        -0.21680998646421    3.02119594193578   -1.82204598943331
C         0.37342178370014    3.46765714537438   -0.59234656356536
C         1.73397328048436    3.03579748428796   -0.58032047318706
C        -1.60764967344761    2.63414524460132   -1.85106328468019
C        -1.97808219861076    1.40789704615757   -2.57069189253959
C        -2.94248687164096    0.70296231862222   -1.82684881985293
C        -3.17283475275907    1.43998798716495   -0.61332289026806
C        -2.34370034139247    2.57853500923087   -0.57502376258824
C        -2.96183698527210   -0.71047298881857   -1.82817261819075
C        -1.96218499898065   -1.42600040091778   -2.58679625829176
C        -1.58051233219180   -2.59586251376700   -1.83082967422501
C        -2.34338574683509   -2.59881941136369   -0.60383221292192
C        -3.19004914050993   -1.43130169914793   -0.60567766439854
C        -0.98821051546056   -0.74709756226608   -3.31109772504466
C        -1.00696306249461    0.72620889277159   -3.37218316321125
C         0.39839403394850    1.16642412003451   -3.31505341022368
C         1.22856372476039    0.00402745445773   -3.32513033929974
C         0.37782767711225   -1.16936760927659   -3.32569392392534
C        -1.82488984906544    0.02301540777358    4.75618357770192
F        -0.81550811680781    0.12760728351299    5.74282231269234
F        -2.64789465150767   -0.91511922085387    5.07308872944606
F        -2.51848835974680    1.09979733502613    5.04948716473723
C        -0.54537230491901   -1.74009388252750    4.75899428096575
F        -0.12884004212833   -0.80956434863325    5.74821295565798
F        -1.67954135469510   -2.22467884490560    5.09496610995238
F         0.22875411953398   -2.73811097086227    5.06485732606695
C         0.53949965007906   -5.02052749712805   -0.87289037875717
F         1.22858716514308   -5.24129142151101   -1.98832126171885
F        -0.63930417757756   -5.62190371474011   -1.00524481865861
F         1.18478254952304   -5.62187256746955    0.12249391708457
C         4.61021811971545   -2.06555702301898    0.83812186340545
F         4.69719453309932   -2.80937663842990    1.87129528888691
F         4.98312275850016   -2.86606153604150   -0.14857557285944
F         5.55896151430757   -1.15129920890230    0.97423653090872
C         2.82261869414876   -2.06672465724373    3.73800168353846
F         3.78081960155351   -2.80740754388302    3.36114827219401
F         3.35799907749238   -1.14562209968914    4.53865557086881
F         2.13510394306358   -2.87492032247837    4.52158841474541
C         2.84923589120164    3.33778139446565   -2.64114681114018
F         2.23409009519977    4.51162556644861   -2.75454648508838
F         3.10877767525195    2.89968036599856   -3.86764743617859
F         4.02076348843030    3.56266151534975   -2.04209080662544
C         2.77408282102438    2.04151976983615    3.75385384394255
F         3.78075559786210    2.91172183817264    3.29816359110056
F         2.09504348826104    2.88152454362345    4.51343724745313
F         3.25191972506560    1.22996672417233    4.63795609462673
C         4.26970497165362    0.95591889417810    2.61347343172810
F         4.59290360678972    2.33836663663181    2.68587836341726
F         5.36030547766092    0.54779330170866    2.03557996983851
F         4.38852148831221    0.43803034638773    3.78109590557627
C        -2.29799183044595    3.74727549059812   -2.63377691045677
F        -3.60202641011993    3.51848298396196   -2.75436950317456
F        -1.80215110319634    3.88533977670000   -3.84843286715132
F        -2.14694078257740    4.92687608375540   -2.03758492193657
C        -4.93965251538099    1.03792970428806    0.87063343730637
F        -5.36346927024045    0.45153169591310    1.98863055729060
F        -5.71209455837468    0.61072587971605   -0.12156621169720
F        -5.14899548135570    2.34491653753974    1.00567363695471
C        -1.42772926994734    1.03215006568559   -4.81141502201490
F        -0.61996712568378    0.44524032135034   -5.68753032445726
F        -2.66408406557549    0.60811651593493   -5.05455271443712
F        -1.39510007338988    2.32095303836748   -5.08183228461864
C        -2.85446274498145   -3.34339993830392    2.62633158043897
F        -2.23354478284828   -4.51108233220303    2.75580358876245
F        -4.02230222268187   -3.56451817834157    2.03886963359726
F        -3.13793710281756   -2.91227719783049    3.85124793375075
108
 energy: -323.423275992387 gnorm: 1.071142187076 xtb: 6.4.1 (a3dbbd7)
C        -1.26844002541877    0.02956657732326    3.38158732823761
C        -0.36751826001046   -1.19777137734526    3.36202299444257
C         0.99040220572999   -0.67101039347356    3.31584115738745
C         0.93573533082697    0.69024671877191    3.30882381840923
C        -0.35983883868567    1.20458421888042    3.30317443660259
C         2.28756722182350   -2.60127601372541    0.59541670597986
C         3.26235039767952   -1.46524855129161    0.60182688477329
C         2.95010623592823   -0.70687955906256    1.80956668307106
C         2.00805362790430   -1.46702133949208    2.63748440441859
C         1.56823305934960   -2.61441767248383    1.77874750731204
C         3.17897120594751    1.44782832457034    0.55003143762113
C         2.32711839967559    2.58391335598921    0.59168007545044
C         1.56072704889944    2.62731004105380    1.79636555745225
C         1.97252643666092    1.47310064163052    2.63249933644201
C         2.98622809653032    0.70120840318766    1.81351936174395
C        -0.38241296427072    3.48127710066304    0.60099520576939
C        -1.73902782514915    3.03292439889247    0.60944286214560
C        -1.97226286063364    2.31666364085071    1.83622407800171
C        -0.75147656713827    2.31935046181071    2.57775289441839
C         0.23601969035467    3.02959637104505    1.80895096415151
C        -3.51128642114767    0.73957706081715    0.61812941339507
C        -3.38118443277687   -0.75343654702905    0.60079868190086
C        -2.80959770204882   -1.11661580604542    1.77808900156528
C        -2.45774862672516    0.01942157831884    2.52847737132898
C        -2.76257755802721    1.17221435361491    1.83992919177776
C        -1.70967480109843   -3.01885766575210    0.55648226222321
C        -0.40656867447666   -3.43940607892246    0.62432756798587
C         0.23140861824837   -3.00855400011269    1.80929492130399
C        -0.71573912740221   -2.33332062961682    2.55850293642376
C        -2.02836762080750   -2.37137394955769    1.87059148023936
C        -0.25607920416237   -2.98646604203033   -1.85116855019957
C         0.74528590680548   -2.30802979202684   -2.57839186437978
C         1.97554319186736   -2.30583734290561   -1.81720289657954
C         1.76385112524166   -2.99545551946324   -0.60490208847548
C         0.38024382591280   -3.57246550928115   -0.62359432018652
C         2.81334598494896   -1.16296659216825   -1.82015081857236
C         2.43404755451024    0.01146492719324   -2.58147091844889
C         2.80876634045633    1.11464903810848   -1.82834289398108
C         3.39655114522711    0.71140964683746   -0.61267277181397
C         3.40270014761560   -0.70275723074860   -0.64884324311504
C         2.02972358538288    2.37494515538602   -1.87391336181673
C         0.70706494590321    2.28644218372419   -2.56580555937374
C        -0.18952335647814    3.00782214443604   -1.81344446699791
C         0.38038738512592    3.45666081872136   -0.59121088255231
C         1.71983345012339    3.03843128033664   -0.56902556778387
C        -1.63118307387618    2.66623973256401   -1.87275668841378
C        -1.98930127570075    1.38968826131345   -2.54591058279050
C        -2.92673741772570    0.70888715262887   -1.82629221770218
C        -3.14850427069258    1.45294537889192   -0.62621238174409
C        -2.34664074283238    2.55571561688644   -0.55973270573760
C        -2.96236175579130   -0.72021125041349   -1.82474363663013
C        -1.96236302731101   -1.42557713998170   -2.58211330525098
C        -1.58051355010572   -2.59213972712826   -1.83015342302444
C        -2.34477740241468   -2.59687007965536   -0.60967246019183
C        -3.18476290815963   -1.43480939210912   -0.61496618211049
C        -0.97722211213593   -0.76316694103768   -3.29329496220293
C        -1.01465764206442    0.72836916427146   -3.41831010038192
C         0.41447657887021    1.15855493616514   -3.30100437977701
C         1.21984450043170    0.00975745225561   -3.32327956366597
C         0.37243090918315   -1.16347316249891   -3.32344789972745
C        -1.88969849337945    0.03407930362030    4.71101366739092
F        -0.84484195927644    0.23822507876656    5.79804182083770
F        -2.70774948698838   -0.86131414040988    5.08155786890203
F        -2.52220238477496    1.12146016914294    5.04576495112131
C        -0.55232043456845   -1.80740147026089    4.71004975753633
F        -0.02856603741381   -0.86463659922092    5.81574413408642
F        -1.63942618094830   -2.28972679592341    5.12596852593311
F         0.22341199241990   -2.75013663319776    5.06940206961089
C         0.54130474177594   -5.03297327484218   -0.87577023273486
F         1.23078721479737   -5.24507418392008   -1.99224805019911
F        -0.64233374790037   -5.62526763301034   -1.00605322458719
F         1.18667548869160   -5.62510920929131    0.12486166035671
C         4.61936602600407   -2.07005433087674    0.82533265392521
F         4.74935099966954   -2.82715439520210    1.81744032937956
F         4.98533693450618   -2.86925354755277   -0.16281893250413
F         5.56976880508348   -1.16314307875433    0.95910622474097
C         2.82063803971117   -2.07222347151620    3.74448081446086
F         3.75965443852909   -2.82405045404560    3.43112726774091
F         3.34698043813650   -1.15226688738723    4.55718558678964
F         2.14854831182967   -2.88273958262554    4.52770797232943
C         2.85385772664537    3.34503352046496   -2.64919001914582
F         2.23466905947631    4.51716523977518   -2.75607533511815
F         3.11072309163705    2.89991890072331   -3.87142660065011
F         4.02553068285480    3.56486548745895   -2.04048429448528
C         2.71672798865104    2.02033467926938    3.78647759186144
F         3.73415605413834    3.01950109481722    3.35356172473184
F         2.07618247799815    2.89485340299177    4.51778835903392
F         3.20713498684361    1.26011087021153    4.69423558250769
C         4.27120235531329    0.87427160173548    2.59710071871881
F         4.72239941199290    2.35480800097463    2.62410979562003
F         5.37075266283614    0.56536335977623    2.02613487492577
F         4.46287692266978    0.41216596393220    3.76034348877230
C        -2.30568389385806    3.75660812425776   -2.63852341060361
F        -3.60800114260423    3.51973280089307   -2.75594369200802
F        -1.80483264654488    3.90666977745719   -3.84007524547168
F        -2.14727170747082    4.93246777988990   -2.03492896807491
C        -4.95134778382764    1.03972839305609    0.87190593046326
F        -5.36759044343536    0.45074820843326    1.99305129136830
F        -5.71526654232646    0.61015413714726   -0.12322376730308
F        -5.15109473916276    2.34863865598413    1.00688094518583
C        -1.43038947701899    1.03236371923337   -4.82410340649555
F        -0.61792752058801    0.44265137468307   -5.69298644146124
F        -2.66810536910603    0.60666827190179   -5.05603254166174
F        -1.39020185199092    2.30902939767667   -5.09955332132936
C        -2.86228564869653   -3.35513110654648    2.62559917707729
F        -2.23285064970962   -4.51623157016153    2.75835308785425
F        -4.02757669538247   -3.56667694187500    2.03728057261343
F        -3.15735566839016   -2.91889991951146    3.84444129477096
108
 energy: -323.856453219051 gnorm: 0.550367314058 xtb: 6.4.1 (a3dbbd7)
C        -1.28291818109422    0.03520457933096    3.41587781826791
C        -0.37033758496547   -1.20774653846808    3.39941834791007
C         0.98324578905136   -0.64879344793439    3.29808832188279
C         0.92065302032155    0.67434245710624    3.29232467418681
C        -0.36061590895114    1.21320769673623    3.28750114303816
C         2.27147292269540   -2.60036129589675    0.59740786406720
C         3.28598083711110   -1.48081107432147    0.60638209235645
C         2.94006342927103   -0.71200367212880    1.80022424128928
C         2.02473510344312   -1.48207872172602    2.65483225879051
C         1.56650550332915   -2.61683034349562    1.76420397631123