62
 energy: -137.549826558051 gnorm: 0.036880988280 xtb: 6.4.1 (a3dbbd7)
C        -1.30139022053660    0.01493896468243    3.53648964924747
C        -0.35812758083827   -1.14407233093811    3.29413559906684
C         0.95174749156758   -0.71543131734704    3.27142161520706
C         0.97855833782505    0.71944210664705    3.27690972961395
C        -0.37647429106646    1.17769233159359    3.31070594115213
C         2.30676081597608   -2.56327020833334    0.57491153456689
C         3.15411691810253   -1.39954042994099    0.57230136038125
C         2.93762723962914   -0.70196466151417    1.79604237125870
C         2.08445950997906   -1.51869728946604    2.72973798604117
C         1.58092122856114   -2.58920209514094    1.80072891055703
C         3.16544568640033    1.38939897836448    0.56538543087161
C         2.32650228001438    2.55485487522594    0.57173354532010
C         1.56696603325293    2.55888556483417    1.79463540258068
C         1.93408433461713    1.40924348746741    2.54702797647152
C         2.92742640423709    0.66639122457295    1.78996587299988
C        -0.36205673283098    3.43310822429562    0.58809750966978
C        -1.73962576249421    2.99850139369755    0.58497636688916
C        -1.97587486445814    2.29155406742559    1.80359122920662
C        -0.74030168118741    2.27520002301750    2.57980575523039
C         0.24583593851595    2.98406685473306    1.80410172754584
C        -3.39766879865349    0.72493354543306    0.56859684320433
C        -3.38399751543440   -0.70739405526942    0.57281471170150
C        -2.76280262145257   -1.13334580314791    1.82003482539115
C        -2.41491831062888    0.00155268535973    2.54851170239106
C        -2.78333296171036    1.16688214757709    1.80685749892053
C        -1.71044206135523   -2.98327319700737    0.58577441464137
C        -0.34046203699543   -3.42127437085038    0.57737805574888
C         0.27415669803142   -2.98836020071854    1.80276221387142
C        -0.74198552786731   -2.28322950017743    2.57388297497809
C        -1.93281263644703   -2.27879979508591    1.82355152711381
C        -0.24343079164246   -2.99893853002437   -1.84140274635628
C         0.74008378077201   -2.27947975780445   -2.60336355437500
C         1.96026112127638   -2.27520244913427   -1.83562986574113
C         1.72608008199666   -2.98663345342270   -0.61376062540194
C         0.36594301178049   -3.42871282317339   -0.61206075525469
C         2.77317303845429   -1.15387092091892   -1.83562848788156
C         2.40304166001499    0.00729170724285   -2.60835665605260
C         2.78042453369018    1.16605175007272   -1.84563001828692
C         3.38818410480297    0.71859558076287   -0.62135207657384
C         3.37766934916273   -0.71247750940491   -0.61477902943305
C         1.96586862035248    2.28700839932988   -1.83404320879926
C         0.74027764245656    2.28754262681331   -2.58364366467038
C        -0.24630326402176    3.00184778232733   -1.82200311136210
C         0.36200283105692    3.43332338887503   -0.59381525265064
C         1.73229382938827    2.98941495643633   -0.60074555550014
C        -1.56652291827845    2.57939232657020   -1.82061009760860
C        -1.94561573516361    1.41560816743727   -2.58125180331712
C        -2.94083199240952    0.69881591333464   -1.82887859040640
C        -3.17447835354934    1.41635229116769   -0.60450559709229
C        -2.32454518493974    2.58150639156393   -0.60269076969116
C        -2.93450063391761   -0.68998985363280   -1.82168419817801
C        -1.94474989543587   -1.40941707818781   -2.57891926649790
C        -1.56133029367514   -2.57149047175326   -1.82239591056116
C        -2.30204470597689   -2.56702225237364   -0.58975781375136
C        -3.16057450592887   -1.40062475598871   -0.59436552739195
C        -0.99470406201120   -0.71593530253272   -3.30920712060726
C        -0.99392565395982    0.72434874762786   -3.30824492745175
C         0.37528326951163    1.16916706106117   -3.31828106245785
C         1.22060016388681    0.00772812720502   -3.32668614595698
C         0.37379607931098   -1.15869901691604   -3.32567548562124
Cl       -2.02830544802444   -0.00241775558980    5.20741081899288
Cl        3.06971792538006   -2.20832630822162    4.11017286313412
62
 energy: -137.552267940415 gnorm: 0.015183117549 xtb: 6.4.1 (a3dbbd7)
C        -1.29762730625929    0.01140013369302    3.52690281509896
C        -0.35765570614630   -1.15634325595804    3.29989808021944
C         0.95145511598431   -0.71574033360869    3.27020708069447
C         0.97441240629331    0.72350760505685    3.26957710272084
C        -0.37911210172290    1.18614097979553    3.30570518510430
C         2.31347751598506   -2.57198633268652    0.57498915170125
C         3.15751457388421   -1.40270803362009    0.57578699693900
C         2.94552964741150   -0.69585187618195    1.79799668209517
C         2.08287174638934   -1.51852038001170    2.72397009532476
C         1.57791410972998   -2.59793811164891    1.79810398932449
C         3.16709958146146    1.40011798034747    0.57112523970570
C         2.32472911855892    2.56842146435105    0.57556401502838
C         1.56899990527723    2.57288119571437    1.80392626014619
C         1.93993270689307    1.42095112982858    2.55689884033210
C         2.93101145173395    0.67694799104831    1.79310665124403
C        -0.36566519551749    3.44392873062940    0.58722685600048
C        -1.74360531012923    3.00671209712962    0.58529753797609
C        -1.98633830701929    2.29941193548712    1.80538431925625
C        -0.74377531820581    2.28602033977890    2.57170194381438
C         0.24391126105270    3.00316616362523    1.80701059148928
C        -3.40695486162789    0.73003141415224    0.57082607700946
C        -3.39233228308948   -0.70536395669923    0.57625040553425
C        -2.76602043551182   -1.13215183293633    1.81922275993005
C        -2.42013772290514    0.00309127957912    2.54676514140422
C        -2.78943433372901    1.16991609591881    1.80425191150455
C        -1.71535644249169   -2.99274765014323    0.58380792459531
C        -0.34775555208553   -3.44308372404226    0.57353238187719
C         0.26652160630448   -2.99913262120577    1.79459698334366
C        -0.74830003659468   -2.29547861716457    2.57378222318791
C        -1.94083544881437   -2.28583079184587    1.82552382801707
C        -0.24389503935464   -3.01067467418414   -1.83945625858420
C         0.74363127147867   -2.28779895893848   -2.59884402033197
C         1.97069402713201   -2.28697074074142   -1.83962909758225
C         1.73313596391323   -3.00234591601381   -0.61413950137028
C         0.36971057947715   -3.45090865346902   -0.61444341421371
C         2.78365147215052   -1.16371396432471   -1.83744823893564
C         2.40716940591810    0.00390983734008   -2.59997656383712
C         2.78713155963944    1.16666229567525   -1.84101609312093
C         3.39616414775699    0.71868731673931   -0.61559171990267
C         3.38939207719503   -0.71656837631151   -0.61267379001978
C         1.96824344042461    2.28948495296065   -1.83243816925519
C         0.74241838246173    2.29039120085325   -2.58439002567804
C        -0.24861139346624    3.00926418244904   -1.82206407187175
C         0.36180948030933    3.44710483294128   -0.59720475288970
C         1.73303643851274    3.00116627871267   -0.60102824598715
C        -1.57205885081452    2.58514047037789   -1.82335665048936
C        -1.95023352821703    1.41951309417747   -2.58498287906377
C        -2.94582322688951    0.70185765003417   -1.83045364761572
C        -3.18322345454688    1.42337518264589   -0.60712304748052
C        -2.33216586923552    2.58811247415295   -0.60465784708740
C        -2.93936128714484   -0.68795475354189   -1.82248712402805
C        -1.94696330484099   -1.41035003822474   -2.57894855093018
C        -1.56368549885326   -2.57548796374674   -1.82277660069740
C        -2.30797558385459   -2.57120660583236   -0.59190973727914
C        -3.16620811541781   -1.39977148497428   -0.59413905960335
C        -0.99461558118962   -0.71686477953392   -3.31152727256291
C        -0.99522852238407    0.72516841072410   -3.31162193614250
C         0.37652326643263    1.16928449526728   -3.31761706003356
C         1.22266093636281    0.00500328681676   -3.32266944327158
C         0.37558620491254   -1.16267849340739   -3.32170319284591
Cl       -1.97433695097550   -0.00987833439673    5.21818495178599
Cl        3.06412608511063   -2.21717304387105    4.10027902934314
62
 energy: -137.552570994578 gnorm: 0.005079469620 xtb: 6.4.1 (a3dbbd7)
C        -1.29893616214323    0.01063589809942    3.52384241437527
C        -0.35742423499979   -1.15798224535162    3.29813178366984
C         0.95073145063475   -0.71430708591496    3.26876571220168
C         0.97105321589291    0.72500500748687    3.26337268721026
C        -0.38067762256888    1.18871545534637    3.30147940224439
C         2.31540517196431   -2.57411224448538    0.57496828142006
C         3.15739524532490   -1.40333177480534    0.57729940129783
C         2.94749358629954   -0.69369936153170    1.79832510836373
C         2.08163022792270   -1.51799181339935    2.72391952633690
C         1.57560542110727   -2.59947308960740    1.79692294332632
C         3.16650042575562    1.40354641177096    0.57366364512730
C         2.32254111850465    2.57291852544325    0.57753798804532
C         1.56957400382895    2.57687893130247    1.80858360666069
C         1.94351780840220    1.42583869071752    2.56266462880526
C         2.93095028498047    0.68033489300535    1.79318431528538
C        -0.36754951351643    3.44722794730064    0.58651442497865
C        -1.74441559872703    3.00933960441375    0.58460993872496
C        -1.99003922705937    2.30143497364342    1.80546667110033
C        -0.74496960950057    2.28991558772120    2.56696477939173
C         0.24268840309744    3.01028178969172    1.80801840519489
C        -3.40976954815773    0.73141964852144    0.57152938454302
C        -3.39526254567322   -0.70532048555760    0.57727467998251
C        -2.76709635070145   -1.13152229564058    1.81834246165853
C        -2.42490681631316    0.00300456275235    2.54819110723425
C        -2.79067299219651    1.16975332109859    1.80144005372357
C        -1.71670987485909   -2.99670817771189    0.58290376476608
C        -0.35069810261025   -3.45052874388551    0.57240997649996
C         0.26351631119896   -3.00238487152279    1.79091168005788
C        -0.75057367638481   -2.29720501748791    2.57080243803168
C        -1.94437498078051   -2.28858511643186    1.82647781491628
C        -0.24319191735953   -3.01484917354158   -1.83785237194202
C         0.74512401496033   -2.29026819637456   -2.59693081475350
C         1.97388180481139   -2.28988543349063   -1.84111576085860
C         1.73642634368064   -3.00888603310731   -0.61389032252280
C         0.37246747057955   -3.45877558088659   -0.61509942147664
C         2.78622495083865   -1.16639498115922   -1.83787680682552
C         2.40772212747812    0.00315479132680   -2.59571980786039
C         2.78843485194563    1.16646394746862   -1.83766313810758
C         3.39909296967934    0.71780812411251   -0.61254365543901
C         3.39492592795759   -0.71789381788223   -0.61141760763439
C         1.96780640804313    2.28919380066103   -1.83051110232120
C         0.74303577908479    2.29057657291910   -2.58373056092683
C        -0.25008496845795    3.01226604328600   -1.82145522740838
C         0.36136203196075    3.45278154840219   -0.59897425997445
C         1.73265509719961    3.00520477044557   -0.60039793881356
C        -1.57407819321709    2.58702272418005   -1.82514793607357
C        -1.95159695361544    1.42075369678225   -2.58685495108330
C        -2.94687752232854    0.70236712313289   -1.83133725155944
C        -3.18569580420258    1.42563588806836   -0.60884797618164
C        -2.33498714135949    2.58985654347632   -0.60609265110854
C        -2.94026646970603   -0.68741852972056   -1.82279473601092
C        -1.94635815686250   -1.41064069316685   -2.57838294310601
C        -1.56321702878161   -2.57628880533789   -1.82247618168603
C        -2.30908932729225   -2.57271836057043   -0.59278920169095
C        -3.16715718832209   -1.39937067163608   -0.59427957534107
C        -0.99410276296901   -0.71699047346098   -3.31221936662949
C        -0.99568040043444    0.72527036871773   -3.31308390340403
C         0.37665779056797    1.16919054570172   -3.31625456097477
C         1.22309692542507    0.00414494594856   -3.32070282227031
C         0.37645155626790   -1.16373897779185   -3.31959742275208
Cl       -1.94346718271677   -0.00764177575999    5.22903927409255
Cl        3.06113206553492   -2.22948065698608    4.09356701650654
62
 energy: -137.552596195678 gnorm: 0.001902100044 xtb: 6.4.1 (a3dbbd7)
C        -1.29960761594178    0.01063326486220    3.52310869401906
C        -0.35728029230754   -1.15774932037381    3.29697025344511
C         0.95049380331357   -0.71383658489920    3.26859477188605
C         0.96986502013850    0.72505888710895    3.26146903084986
C        -0.38087264947106    1.18893049672622    3.30042365755479
C         2.31500860558466   -2.57360656374658    0.57500742764694
C         3.15654819959424   -1.40290614733540    0.57778014941769
C         2.94759665922489   -0.69350793699517    1.79859171347909
C         2.08118627330152   -1.51785249640909    2.72475625611743
C         1.57474441155774   -2.59896797306562    1.79663347391322
C         3.16560685456965    1.40352884828304    0.57406712693604
C         2.32151633749874    2.57310028984139    0.57787832753339
C         1.56930501068440    2.57669350590259    1.80931028887279
C         1.94425548328025    1.42665361814886    2.56414831410179
C         2.93043484819915    0.68049780374066    1.79291935325498
C        -0.36798412108318    3.44715772213601    0.58618900929851
C        -1.74409235832915    3.00931669011406    0.58410441272896
C        -1.99022321666805    2.30135623905746    1.80537330573305
C        -0.74499636031795    2.29047995682892    2.56615468286891
C         0.24226658002722    3.01094331142739    1.80800376678222
C        -3.40921636590298    0.73139627669965    0.57157575410223
C        -3.39498477259461   -0.70553890540283    0.57718767997997
C        -2.76702755904762   -1.13131599288957    1.81810490246959
C        -2.42629824784573    0.00270442343164    2.54954783309600
C        -2.79022413862691    1.16934462700113    1.80055479321287
C        -1.71684565161662   -2.99735782289947    0.58266202977272
C        -0.35135669112550   -3.45079275970628    0.57238657377246
C         0.26313031135181   -3.00252767675126    1.79030733397592
C        -0.75084696237196   -2.29664542775456    2.56967845491515
C        -1.94502597211614   -2.28900992474162    1.82681128091125
C        -0.24293881799576   -3.01508080779127   -1.83741551473290
C         0.74525456327870   -2.29010371633520   -2.59666322431726
C         1.97364787796062   -2.28934609517415   -1.84111803220266
C         1.73652664740301   -3.00958608329857   -0.61351870083529
C         0.37296855511833   -3.45904793644564   -0.61512867430508
C         2.78571190842134   -1.16615071283170   -1.83763849374710
C         2.40729260773376    0.00324704016626   -2.59477795752383
C         2.78806248578178    1.16632880756221   -1.83679600237599
C         3.39911310660601    0.71734505671227   -0.61187344789049
C         3.39572725922827   -0.71768930573616   -0.61084183237204
C         1.96724334495214    2.28863254018040   -1.82988506274142
C         0.74314183255902    2.29011074151561   -2.58341088262681
C        -0.25037302173897    3.01257770721115   -1.82119102396563
C         0.36114040618235    3.45352132309991   -0.59946119475271
C         1.73233023960195    3.00537852765232   -0.60007391510283
C        -1.57405496169548    2.58702570427559   -1.82572762528886
C        -1.95142873982429    1.42074390237750   -2.58725159250510
C        -2.94652234876575    0.70218597322712   -1.83154436450982
C        -3.18525932767149    1.42565865264521   -0.60929190343572
C        -2.33509784990613    2.58962086874865   -0.60654089268284
C        -2.93993699821629   -0.68748990640406   -1.82288525823478
C        -1.94573014020596   -1.41071081843077   -2.57824902816879
C        -1.56275775943070   -2.57608156604979   -1.82240095047546
C        -2.30880602742630   -2.57279584936262   -0.59295851811268
C        -3.16663592610043   -1.39919052522291   -0.59445071576881
C        -0.99393688335867   -0.71698322655289   -3.31240630331801
C        -0.99567108926279    0.72512256937563   -3.31336607243430
C         0.37659236260856    1.16907717653497   -3.31585278039026
C         1.22300543146825    0.00404863702869   -3.32043117760786
C         0.37660196767752   -1.16363585237074   -3.31927029890245
Cl       -1.93546138263097   -0.00638787608997    5.23155477731146
Cl        3.06034817180152   -2.23297717981841    4.09165105040488
62
 energy: -137.552599758223 gnorm: 0.000718793326 xtb: 6.4.1 (a3dbbd7)
C        -1.30000943450045    0.01068085733761    3.52288006032226
C        -0.35715578055745   -1.15757082080114    3.29629813345831
C         0.95050657724713   -0.71374543070296    3.26868070846315
C         0.96925270021689    0.72484570253355    3.26059484530283
C        -0.38078006628749    1.18867571208528    3.29994169482137
C         2.31439927938313   -2.57279266915026    0.57507591003098
C         3.15590051697454   -1.40235916860589    0.57807839244477
C         2.94763879080112   -0.69362364208991    1.79892404154457
C         2.08122461665162   -1.51799696536459    2.72568544644986
C         1.57434358708083   -2.59832641165263    1.79648756375098
C         3.16494817677855    1.40307815398915    0.57408331943887
C         2.32091658836217    2.57270810265192    0.57789428671908
C         1.56895106600978    2.57610220000822    1.80926834626517
C         1.94439856465383    1.42686444652430    2.56466894336670
C         2.93008143906299    0.68027024218597    1.79269708610576
C        -0.36814000494261    3.44666384283107    0.58600723008885
C        -1.74371262129099    3.00894846645458    0.58371413794416
C        -1.99001408444658    2.30109673247098    1.80534591984862
C        -0.74491073976659    2.29051385959368    2.56610422075535
C         0.24205064206853    3.01069704812602    1.80791517797086
C        -3.40829054876550    0.73126380184541    0.57153315919141
C        -3.39424346952813   -0.70567813577875    0.57696497468061
C        -2.76680728048951   -1.13114634421943    1.81802724074090
C        -2.42684497101507    0.00247071311377    2.55072826798631
C        -2.78978271516233    1.16915187428083    1.80020422075233
C        -1.71682387524257   -2.99741721774130    0.58255291151984
C        -0.35162328228415   -3.45011405500298    0.57252097486941
C         0.26320855635055   -3.00228552500306    1.79028502661127
C        -0.75086798454981   -2.29606521335830    2.56924679654718
C        -1.94521880241223   -2.28903392091733    1.82707939478419
C        -0.24285913950145   -3.01478058244877   -1.83725681525239
C         0.74521105936494   -2.28964627164297   -2.59667284812350
C         1.97307762992535   -2.28853620556496   -1.84091749623721
C         1.73601608668823   -3.00928536590200   -0.61311997612224
C         0.37298307305582   -3.45826118962340   -0.61508864950489
C         2.78501904555242   -1.16566783228028   -1.83737694300488
C         2.40689351073496    0.00335096855468   -2.59450150852766
C         2.78767331895182    1.16629486423033   -1.83662039862988
C         3.39880434053225    0.71708144508845   -0.61172744614126
C         3.39575027114800   -0.71722430150384   -0.61042840460437
C         1.96686235238654    2.28820768667135   -1.82967092123434
C         0.74320225043886    2.28968388614983   -2.58328014277424
C        -0.25040977578596    3.01245198352318   -1.82102010568582
C         0.36100722815003    3.45346388557118   -0.59965098687071
C         1.73214381050274    3.00503038756695   -0.59988036717507
C        -1.57375445251829    2.58680693264983   -1.82601846930417
C        -1.95114359838142    1.42060333368744   -2.58736874047948
C        -2.94614460492282    0.70201281692051   -1.83161346512895
C        -3.18459245871816    1.42540815401550   -0.60944480788228
C        -2.33487426621728    2.58919575322571   -0.60670896560760
C        -2.93961517741326   -0.68763204352999   -1.82294605295454
C        -1.94533608174093   -1.41077407483023   -2.57826877454722
C        -1.56250549668461   -2.57584262002360   -1.82241712826309
C        -2.30846378862095   -2.57262451979518   -0.59297026210210
C        -3.16613935676479   -1.39905783507094   -0.59460810729377
C        -0.99394101583429   -0.71699403397466   -3.31256964962656
C        -0.99565416445596    0.72497953610806   -3.31346586532681
C         0.37653192017144    1.16899481342443   -3.31578575158745
C         1.22289180937937    0.00402350080193   -3.32053089182269
C         0.37663149161551   -1.16342793423508   -3.31932612952796
Cl       -1.93257213193304   -0.00594400518106    5.23200125724125
Cl        3.05988378760745   -2.23421916948788    4.09085142036254
62
 energy: -137.552600427809 gnorm: 0.000206233567 xtb: 6.4.1 (a3dbbd7)
C        -1.29990159112397    0.01069852969919    3.52305360286988
C        -0.35717917039916   -1.15767990582444    3.29653280652966
C         0.95056788172217   -0.71384587618651    3.26869714876693
C         0.96946102790394    0.72484530846288    3.26092010639452
C        -0.38074455850614    1.18865754506121    3.30008308677868
C         2.31452272814043   -2.57292884209560    0.57507386415611
C         3.15612020331340   -1.40243982171907    0.57800898133088
C         2.94768918005927   -0.69365159774569    1.79890937522368
C         2.08141466801803   -1.51812336158737    2.72562266478647
C         1.57451935321050   -2.59847950648391    1.79651552096801
C         3.16517024475874    1.40312452167412    0.57404308964727
C         2.32113261424112    2.57273736182005    0.57784102077334
C         1.56900971348756    2.57622137246833    1.80914600717793
C         1.94426693413128    1.42679025035270    2.56439216336213
C         2.93021359297953    0.68028771581898    1.79276217871221
C        -0.36807682435592    3.44673077255557    0.58607625099028
C        -1.74380820859925    3.00899998848001    0.58380005157047
C        -1.99005485365634    2.30114247257310    1.80537449154416
C        -0.74495387830145    2.29048724739042    2.56626245909741
C         0.24212250424215    3.01067524709229    1.80795722281896
C        -3.40846787995410    0.73129488235573    0.57152589598944
C        -3.39432658261580   -0.70562184488913    0.57699158603505
C        -2.76682769107762   -1.13116527590269    1.81805190043180
C        -2.42659789098105    0.00252853880457    2.55047728215169
C        -2.78994938618548    1.16927148487433    1.80035940779427
C        -1.71680609756794   -2.99733060178838    0.58259139171402
C        -0.35151794707790   -3.45017102381949    0.57251873126924
C         0.26326218882043   -3.00233699666732    1.79038771916528
C        -0.75086244531874   -2.29623455932412    2.56949935670881
C        -1.94513995291059   -2.28897743795255    1.82703892079467
C        -0.24290539070295   -3.01479543187875   -1.83734448839052
C         0.74522657660794   -2.28972064715121   -2.59671956115240
C         1.97319469311797   -2.28870352815984   -1.84093917460423
C         1.73600455930134   -3.00921483493313   -0.61317860471128
C         0.37290888646757   -3.45830523814666   -0.61510075161257
C         2.78519389234097   -1.16577343119891   -1.83743875302856
C         2.40701709814894    0.00330345216897   -2.59465732974180
C         2.78780271575869    1.16634082179753   -1.83681256169105
C         3.39886422147060    0.71718363950094   -0.61184471641872
C         3.39565844587386   -0.71725001929844   -0.61051859699762
C         1.96699067961174    2.28833645520451   -1.82980472011613
C         0.74319008445672    2.28979800910658   -2.58335429862613
C        -0.25037105227292    3.01241761949451   -1.82106161453340
C         0.36104809029962    3.45338225288038   -0.59956013764423
C         1.73222888068716    3.00505851452252   -0.59994103724847
C        -1.57379631809707    2.58684004742897   -1.82591951551998
C        -1.95121641276589    1.42062383818134   -2.58730865333706
C        -2.94626619795313    0.70206791925648   -1.83158991781205
C        -3.18476624754028    1.42543239222798   -0.60937640973425
C        -2.33491957154766    2.58928252864987   -0.60661649995669
C        -2.93972176245848   -0.68761646332414   -1.82294276076719
C        -1.94547904437526   -1.41077050833655   -2.57830764734046
C        -1.56261178450792   -2.57591373705794   -1.82243716424333
C        -2.30854631598605   -2.57262387173724   -0.59293171330559
C        -3.16629904232954   -1.39909458203509   -0.59458734543129
C        -0.99398643445100   -0.71700289123083   -3.31255670643185
C        -0.99567524509580    0.72501380841622   -3.31343162760193
C         0.37654813413483    1.16902433452218   -3.31587744968512
C         1.22292730962247    0.00402759173978   -3.32058572873320
C         0.37662529032405   -1.16346708983354   -3.31939449785822
Cl       -1.93380862892044   -0.00619876505934    5.23157858418130
Cl        3.05985493149551   -2.23364057447602    4.09113215357742
