62
 energy: -137.552600434201 gnorm: 0.000207515724 xtb: 6.4.1 (a3dbbd7)
C        -1.29990159112397    0.01069852969919    3.52305360286988
C        -0.35717917039916   -1.15767990582444    3.29653280652966
C         0.95056788172217   -0.71384587618651    3.26869714876693
C         0.96946102790394    0.72484530846288    3.26092010639452
C        -0.38074455850614    1.18865754506121    3.30008308677868
C         2.31452272814043   -2.57292884209560    0.57507386415611
C         3.15612020331340   -1.40243982171907    0.57800898133088
C         2.94768918005927   -0.69365159774569    1.79890937522368
C         2.08141466801803   -1.51812336158737    2.72562266478647
C         1.57451935321050   -2.59847950648391    1.79651552096801
C         3.16517024475874    1.40312452167412    0.57404308964727
C         2.32113261424112    2.57273736182005    0.57784102077334
C         1.56900971348756    2.57622137246833    1.80914600717793
C         1.94426693413128    1.42679025035270    2.56439216336213
C         2.93021359297953    0.68028771581898    1.79276217871221
C        -0.36807682435592    3.44673077255557    0.58607625099028
C        -1.74380820859925    3.00899998848001    0.58380005157047
C        -1.99005485365634    2.30114247257310    1.80537449154416
C        -0.74495387830145    2.29048724739042    2.56626245909741
C         0.24212250424215    3.01067524709229    1.80795722281896
C        -3.40846787995410    0.73129488235573    0.57152589598944
C        -3.39432658261580   -0.70562184488913    0.57699158603505
C        -2.76682769107762   -1.13116527590269    1.81805190043180
C        -2.42659789098105    0.00252853880457    2.55047728215169
C        -2.78994938618548    1.16927148487433    1.80035940779427
C        -1.71680609756794   -2.99733060178838    0.58259139171402
C        -0.35151794707790   -3.45017102381949    0.57251873126924
C         0.26326218882043   -3.00233699666732    1.79038771916528
C        -0.75086244531874   -2.29623455932412    2.56949935670881
C        -1.94513995291059   -2.28897743795255    1.82703892079467
C        -0.24290539070295   -3.01479543187875   -1.83734448839052
C         0.74522657660794   -2.28972064715121   -2.59671956115240
C         1.97319469311797   -2.28870352815984   -1.84093917460423
C         1.73600455930134   -3.00921483493313   -0.61317860471128
C         0.37290888646757   -3.45830523814666   -0.61510075161257
C         2.78519389234097   -1.16577343119891   -1.83743875302856
C         2.40701709814894    0.00330345216897   -2.59465732974180
C         2.78780271575869    1.16634082179753   -1.83681256169105
C         3.39886422147060    0.71718363950094   -0.61184471641872
C         3.39565844587386   -0.71725001929844   -0.61051859699762
C         1.96699067961174    2.28833645520451   -1.82980472011613
C         0.74319008445672    2.28979800910658   -2.58335429862613
C        -0.25037105227292    3.01241761949451   -1.82106161453340
C         0.36104809029962    3.45338225288038   -0.59956013764423
C         1.73222888068716    3.00505851452252   -0.59994103724847
C        -1.57379631809707    2.58684004742897   -1.82591951551998
C        -1.95121641276589    1.42062383818134   -2.58730865333706
C        -2.94626619795313    0.70206791925648   -1.83158991781205
C        -3.18476624754028    1.42543239222798   -0.60937640973425
C        -2.33491957154766    2.58928252864987   -0.60661649995669
C        -2.93972176245848   -0.68761646332414   -1.82294276076719
C        -1.94547904437526   -1.41077050833655   -2.57830764734046
C        -1.56261178450792   -2.57591373705794   -1.82243716424333
C        -2.30854631598605   -2.57262387173724   -0.59293171330559
C        -3.16629904232954   -1.39909458203509   -0.59458734543129
C        -0.99398643445100   -0.71700289123083   -3.31255670643185
C        -0.99567524509580    0.72501380841622   -3.31343162760193
C         0.37654813413483    1.16902433452218   -3.31587744968512
C         1.22292730962247    0.00402759173978   -3.32058572873320
C         0.37662529032405   -1.16346708983354   -3.31939449785822
Cl       -1.93380862892044   -0.00619876505934    5.23157858418130
Cl        3.05985493149551   -2.23364057447602    4.09113215357742
