 Entering Gaussian System, Link 0=g16
 Input=24_addons_bond.gjf
 Output=24_addons_bond.log
 Initial command:
 /home/mkliu/g16/l1.exe "/data/scratch/Gau-116695.inp" -scrdir="/data/scratch/"
 Entering Link 1 = /home/mkliu/g16/l1.exe PID=    116696.
  
 Copyright (c) 1988,1990,1992,1993,1995,1998,2003,2009,2016,
            Gaussian, Inc.  All Rights Reserved.
  
 This is part of the Gaussian(R) 16 program.  It is based on
 the Gaussian(R) 09 system (copyright 2009, Gaussian, Inc.),
 the Gaussian(R) 03 system (copyright 2003, Gaussian, Inc.),
 the Gaussian(R) 98 system (copyright 1998, Gaussian, Inc.),
 the Gaussian(R) 94 system (copyright 1995, Gaussian, Inc.),
 the Gaussian 92(TM) system (copyright 1992, Gaussian, Inc.),
 the Gaussian 90(TM) system (copyright 1990, Gaussian, Inc.),
 the Gaussian 88(TM) system (copyright 1988, Gaussian, Inc.),
 the Gaussian 86(TM) system (copyright 1986, Carnegie Mellon
 University), and the Gaussian 82(TM) system (copyright 1983,
 Carnegie Mellon University). Gaussian is a federally registered
 trademark of Gaussian, Inc.
  
 This software contains proprietary and confidential information,
 including trade secrets, belonging to Gaussian, Inc.
  
 This software is provided under written license and may be
 used, copied, transmitted, or stored only in accord with that
 written license.
  
 The following legend is applicable only to US Government
 contracts under FAR:
  
                    RESTRICTED RIGHTS LEGEND
  
 Use, reproduction and disclosure by the US Government is
 subject to restrictions as set forth in subparagraphs (a)
 and (c) of the Commercial Computer Software - Restricted
 Rights clause in FAR 52.227-19.
  
 Gaussian, Inc.
 340 Quinnipiac St., Bldg. 40, Wallingford CT 06492
  
  
 ---------------------------------------------------------------
 Warning -- This program may not be used in any manner that
 competes with the business of Gaussian, Inc. or will provide
 assistance to any competitor of Gaussian, Inc.  The licensee
 of this program is prohibited from giving any competitor of
 Gaussian, Inc. access to this program.  By using this program,
 the user acknowledges that Gaussian, Inc. is engaged in the
 business of creating and licensing software in the field of
 computational chemistry and represents and warrants to the
 licensee that it is not a competitor of Gaussian, Inc. and that
 it will not use this program in any manner prohibited above.
 ---------------------------------------------------------------
  

 Cite this work as:
 Gaussian 16, Revision A.03,
 M. J. Frisch, G. W. Trucks, H. B. Schlegel, G. E. Scuseria, 
 M. A. Robb, J. R. Cheeseman, G. Scalmani, V. Barone, 
 G. A. Petersson, H. Nakatsuji, X. Li, M. Caricato, A. V. Marenich, 
 J. Bloino, B. G. Janesko, R. Gomperts, B. Mennucci, H. P. Hratchian, 
 J. V. Ortiz, A. F. Izmaylov, J. L. Sonnenberg, D. Williams-Young, 
 F. Ding, F. Lipparini, F. Egidi, J. Goings, B. Peng, A. Petrone, 
 T. Henderson, D. Ranasinghe, V. G. Zakrzewski, J. Gao, N. Rega, 
 G. Zheng, W. Liang, M. Hada, M. Ehara, K. Toyota, R. Fukuda, 
 J. Hasegawa, M. Ishida, T. Nakajima, Y. Honda, O. Kitao, H. Nakai, 
 T. Vreven, K. Throssell, J. A. Montgomery, Jr., J. E. Peralta, 
 F. Ogliaro, M. J. Bearpark, J. J. Heyd, E. N. Brothers, K. N. Kudin, 
 V. N. Staroverov, T. A. Keith, R. Kobayashi, J. Normand, 
 K. Raghavachari, A. P. Rendell, J. C. Burant, S. S. Iyengar, 
 J. Tomasi, M. Cossi, J. M. Millam, M. Klene, C. Adamo, R. Cammi, 
 J. W. Ochterski, R. L. Martin, K. Morokuma, O. Farkas, 
 J. B. Foresman, and D. J. Fox, Gaussian, Inc., Wallingford CT, 2016.
 
 ******************************************
 Gaussian 16:  ES64L-G16RevA.03 25-Dec-2016
                24-May-2022 
 ******************************************
 %mem=10GB
 %chk=24_addons_bond.chk
 %nprocshared=24
 Will use up to   24 processors via shared memory.
 ----------------------------------------------------------------------
 #P opt b3lyp/6-31G(d, p) empiricaldispersion=GD3 scrf=SMD Guess=TCheck
  Geom=allcheck
 ----------------------------------------------------------------------
 1/18=20,19=15,26=3,29=7,38=1/1,3;
 2/9=110,12=2,40=1/2;
 3/5=1,6=6,7=101,11=2,14=-4,25=1,30=1,70=32201,71=1,74=-5,116=-2,124=31/1,2,3;
 4/5=101/1;
 5/5=2,38=6/2;
 6/7=2,8=2,9=2,10=2,28=1/1;
 7//1,2,3,16;
 1/18=20,19=15,26=3/3(2);
 2/9=110/2;
 99//99;
 2/9=110/2;
 3/5=1,6=6,7=101,11=2,14=-2,25=1,30=1,70=32205,71=1,74=-5,124=31/1,2,3;
 4/5=5,16=3,69=1/1;
 5/5=2,38=5/2;
 7//1,2,3,16;
 1/18=20,19=15,26=3/3(-5);
 2/9=110/2;
 6/7=2,8=2,9=2,10=2,19=2,28=1/1;
 99/9=1/99;
 Leave Link    1 at Tue May 24 00:07:04 2022, MaxMem=  1342177280 cpu:               2.6 elap:               0.2
 (Enter /home/mkliu/g16/l101.exe)
 Structure from the checkpoint file:  "24_addons_bond.chk"
 -----
 force
 -----
 Charge =  0 Multiplicity = 1
 Z-Matrix found in chk file.
 C,0,0.2552491605,-0.1121062753,-3.4342923036
 C,0,0.3569158643,1.4094985517,-3.4900893369
 C,0,-1.0031987806,1.7799507661,-2.9205318261
 C,0,-0.9942609761,-0.529777755,-3.2719317888
 C,0,-1.9762890093,0.6345661723,-3.1706306772
 C,0,-1.3728398721,-1.9538497049,-2.9677764306
 C,0,-0.1491321042,-2.6619332779,-2.4055603437
 C,0,1.4635116434,-1.0031391285,-3.3970787706
 C,0,1.0944123815,-2.2483013643,-2.5881169731
 C,0,2.4618632073,-0.3581368083,-2.4379694007
 C,0,1.4050336014,1.8513481688,-2.516588965
 C,0,2.7272235074,1.1220528319,-2.3595192418
 C,0,1.2285523723,2.7839339801,-1.58911594
 C,0,-1.1881433356,2.7075572726,-1.9923198636
 C,0,-0.0604481041,3.5237181603,-1.3755866062
 C,0,-2.3946900684,2.7340880079,-1.0538291601
 C,0,-2.7897837603,0.431406138,-1.9314788102
 C,0,-2.9768768964,1.3557137335,-1.0002777244
 C,0,-2.2515495094,-1.9469902651,-1.7274153337
 C,0,-3.3318440338,-0.9308975889,-1.5154431074
 C,0,-0.5745556309,-3.5505458125,-1.237286112
 C,0,-1.8372227192,-2.807832411,-0.8067785382
 C,0,0.4417048817,-3.4179336414,-0.1423951673
 C,0,2.2449561167,-2.6119988984,-1.6564125868
 C,0,2.8255565926,-1.2155869381,-1.47734355
 C,0,1.69947511,-3.034010201,-0.3224955781
 C,0,3.2658071433,-0.7500680301,-0.2000673234
 C,0,3.0694674604,1.5416642282,-0.9333533669
 C,0,2.4064529541,2.8727046629,-0.6164218431
 C,0,3.4008633333,0.670516105,0.0198826679
 C,0,1.846415946,2.7778639429,0.775281784
 C,0,-0.4277273117,3.3890952657,0.0951614079
 C,0,-1.67753989,2.9802768335,0.2689146232
 C,0,0.5850093245,3.530025331,1.1920926158
 C,0,-2.2532575994,2.5719902378,1.590848493
 C,0,-3.6823578051,0.7999676023,0.2282949767
 C,0,-3.4896071362,-0.6903465031,-0.0202562756
 C,0,-2.8703193942,1.1866616261,1.430626399
 C,0,-2.3945088661,-2.8728636712,0.5823634261
 C,0,-3.0667636378,-1.5404493305,0.9025199284
 C,0,0.0695207323,-3.5324770165,1.3290227501
 C,0,-1.2196616968,-2.7954274525,1.5501545863
 C,0,2.4085320667,-2.7617758001,1.0060135747
 C,0,2.981994461,-1.383083811,0.9507771563
 C,0,1.199485519,-2.7115022777,1.9300174703
 C,0,3.3835680307,0.9460844471,1.5255212187
 C,0,2.2431679743,1.911000456,1.70212054
 C,0,3.1713998865,-0.505300608,2.1558375199
 C,0,0.1426957816,2.6466549412,2.3566365263
 C,0,-1.0993202031,2.2202711786,2.5242774773
 C,0,1.3574412942,1.9338864456,2.9287083813
 C,0,-2.454822297,0.3338063445,2.3592498663
 C,0,-2.7305342764,-1.1430206374,2.3333848817
 C,0,-1.3998326652,-1.8732536779,2.4865748554
 C,0,-1.4592874242,0.9656799555,3.317013935
 C,0,1.0286387503,-1.7764467604,2.8476755178
 C,0,1.9961044426,-0.6420644556,3.1898265115
 C,0,0.997041061,0.5059024983,3.1926852467
 C,0,-0.3345528218,-1.4345669276,3.4415715173
 C,0,-0.2482387914,0.0830311903,3.3723868736
 O,0,0.6461881873,1.8817486175,-4.7880814811
 H,0,-0.1797386325,1.913063388,-5.2863218909
 O,0,-0.0438464254,4.8525721674,-1.8197200674
 H,0,0.58779251,5.3398937861,-1.2721517254
 O,0,-3.3911614773,3.6688295654,-1.3543629652
 H,0,-2.9823209591,4.5416868008,-1.4127440056
 O,0,3.1787314449,4.029004862,-0.7715439636
 H,0,3.6756802858,3.9519318954,-1.595880086
 O,0,0.7941230914,4.8829183702,1.4793574533
 H,0,1.4401643908,4.9489799208,2.1937730441
 O,0,-3.153999527,3.5361785632,2.0641753635
 H,0,-3.4496541689,3.2703552336,2.9443209785
 O,0,-5.0340958115,1.1663799136,0.2942717283
 H,0,-5.0793438887,2.132196262,0.3260805176
 O,0,-2.7387561614,0.8300364559,-4.3374363178
 H,0,-3.5381480312,0.2923824008,-4.2830523836
 O,0,3.7094888073,1.5796946816,-3.2623878112
 H,0,3.340398928,1.5609516566,-4.1547285903
 O,0,1.9059244415,2.6138435667,4.0278049292
 H,0,2.7745442722,2.2370934454,4.2195996234
 O,0,-2.0544127629,1.1973506369,4.5713432434
 H,0,-1.3846821849,1.550479551,5.1695662543
 O,0,-4.5007784313,-1.2841413484,-2.2220261414
 H,0,-5.2489284247,-0.8399698141,-1.8039708082
 O,0,4.5308262423,1.5546304679,2.0407695841
 H,0,5.2174227981,0.8783688914,2.1371869319
 O,0,-3.7044568606,-1.5665581812,3.2469781867
 H,0,-3.4209231087,-1.2999977663,4.1319746378
 O,0,4.3809526819,-0.8856264125,2.8034542266
 H,0,4.542268714,-1.8182924443,2.5991459828
 O,0,2.5030395615,-0.7794366954,4.4972901655
 H,0,3.467003914,-0.8995418423,4.4231066323
 O,0,-0.5676854749,-1.9275648277,4.7321151941
 H,0,0.2231561027,-1.7596767291,5.2615923707
 O,0,-3.1990114742,-4.0067941084,0.7542699504
 H,0,-3.6493545128,-3.9278777229,1.6054424283
 O,0,-1.9499641483,-2.6510646,-4.0428412176
 H,0,-2.8737455153,-2.3804025277,-4.1239637537
 O,0,3.4043521249,-3.6755993499,1.3871311156
 H,0,3.0367010638,-4.5666674957,1.3347876731
 O,0,0.0643403523,-4.8555142003,1.7924521687
 H,0,-0.5812035667,-5.3500459016,1.2687686691
 O,0,-0.7791382638,-4.9023970682,-1.5365489806
 H,0,-1.3631224956,-4.9628961292,-2.3028572377
 O,0,1.9818958899,-1.3162966111,-4.6659896352
 H,0,1.8517917167,-0.5626454901,-5.2542318379
 O,0,3.1475848728,-3.5537387127,-2.159259936
 H,0,3.361786952,-3.3120727803,-3.069531922
 Recover connectivity data from disk.
 ITRead=  0  0  0  0  0  0  0  0  0  0  0  0  0  0  0  0  0  0  0  0
 ITRead=  0  0  0  0  0  0  0  0  0  0  0  0  0  0  0  0  0  0  0  0
 ITRead=  0  0  0  0  0  0  0  0  0  0  0  0  0  0  0  0  0  0  0  0
 ITRead=  0  0  0  0  0  0  0  0  0  0  0  0  0  0  0  0  0  0  0  0
 ITRead=  0  0  0  0  0  0  0  0  0  0  0  0  0  0  0  0  0  0  0  0
 ITRead=  0  0  0  0  0  0  0  0
 MicOpt= -1 -1 -1 -1 -1 -1 -1 -1 -1 -1 -1 -1 -1 -1 -1 -1 -1 -1 -1 -1
 MicOpt= -1 -1 -1 -1 -1 -1 -1 -1 -1 -1 -1 -1 -1 -1 -1 -1 -1 -1 -1 -1
 MicOpt= -1 -1 -1 -1 -1 -1 -1 -1 -1 -1 -1 -1 -1 -1 -1 -1 -1 -1 -1 -1
 MicOpt= -1 -1 -1 -1 -1 -1 -1 -1 -1 -1 -1 -1 -1 -1 -1 -1 -1 -1 -1 -1
 MicOpt= -1 -1 -1 -1 -1 -1 -1 -1 -1 -1 -1 -1 -1 -1 -1 -1 -1 -1 -1 -1
 MicOpt= -1 -1 -1 -1 -1 -1 -1 -1
 NAtoms=    108 NQM=      108 NQMF=       0 NMMI=      0 NMMIF=      0
                NMic=       0 NMicF=      0.
                    Isotopes and Nuclear Properties:
 (Nuclear quadrupole moments (NQMom) in fm**2, nuclear magnetic moments (NMagM)
  in nuclear magnetons)

  Atom         1           2           3           4           5           6           7           8           9          10
 IAtWgt=          12          12          12          12          12          12          12          12          12          12
 AtmWgt=  12.0000000  12.0000000  12.0000000  12.0000000  12.0000000  12.0000000  12.0000000  12.0000000  12.0000000  12.0000000
 NucSpn=           0           0           0           0           0           0           0           0           0           0
 AtZEff=   3.6000000   3.6000000   3.6000000   3.6000000   3.6000000   3.6000000   3.6000000   3.6000000   3.6000000   3.6000000
 NQMom=    0.0000000   0.0000000   0.0000000   0.0000000   0.0000000   0.0000000   0.0000000   0.0000000   0.0000000   0.0000000
 NMagM=    0.0000000   0.0000000   0.0000000   0.0000000   0.0000000   0.0000000   0.0000000   0.0000000   0.0000000   0.0000000
 AtZNuc=   6.0000000   6.0000000   6.0000000   6.0000000   6.0000000   6.0000000   6.0000000   6.0000000   6.0000000   6.0000000

  Atom        11          12          13          14          15          16          17          18          19          20
 IAtWgt=          12          12          12          12          12          12          12          12          12          12
 AtmWgt=  12.0000000  12.0000000  12.0000000  12.0000000  12.0000000  12.0000000  12.0000000  12.0000000  12.0000000  12.0000000
 NucSpn=           0           0           0           0           0           0           0           0           0           0
 AtZEff=   3.6000000   3.6000000   3.6000000   3.6000000   3.6000000   3.6000000   3.6000000   3.6000000   3.6000000   3.6000000
 NQMom=    0.0000000   0.0000000   0.0000000   0.0000000   0.0000000   0.0000000   0.0000000   0.0000000   0.0000000   0.0000000
 NMagM=    0.0000000   0.0000000   0.0000000   0.0000000   0.0000000   0.0000000   0.0000000   0.0000000   0.0000000   0.0000000
 AtZNuc=   6.0000000   6.0000000   6.0000000   6.0000000   6.0000000   6.0000000   6.0000000   6.0000000   6.0000000   6.0000000

  Atom        21          22          23          24          25          26          27          28          29          30
 IAtWgt=          12          12          12          12          12          12          12          12          12          12
 AtmWgt=  12.0000000  12.0000000  12.0000000  12.0000000  12.0000000  12.0000000  12.0000000  12.0000000  12.0000000  12.0000000
 NucSpn=           0           0           0           0           0           0           0           0           0           0
 AtZEff=   3.6000000   3.6000000   3.6000000   3.6000000   3.6000000   3.6000000   3.6000000   3.6000000   3.6000000   3.6000000
 NQMom=    0.0000000   0.0000000   0.0000000   0.0000000   0.0000000   0.0000000   0.0000000   0.0000000   0.0000000   0.0000000
 NMagM=    0.0000000   0.0000000   0.0000000   0.0000000   0.0000000   0.0000000   0.0000000   0.0000000   0.0000000   0.0000000
 AtZNuc=   6.0000000   6.0000000   6.0000000   6.0000000   6.0000000   6.0000000   6.0000000   6.0000000   6.0000000   6.0000000

  Atom        31          32          33          34          35          36          37          38          39          40
 IAtWgt=          12          12          12          12          12          12          12          12          12          12
 AtmWgt=  12.0000000  12.0000000  12.0000000  12.0000000  12.0000000  12.0000000  12.0000000  12.0000000  12.0000000  12.0000000
 NucSpn=           0           0           0           0           0           0           0           0           0           0
 AtZEff=   3.6000000   3.6000000   3.6000000   3.6000000   3.6000000   3.6000000   3.6000000   3.6000000   3.6000000   3.6000000
 NQMom=    0.0000000   0.0000000   0.0000000   0.0000000   0.0000000   0.0000000   0.0000000   0.0000000   0.0000000   0.0000000
 NMagM=    0.0000000   0.0000000   0.0000000   0.0000000   0.0000000   0.0000000   0.0000000   0.0000000   0.0000000   0.0000000
 AtZNuc=   6.0000000   6.0000000   6.0000000   6.0000000   6.0000000   6.0000000   6.0000000   6.0000000   6.0000000   6.0000000

  Atom        41          42          43          44          45          46          47          48          49          50
 IAtWgt=          12          12          12          12          12          12          12          12          12          12
 AtmWgt=  12.0000000  12.0000000  12.0000000  12.0000000  12.0000000  12.0000000  12.0000000  12.0000000  12.0000000  12.0000000
 NucSpn=           0           0           0           0           0           0           0           0           0           0
 AtZEff=   3.6000000   3.6000000   3.6000000   3.6000000   3.6000000   3.6000000   3.6000000   3.6000000   3.6000000   3.6000000
 NQMom=    0.0000000   0.0000000   0.0000000   0.0000000   0.0000000   0.0000000   0.0000000   0.0000000   0.0000000   0.0000000
 NMagM=    0.0000000   0.0000000   0.0000000   0.0000000   0.0000000   0.0000000   0.0000000   0.0000000   0.0000000   0.0000000
 AtZNuc=   6.0000000   6.0000000   6.0000000   6.0000000   6.0000000   6.0000000   6.0000000   6.0000000   6.0000000   6.0000000

  Atom        51          52          53          54          55          56          57          58          59          60
 IAtWgt=          12          12          12          12          12          12          12          12          12          12
 AtmWgt=  12.0000000  12.0000000  12.0000000  12.0000000  12.0000000  12.0000000  12.0000000  12.0000000  12.0000000  12.0000000
 NucSpn=           0           0           0           0           0           0           0           0           0           0
 AtZEff=   3.6000000   3.6000000   3.6000000   3.6000000   3.6000000   3.6000000   3.6000000   3.6000000   3.6000000   3.6000000
 NQMom=    0.0000000   0.0000000   0.0000000   0.0000000   0.0000000   0.0000000   0.0000000   0.0000000   0.0000000   0.0000000
 NMagM=    0.0000000   0.0000000   0.0000000   0.0000000   0.0000000   0.0000000   0.0000000   0.0000000   0.0000000   0.0000000
 AtZNuc=   6.0000000   6.0000000   6.0000000   6.0000000   6.0000000   6.0000000   6.0000000   6.0000000   6.0000000   6.0000000

  Atom        61          62          63          64          65          66          67          68          69          70
 IAtWgt=          16           1          16           1          16           1          16           1          16           1
 AtmWgt=  15.9949146   1.0078250  15.9949146   1.0078250  15.9949146   1.0078250  15.9949146   1.0078250  15.9949146   1.0078250
 NucSpn=           0           1           0           1           0           1           0           1           0           1
 AtZEff=   5.6000000   1.0000000   5.6000000   1.0000000   5.6000000   1.0000000   5.6000000   1.0000000   5.6000000   1.0000000
 NQMom=    0.0000000   0.0000000   0.0000000   0.0000000   0.0000000   0.0000000   0.0000000   0.0000000   0.0000000   0.0000000
 NMagM=    0.0000000   2.7928460   0.0000000   2.7928460   0.0000000   2.7928460   0.0000000   2.7928460   0.0000000   2.7928460
 AtZNuc=   8.0000000   1.0000000   8.0000000   1.0000000   8.0000000   1.0000000   8.0000000   1.0000000   8.0000000   1.0000000

  Atom        71          72          73          74          75          76          77          78          79          80
 IAtWgt=          16           1          16           1          16           1          16           1          16           1
 AtmWgt=  15.9949146   1.0078250  15.9949146   1.0078250  15.9949146   1.0078250  15.9949146   1.0078250  15.9949146   1.0078250
 NucSpn=           0           1           0           1           0           1           0           1           0           1
 AtZEff=   5.6000000   1.0000000   5.6000000   1.0000000   5.6000000   1.0000000   5.6000000   1.0000000   5.6000000   1.0000000
 NQMom=    0.0000000   0.0000000   0.0000000   0.0000000   0.0000000   0.0000000   0.0000000   0.0000000   0.0000000   0.0000000
 NMagM=    0.0000000   2.7928460   0.0000000   2.7928460   0.0000000   2.7928460   0.0000000   2.7928460   0.0000000   2.7928460
 AtZNuc=   8.0000000   1.0000000   8.0000000   1.0000000   8.0000000   1.0000000   8.0000000   1.0000000   8.0000000   1.0000000

  Atom        81          82          83          84          85          86          87          88          89          90
 IAtWgt=          16           1          16           1          16           1          16           1          16           1
 AtmWgt=  15.9949146   1.0078250  15.9949146   1.0078250  15.9949146   1.0078250  15.9949146   1.0078250  15.9949146   1.0078250
 NucSpn=           0           1           0           1           0           1           0           1           0           1
 AtZEff=   5.6000000   1.0000000   5.6000000   1.0000000   5.6000000   1.0000000   5.6000000   1.0000000   5.6000000   1.0000000
 NQMom=    0.0000000   0.0000000   0.0000000   0.0000000   0.0000000   0.0000000   0.0000000   0.0000000   0.0000000   0.0000000
 NMagM=    0.0000000   2.7928460   0.0000000   2.7928460   0.0000000   2.7928460   0.0000000   2.7928460   0.0000000   2.7928460
 AtZNuc=   8.0000000   1.0000000   8.0000000   1.0000000   8.0000000   1.0000000   8.0000000   1.0000000   8.0000000   1.0000000

  Atom        91          92          93          94          95          96          97          98          99         100
 IAtWgt=          16           1          16           1          16           1          16           1          16           1
 AtmWgt=  15.9949146   1.0078250  15.9949146   1.0078250  15.9949146   1.0078250  15.9949146   1.0078250  15.9949146   1.0078250
 NucSpn=           0           1           0           1           0           1           0           1           0           1
 AtZEff=   5.6000000   1.0000000   5.6000000   1.0000000   5.6000000   1.0000000   5.6000000   1.0000000   5.6000000   1.0000000
 NQMom=    0.0000000   0.0000000   0.0000000   0.0000000   0.0000000   0.0000000   0.0000000   0.0000000   0.0000000   0.0000000
 NMagM=    0.0000000   2.7928460   0.0000000   2.7928460   0.0000000   2.7928460   0.0000000   2.7928460   0.0000000   2.7928460
 AtZNuc=   8.0000000   1.0000000   8.0000000   1.0000000   8.0000000   1.0000000   8.0000000   1.0000000   8.0000000   1.0000000

  Atom       101         102         103         104         105         106         107         108
 IAtWgt=          16           1          16           1          16           1          16           1
 AtmWgt=  15.9949146   1.0078250  15.9949146   1.0078250  15.9949146   1.0078250  15.9949146   1.0078250
 NucSpn=           0           1           0           1           0           1           0           1
 AtZEff=   5.6000000   1.0000000   5.6000000   1.0000000   5.6000000   1.0000000   5.6000000   1.0000000
 NQMom=    0.0000000   0.0000000   0.0000000   0.0000000   0.0000000   0.0000000   0.0000000   0.0000000
 NMagM=    0.0000000   2.7928460   0.0000000   2.7928460   0.0000000   2.7928460   0.0000000   2.7928460
 AtZNuc=   8.0000000   1.0000000   8.0000000   1.0000000   8.0000000   1.0000000   8.0000000   1.0000000
 Leave Link  101 at Tue May 24 00:07:05 2022, MaxMem=  1342177280 cpu:              24.4 elap:               1.1
 (Enter /home/mkliu/g16/l103.exe)

 GradGradGradGradGradGradGradGradGradGradGradGradGradGradGradGradGradGrad
 Berny optimization.
 Initialization pass.
                           ----------------------------
                           !    Initial Parameters    !
                           ! (Angstroms and Degrees)  !
 --------------------------                            --------------------------
 ! Name  Definition              Value          Derivative Info.                !
 --------------------------------------------------------------------------------
 ! R1    R(1,2)                  1.526          estimate D2E/DX2                !
 ! R2    R(1,4)                  1.3274         estimate D2E/DX2                !
 ! R3    R(1,8)                  1.5017         estimate D2E/DX2                !
 ! R4    R(2,3)                  1.5204         estimate D2E/DX2                !
 ! R5    R(2,11)                 1.4972         estimate D2E/DX2                !
 ! R6    R(2,61)                 1.4112         estimate D2E/DX2                !
 ! R7    R(3,5)                  1.5236         estimate D2E/DX2                !
 ! R8    R(3,14)                 1.3252         estimate D2E/DX2                !
 ! R9    R(4,5)                  1.5265         estimate D2E/DX2                !
 ! R10   R(4,6)                  1.5046         estimate D2E/DX2                !
 ! R11   R(5,17)                 1.4962         estimate D2E/DX2                !
 ! R12   R(5,75)                 1.4075         estimate D2E/DX2                !
 ! R13   R(6,7)                  1.5215         estimate D2E/DX2                !
 ! R14   R(6,19)                 1.5201         estimate D2E/DX2                !
 ! R15   R(6,97)                 1.4053         estimate D2E/DX2                !
 ! R16   R(7,9)                  1.3232         estimate D2E/DX2                !
 ! R17   R(7,21)                 1.5282         estimate D2E/DX2                !
 ! R18   R(8,9)                  1.5301         estimate D2E/DX2                !
 ! R19   R(8,10)                 1.5273         estimate D2E/DX2                !
 ! R20   R(8,105)                1.406          estimate D2E/DX2                !
 ! R21   R(9,24)                 1.5245         estimate D2E/DX2                !
 ! R22   R(10,12)                1.5058         estimate D2E/DX2                !
 ! R23   R(10,25)                1.338          estimate D2E/DX2                !
 ! R24   R(11,12)                1.5181         estimate D2E/DX2                !
 ! R25   R(11,13)                1.3271         estimate D2E/DX2                !
 ! R26   R(12,28)                1.5255         estimate D2E/DX2                !
 ! R27   R(12,77)                1.4105         estimate D2E/DX2                !
 ! R28   R(13,15)                1.5015         estimate D2E/DX2                !
 ! R29   R(13,29)                1.5302         estimate D2E/DX2                !
 ! R30   R(14,15)                1.5226         estimate D2E/DX2                !
 ! R31   R(14,16)                1.5288         estimate D2E/DX2                !
 ! R32   R(15,32)                1.5219         estimate D2E/DX2                !
 ! R33   R(15,63)                1.4012         estimate D2E/DX2                !
 ! R34   R(16,18)                1.4972         estimate D2E/DX2                !
 ! R35   R(16,33)                1.5247         estimate D2E/DX2                !
 ! R36   R(16,65)                1.3989         estimate D2E/DX2                !
 ! R37   R(17,18)                1.3253         estimate D2E/DX2                !
 ! R38   R(17,20)                1.5241         estimate D2E/DX2                !
 ! R39   R(18,36)                1.5218         estimate D2E/DX2                !
 ! R40   R(19,20)                1.4981         estimate D2E/DX2                !
 ! R41   R(19,22)                1.3268         estimate D2E/DX2                !
 ! R42   R(20,37)                1.5226         estimate D2E/DX2                !
 ! R43   R(20,83)                1.4108         estimate D2E/DX2                !
 ! R44   R(21,22)                1.5269         estimate D2E/DX2                !
 ! R45   R(21,23)                1.4997         estimate D2E/DX2                !
 ! R46   R(21,103)               1.3996         estimate D2E/DX2                !
 ! R47   R(22,39)                1.4982         estimate D2E/DX2                !
 ! R48   R(23,26)                1.3273         estimate D2E/DX2                !
 ! R49   R(23,41)                1.5221         estimate D2E/DX2                !
 ! R50   R(24,25)                1.5229         estimate D2E/DX2                !
 ! R51   R(24,26)                1.5017         estimate D2E/DX2                !
 ! R52   R(24,107)               1.398          estimate D2E/DX2                !
 ! R53   R(25,27)                1.429          estimate D2E/DX2                !
 ! R54   R(26,43)                1.5303         estimate D2E/DX2                !
 ! R55   R(27,30)                1.4438         estimate D2E/DX2                !
 ! R56   R(27,44)                1.3438         estimate D2E/DX2                !
 ! R57   R(28,29)                1.5204         estimate D2E/DX2                !
 ! R58   R(28,30)                1.3332         estimate D2E/DX2                !
 ! R59   R(29,31)                1.5032         estimate D2E/DX2                !
 ! R60   R(29,67)                1.3991         estimate D2E/DX2                !
 ! R61   R(30,46)                1.5307         estimate D2E/DX2                !
 ! R62   R(31,34)                1.5266         estimate D2E/DX2                !
 ! R63   R(31,47)                1.3296         estimate D2E/DX2                !
 ! R64   R(32,33)                1.3264         estimate D2E/DX2                !
 ! R65   R(32,34)                1.4996         estimate D2E/DX2                !
 ! R66   R(33,35)                1.4986         estimate D2E/DX2                !
 ! R67   R(34,49)                1.5271         estimate D2E/DX2                !
 ! R68   R(34,69)                1.3988         estimate D2E/DX2                !
 ! R69   R(35,38)                1.525          estimate D2E/DX2                !
 ! R70   R(35,50)                1.5253         estimate D2E/DX2                !
 ! R71   R(35,71)                1.4018         estimate D2E/DX2                !
 ! R72   R(36,37)                1.5231         estimate D2E/DX2                !
 ! R73   R(36,38)                1.5015         estimate D2E/DX2                !
 ! R74   R(36,73)                1.4021         estimate D2E/DX2                !
 ! R75   R(37,40)                1.324          estimate D2E/DX2                !
 ! R76   R(38,52)                1.3275         estimate D2E/DX2                !
 ! R77   R(39,40)                1.5264         estimate D2E/DX2                !
 ! R78   R(39,42)                1.5241         estimate D2E/DX2                !
 ! R79   R(39,95)                1.4009         estimate D2E/DX2                !
 ! R80   R(40,53)                1.5226         estimate D2E/DX2                !
 ! R81   R(41,42)                1.5014         estimate D2E/DX2                !
 ! R82   R(41,45)                1.5205         estimate D2E/DX2                !
 ! R83   R(41,101)               1.4019         estimate D2E/DX2                !
 ! R84   R(42,54)                1.3266         estimate D2E/DX2                !
 ! R85   R(43,44)                1.4942         estimate D2E/DX2                !
 ! R86   R(43,45)                1.5225         estimate D2E/DX2                !
 ! R87   R(43,99)                1.4043         estimate D2E/DX2                !
 ! R88   R(44,48)                1.5028         estimate D2E/DX2                !
 ! R89   R(45,56)                1.3212         estimate D2E/DX2                !
 ! R90   R(46,47)                1.5042         estimate D2E/DX2                !
 ! R91   R(46,48)                1.5965         estimate D2E/DX2                !
 ! R92   R(46,85)                1.3971         estimate D2E/DX2                !
 ! R93   R(47,51)                1.5131         estimate D2E/DX2                !
 ! R94   R(48,57)                1.5714         estimate D2E/DX2                !
 ! R95   R(48,89)                1.4238         estimate D2E/DX2                !
 ! R96   R(49,50)                1.3238         estimate D2E/DX2                !
 ! R97   R(49,51)                1.5202         estimate D2E/DX2                !
 ! R98   R(50,55)                1.5271         estimate D2E/DX2                !
 ! R99   R(51,58)                1.4962         estimate D2E/DX2                !
 ! R100  R(51,79)                1.404          estimate D2E/DX2                !
 ! R101  R(52,53)                1.5026         estimate D2E/DX2                !
 ! R102  R(52,55)                1.5191         estimate D2E/DX2                !
 ! R103  R(53,54)                1.5256         estimate D2E/DX2                !
 ! R104  R(53,87)                1.4009         estimate D2E/DX2                !
 ! R105  R(54,59)                1.4964         estimate D2E/DX2                !
 ! R106  R(55,60)                1.4996         estimate D2E/DX2                !
 ! R107  R(55,81)                1.4075         estimate D2E/DX2                !
 ! R108  R(56,57)                1.5297         estimate D2E/DX2                !
 ! R109  R(56,59)                1.5257         estimate D2E/DX2                !
 ! R110  R(57,58)                1.5218         estimate D2E/DX2                !
 ! R111  R(57,91)                1.409          estimate D2E/DX2                !
 ! R112  R(58,60)                1.3273         estimate D2E/DX2                !
 ! R113  R(59,60)                1.5216         estimate D2E/DX2                !
 ! R114  R(59,93)                1.401          estimate D2E/DX2                !
 ! R115  R(61,62)                0.9651         estimate D2E/DX2                !
 ! R116  R(63,64)                0.9676         estimate D2E/DX2                !
 ! R117  R(65,66)                0.9656         estimate D2E/DX2                !
 ! R118  R(67,68)                0.9656         estimate D2E/DX2                !
 ! R119  R(69,70)                0.9655         estimate D2E/DX2                !
 ! R120  R(71,72)                0.9658         estimate D2E/DX2                !
 ! R121  R(73,74)                0.9674         estimate D2E/DX2                !
 ! R122  R(75,76)                0.9649         estimate D2E/DX2                !
 ! R123  R(77,78)                0.9658         estimate D2E/DX2                !
 ! R124  R(79,80)                0.966          estimate D2E/DX2                !
 ! R125  R(81,82)                0.9649         estimate D2E/DX2                !
 ! R126  R(83,84)                0.9653         estimate D2E/DX2                !
 ! R127  R(85,86)                0.9685         estimate D2E/DX2                !
 ! R128  R(87,88)                0.9668         estimate D2E/DX2                !
 ! R129  R(89,90)                0.9683         estimate D2E/DX2                !
 ! R130  R(91,92)                0.9742         estimate D2E/DX2                !
 ! R131  R(93,94)                0.9664         estimate D2E/DX2                !
 ! R132  R(95,96)                0.9662         estimate D2E/DX2                !
 ! R133  R(97,98)                0.966          estimate D2E/DX2                !
 ! R134  R(99,100)               0.9654         estimate D2E/DX2                !
 ! R135  R(101,102)              0.9672         estimate D2E/DX2                !
 ! R136  R(103,104)              0.9654         estimate D2E/DX2                !
 ! R137  R(105,106)              0.9649         estimate D2E/DX2                !
 ! R138  R(107,108)              0.9659         estimate D2E/DX2                !
 ! A1    A(2,1,4)              112.3906         estimate D2E/DX2                !
 ! A2    A(2,1,8)              122.6102         estimate D2E/DX2                !
 ! A3    A(4,1,8)              124.5846         estimate D2E/DX2                !
 ! A4    A(1,2,3)               99.7679         estimate D2E/DX2                !
 ! A5    A(1,2,11)             108.4899         estimate D2E/DX2                !
 ! A6    A(1,2,61)             112.3934         estimate D2E/DX2                !
 ! A7    A(3,2,11)             108.1063         estimate D2E/DX2                !
 ! A8    A(3,2,61)             116.5131         estimate D2E/DX2                !
 ! A9    A(11,2,61)            110.8428         estimate D2E/DX2                !
 ! A10   A(2,3,5)              109.068          estimate D2E/DX2                !
 ! A11   A(2,3,14)             123.9027         estimate D2E/DX2                !
 ! A12   A(5,3,14)             123.5073         estimate D2E/DX2                !
 ! A13   A(1,4,5)              111.9417         estimate D2E/DX2                !
 ! A14   A(1,4,6)              124.0126         estimate D2E/DX2                !
 ! A15   A(5,4,6)              123.1363         estimate D2E/DX2                !
 ! A16   A(3,5,4)               99.9869         estimate D2E/DX2                !
 ! A17   A(3,5,17)             108.2635         estimate D2E/DX2                !
 ! A18   A(3,5,75)             112.1891         estimate D2E/DX2                !
 ! A19   A(4,5,17)             107.5276         estimate D2E/DX2                !
 ! A20   A(4,5,75)             113.5412         estimate D2E/DX2                !
 ! A21   A(17,5,75)            114.2616         estimate D2E/DX2                !
 ! A22   A(4,6,7)              108.2286         estimate D2E/DX2                !
 ! A23   A(4,6,19)             107.8261         estimate D2E/DX2                !
 ! A24   A(4,6,97)             114.7246         estimate D2E/DX2                !
 ! A25   A(7,6,19)              99.5268         estimate D2E/DX2                !
 ! A26   A(7,6,97)             112.4627         estimate D2E/DX2                !
 ! A27   A(19,6,97)            112.8962         estimate D2E/DX2                !
 ! A28   A(6,7,9)              124.015          estimate D2E/DX2                !
 ! A29   A(6,7,21)             109.22           estimate D2E/DX2                !
 ! A30   A(9,7,21)             123.2889         estimate D2E/DX2                !
 ! A31   A(1,8,9)              107.5698         estimate D2E/DX2                !
 ! A32   A(1,8,10)             106.9128         estimate D2E/DX2                !
 ! A33   A(1,8,105)            113.9803         estimate D2E/DX2                !
 ! A34   A(9,8,10)              99.7499         estimate D2E/DX2                !
 ! A35   A(9,8,105)            112.6336         estimate D2E/DX2                !
 ! A36   A(10,8,105)           114.8218         estimate D2E/DX2                !
 ! A37   A(7,9,8)              123.6456         estimate D2E/DX2                !
 ! A38   A(7,9,24)             123.3931         estimate D2E/DX2                !
 ! A39   A(8,9,24)             109.5855         estimate D2E/DX2                !
 ! A40   A(8,10,12)            124.2658         estimate D2E/DX2                !
 ! A41   A(8,10,25)            110.9712         estimate D2E/DX2                !
 ! A42   A(12,10,25)           122.9987         estimate D2E/DX2                !
 ! A43   A(2,11,12)            122.3584         estimate D2E/DX2                !
 ! A44   A(2,11,13)            124.6627         estimate D2E/DX2                !
 ! A45   A(12,11,13)           112.4023         estimate D2E/DX2                !
 ! A46   A(10,12,11)           108.2607         estimate D2E/DX2                !
 ! A47   A(10,12,28)           111.0155         estimate D2E/DX2                !
 ! A48   A(10,12,77)           114.0985         estimate D2E/DX2                !
 ! A49   A(11,12,28)            99.2057         estimate D2E/DX2                !
 ! A50   A(11,12,77)           112.6082         estimate D2E/DX2                !
 ! A51   A(28,12,77)           110.6677         estimate D2E/DX2                !
 ! A52   A(11,13,15)           124.0428         estimate D2E/DX2                !
 ! A53   A(11,13,29)           112.499          estimate D2E/DX2                !
 ! A54   A(15,13,29)           122.8107         estimate D2E/DX2                !
 ! A55   A(3,14,15)            123.7493         estimate D2E/DX2                !
 ! A56   A(3,14,16)            123.5218         estimate D2E/DX2                !
 ! A57   A(15,14,16)           109.0611         estimate D2E/DX2                !
 ! A58   A(13,15,14)           108.3084         estimate D2E/DX2                !
 ! A59   A(13,15,32)           107.5198         estimate D2E/DX2                !
 ! A60   A(13,15,63)           114.3317         estimate D2E/DX2                !
 ! A61   A(14,15,32)            99.5142         estimate D2E/DX2                !
 ! A62   A(14,15,63)           112.8768         estimate D2E/DX2                !
 ! A63   A(32,15,63)           113.1454         estimate D2E/DX2                !
 ! A64   A(14,16,18)           108.2315         estimate D2E/DX2                !
 ! A65   A(14,16,33)            99.4485         estimate D2E/DX2                !
 ! A66   A(14,16,65)           116.2238         estimate D2E/DX2                !
 ! A67   A(18,16,33)           107.4889         estimate D2E/DX2                !
 ! A68   A(18,16,65)           110.2334         estimate D2E/DX2                !
 ! A69   A(33,16,65)           114.4271         estimate D2E/DX2                !
 ! A70   A(5,17,18)            124.3311         estimate D2E/DX2                !
 ! A71   A(5,17,20)            122.7407         estimate D2E/DX2                !
 ! A72   A(18,17,20)           112.4197         estimate D2E/DX2                !
 ! A73   A(16,18,17)           124.1963         estimate D2E/DX2                !
 ! A74   A(16,18,36)           123.0468         estimate D2E/DX2                !
 ! A75   A(17,18,36)           112.2088         estimate D2E/DX2                !
 ! A76   A(6,19,20)            122.3678         estimate D2E/DX2                !
 ! A77   A(6,19,22)            112.5047         estimate D2E/DX2                !
 ! A78   A(20,19,22)           124.546          estimate D2E/DX2                !
 ! A79   A(17,20,19)           108.129          estimate D2E/DX2                !
 ! A80   A(17,20,37)            99.4214         estimate D2E/DX2                !
 ! A81   A(17,20,83)           112.4437         estimate D2E/DX2                !
 ! A82   A(19,20,37)           108.7119         estimate D2E/DX2                !
 ! A83   A(19,20,83)           110.9023         estimate D2E/DX2                !
 ! A84   A(37,20,83)           116.4563         estimate D2E/DX2                !
 ! A85   A(7,21,22)             99.3759         estimate D2E/DX2                !
 ! A86   A(7,21,23)            108.5452         estimate D2E/DX2                !
 ! A87   A(7,21,103)           116.031          estimate D2E/DX2                !
 ! A88   A(22,21,23)           108.1512         estimate D2E/DX2                !
 ! A89   A(22,21,103)          114.1572         estimate D2E/DX2                !
 ! A90   A(23,21,103)          109.9109         estimate D2E/DX2                !
 ! A91   A(19,22,21)           112.2231         estimate D2E/DX2                !
 ! A92   A(19,22,39)           123.7384         estimate D2E/DX2                !
 ! A93   A(21,22,39)           123.2257         estimate D2E/DX2                !
 ! A94   A(21,23,26)           124.6552         estimate D2E/DX2                !
 ! A95   A(21,23,41)           122.2364         estimate D2E/DX2                !
 ! A96   A(26,23,41)           112.6217         estimate D2E/DX2                !
 ! A97   A(9,24,25)             98.0964         estimate D2E/DX2                !
 ! A98   A(9,24,26)            109.6202         estimate D2E/DX2                !
 ! A99   A(9,24,107)           115.3504         estimate D2E/DX2                !
 ! A100  A(25,24,26)           106.9618         estimate D2E/DX2                !
 ! A101  A(25,24,107)          114.4453         estimate D2E/DX2                !
 ! A102  A(26,24,107)          111.391          estimate D2E/DX2                !
 ! A103  A(10,25,24)           113.5513         estimate D2E/DX2                !
 ! A104  A(10,25,27)           121.1117         estimate D2E/DX2                !
 ! A105  A(24,25,27)           121.4184         estimate D2E/DX2                !
 ! A106  A(23,26,24)           123.0951         estimate D2E/DX2                !
 ! A107  A(23,26,43)           111.8837         estimate D2E/DX2                !
 ! A108  A(24,26,43)           123.5633         estimate D2E/DX2                !
 ! A109  A(25,27,30)           119.0457         estimate D2E/DX2                !
 ! A110  A(25,27,44)           123.1602         estimate D2E/DX2                !
 ! A111  A(30,27,44)           110.6574         estimate D2E/DX2                !
 ! A112  A(12,28,29)           109.7457         estimate D2E/DX2                !
 ! A113  A(12,28,30)           122.9891         estimate D2E/DX2                !
 ! A114  A(29,28,30)           122.0997         estimate D2E/DX2                !
 ! A115  A(13,29,28)            98.7652         estimate D2E/DX2                !
 ! A116  A(13,29,31)           107.3423         estimate D2E/DX2                !
 ! A117  A(13,29,67)           113.7263         estimate D2E/DX2                !
 ! A118  A(28,29,31)           107.4712         estimate D2E/DX2                !
 ! A119  A(28,29,67)           117.3675         estimate D2E/DX2                !
 ! A120  A(31,29,67)           111.1278         estimate D2E/DX2                !
 ! A121  A(27,30,28)           120.7128         estimate D2E/DX2                !
 ! A122  A(27,30,46)           109.0203         estimate D2E/DX2                !
 ! A123  A(28,30,46)           125.6504         estimate D2E/DX2                !
 ! A124  A(29,31,34)           121.9744         estimate D2E/DX2                !
 ! A125  A(29,31,47)           125.1239         estimate D2E/DX2                !
 ! A126  A(34,31,47)           112.1759         estimate D2E/DX2                !
 ! A127  A(15,32,33)           112.4115         estimate D2E/DX2                !
 ! A128  A(15,32,34)           122.3858         estimate D2E/DX2                !
 ! A129  A(33,32,34)           124.7147         estimate D2E/DX2                !
 ! A130  A(16,33,32)           112.2921         estimate D2E/DX2                !
 ! A131  A(16,33,35)           122.7257         estimate D2E/DX2                !
 ! A132  A(32,33,35)           124.1616         estimate D2E/DX2                !
 ! A133  A(31,34,32)           108.1795         estimate D2E/DX2                !
 ! A134  A(31,34,49)            99.3531         estimate D2E/DX2                !
 ! A135  A(31,34,69)           114.1468         estimate D2E/DX2                !
 ! A136  A(32,34,49)           107.9293         estimate D2E/DX2                !
 ! A137  A(32,34,69)           110.0039         estimate D2E/DX2                !
 ! A138  A(49,34,69)           116.4981         estimate D2E/DX2                !
 ! A139  A(33,35,38)           108.0758         estimate D2E/DX2                !
 ! A140  A(33,35,50)           108.1807         estimate D2E/DX2                !
 ! A141  A(33,35,71)           110.9358         estimate D2E/DX2                !
 ! A142  A(38,35,50)            99.2615         estimate D2E/DX2                !
 ! A143  A(38,35,71)           113.5974         estimate D2E/DX2                !
 ! A144  A(50,35,71)           115.9819         estimate D2E/DX2                !
 ! A145  A(18,36,37)            99.6082         estimate D2E/DX2                !
 ! A146  A(18,36,38)           107.5591         estimate D2E/DX2                !
 ! A147  A(18,36,73)           112.9226         estimate D2E/DX2                !
 ! A148  A(37,36,38)           108.3134         estimate D2E/DX2                !
 ! A149  A(37,36,73)           112.6678         estimate D2E/DX2                !
 ! A150  A(38,36,73)           114.6084         estimate D2E/DX2                !
 ! A151  A(20,37,36)           109.1436         estimate D2E/DX2                !
 ! A152  A(20,37,40)           123.3586         estimate D2E/DX2                !
 ! A153  A(36,37,40)           123.7048         estimate D2E/DX2                !
 ! A154  A(35,38,36)           122.4738         estimate D2E/DX2                !
 ! A155  A(35,38,52)           112.5485         estimate D2E/DX2                !
 ! A156  A(36,38,52)           124.3292         estimate D2E/DX2                !
 ! A157  A(22,39,40)           108.6888         estimate D2E/DX2                !
 ! A158  A(22,39,42)           107.4478         estimate D2E/DX2                !
 ! A159  A(22,39,95)           111.2556         estimate D2E/DX2                !
 ! A160  A(40,39,42)            99.3208         estimate D2E/DX2                !
 ! A161  A(40,39,95)           115.335          estimate D2E/DX2                !
 ! A162  A(42,39,95)           113.9461         estimate D2E/DX2                !
 ! A163  A(37,40,39)           123.7079         estimate D2E/DX2                !
 ! A164  A(37,40,53)           123.9101         estimate D2E/DX2                !
 ! A165  A(39,40,53)           109.1296         estimate D2E/DX2                !
 ! A166  A(23,41,42)           108.3853         estimate D2E/DX2                !
 ! A167  A(23,41,45)            99.1925         estimate D2E/DX2                !
 ! A168  A(23,41,101)          113.0482         estimate D2E/DX2                !
 ! A169  A(42,41,45)           108.3508         estimate D2E/DX2                !
 ! A170  A(42,41,101)          114.2959         estimate D2E/DX2                !
 ! A171  A(45,41,101)          112.4359         estimate D2E/DX2                !
 ! A172  A(39,42,41)           122.9176         estimate D2E/DX2                !
 ! A173  A(39,42,54)           112.2635         estimate D2E/DX2                !
 ! A174  A(41,42,54)           124.1845         estimate D2E/DX2                !
 ! A175  A(26,43,44)           108.0517         estimate D2E/DX2                !
 ! A176  A(26,43,45)            99.4851         estimate D2E/DX2                !
 ! A177  A(26,43,99)           116.6424         estimate D2E/DX2                !
 ! A178  A(44,43,45)           107.2615         estimate D2E/DX2                !
 ! A179  A(44,43,99)           109.7737         estimate D2E/DX2                !
 ! A180  A(45,43,99)           114.8286         estimate D2E/DX2                !
 ! A181  A(27,44,43)           123.1869         estimate D2E/DX2                !
 ! A182  A(27,44,48)           112.6417         estimate D2E/DX2                !
 ! A183  A(43,44,48)           123.8933         estimate D2E/DX2                !
 ! A184  A(41,45,43)           109.4161         estimate D2E/DX2                !
 ! A185  A(41,45,56)           124.0937         estimate D2E/DX2                !
 ! A186  A(43,45,56)           123.2005         estimate D2E/DX2                !
 ! A187  A(30,46,47)           103.8581         estimate D2E/DX2                !
 ! A188  A(30,46,48)           103.0721         estimate D2E/DX2                !
 ! A189  A(30,46,85)           115.5864         estimate D2E/DX2                !
 ! A190  A(47,46,48)           115.8522         estimate D2E/DX2                !
 ! A191  A(47,46,85)           107.4476         estimate D2E/DX2                !
 ! A192  A(48,46,85)           111.0693         estimate D2E/DX2                !
 ! A193  A(31,47,46)           124.2352         estimate D2E/DX2                !
 ! A194  A(31,47,51)           112.3669         estimate D2E/DX2                !
 ! A195  A(46,47,51)           123.2741         estimate D2E/DX2                !
 ! A196  A(44,48,46)           103.3652         estimate D2E/DX2                !
 ! A197  A(44,48,57)           112.4909         estimate D2E/DX2                !
 ! A198  A(44,48,89)           108.4079         estimate D2E/DX2                !
 ! A199  A(46,48,57)           115.9966         estimate D2E/DX2                !
 ! A200  A(46,48,89)           108.031          estimate D2E/DX2                !
 ! A201  A(57,48,89)           108.2317         estimate D2E/DX2                !
 ! A202  A(34,49,50)           123.6841         estimate D2E/DX2                !
 ! A203  A(34,49,51)           109.0714         estimate D2E/DX2                !
 ! A204  A(50,49,51)           123.4379         estimate D2E/DX2                !
 ! A205  A(35,50,49)           123.9184         estimate D2E/DX2                !
 ! A206  A(35,50,55)           109.1954         estimate D2E/DX2                !
 ! A207  A(49,50,55)           123.4702         estimate D2E/DX2                !
 ! A208  A(47,51,49)            99.7755         estimate D2E/DX2                !
 ! A209  A(47,51,58)           105.6393         estimate D2E/DX2                !
 ! A210  A(47,51,79)           114.4085         estimate D2E/DX2                !
 ! A211  A(49,51,58)           108.7479         estimate D2E/DX2                !
 ! A212  A(49,51,79)           112.3146         estimate D2E/DX2                !
 ! A213  A(58,51,79)           114.7208         estimate D2E/DX2                !
 ! A214  A(38,52,53)           124.1914         estimate D2E/DX2                !
 ! A215  A(38,52,55)           112.2667         estimate D2E/DX2                !
 ! A216  A(53,52,55)           122.679          estimate D2E/DX2                !
 ! A217  A(40,53,52)           108.2547         estimate D2E/DX2                !
 ! A218  A(40,53,54)            99.3252         estimate D2E/DX2                !
 ! A219  A(40,53,87)           112.3592         estimate D2E/DX2                !
 ! A220  A(52,53,54)           107.9792         estimate D2E/DX2                !
 ! A221  A(52,53,87)           114.4243         estimate D2E/DX2                !
 ! A222  A(54,53,87)           113.3405         estimate D2E/DX2                !
 ! A223  A(42,54,53)           112.3539         estimate D2E/DX2                !
 ! A224  A(42,54,59)           123.8902         estimate D2E/DX2                !
 ! A225  A(53,54,59)           123.0041         estimate D2E/DX2                !
 ! A226  A(50,55,52)            99.7247         estimate D2E/DX2                !
 ! A227  A(50,55,60)           108.2019         estimate D2E/DX2                !
 ! A228  A(50,55,81)           115.2806         estimate D2E/DX2                !
 ! A229  A(52,55,60)           107.9208         estimate D2E/DX2                !
 ! A230  A(52,55,81)           110.6848         estimate D2E/DX2                !
 ! A231  A(60,55,81)           113.9179         estimate D2E/DX2                !
 ! A232  A(45,56,57)           126.7561         estimate D2E/DX2                !
 ! A233  A(45,56,59)           122.9886         estimate D2E/DX2                !
 ! A234  A(57,56,59)           108.1707         estimate D2E/DX2                !
 ! A235  A(48,57,56)           112.9803         estimate D2E/DX2                !
 ! A236  A(48,57,58)           115.2522         estimate D2E/DX2                !
 ! A237  A(48,57,91)           110.4865         estimate D2E/DX2                !
 ! A238  A(56,57,58)            98.3151         estimate D2E/DX2                !
 ! A239  A(56,57,91)           111.2725         estimate D2E/DX2                !
 ! A240  A(58,57,91)           107.9383         estimate D2E/DX2                !
 ! A241  A(51,58,57)           124.1572         estimate D2E/DX2                !
 ! A242  A(51,58,60)           123.6363         estimate D2E/DX2                !
 ! A243  A(57,58,60)           112.076          estimate D2E/DX2                !
 ! A244  A(54,59,56)           108.7801         estimate D2E/DX2                !
 ! A245  A(54,59,60)           107.6827         estimate D2E/DX2                !
 ! A246  A(54,59,93)           111.484          estimate D2E/DX2                !
 ! A247  A(56,59,60)            98.9227         estimate D2E/DX2                !
 ! A248  A(56,59,93)           115.3646         estimate D2E/DX2                !
 ! A249  A(60,59,93)           113.7202         estimate D2E/DX2                !
 ! A250  A(55,60,58)           124.4121         estimate D2E/DX2                !
 ! A251  A(55,60,59)           122.8816         estimate D2E/DX2                !
 ! A252  A(58,60,59)           112.1551         estimate D2E/DX2                !
 ! A253  A(2,61,62)            108.0764         estimate D2E/DX2                !
 ! A254  A(15,63,64)           107.8178         estimate D2E/DX2                !
 ! A255  A(16,65,66)           108.3843         estimate D2E/DX2                !
 ! A256  A(29,67,68)           108.2253         estimate D2E/DX2                !
 ! A257  A(34,69,70)           108.5531         estimate D2E/DX2                !
 ! A258  A(35,71,72)           108.3673         estimate D2E/DX2                !
 ! A259  A(36,73,74)           107.9116         estimate D2E/DX2                !
 ! A260  A(5,75,76)            108.9468         estimate D2E/DX2                !
 ! A261  A(12,77,78)           108.6012         estimate D2E/DX2                !
 ! A262  A(51,79,80)           108.5307         estimate D2E/DX2                !
 ! A263  A(55,81,82)           108.6176         estimate D2E/DX2                !
 ! A264  A(20,83,84)           108.0623         estimate D2E/DX2                !
 ! A265  A(46,85,86)           108.3429         estimate D2E/DX2                !
 ! A266  A(53,87,88)           108.0428         estimate D2E/DX2                !
 ! A267  A(48,89,90)           107.629          estimate D2E/DX2                !
 ! A268  A(57,91,92)           107.2983         estimate D2E/DX2                !
 ! A269  A(59,93,94)           107.9008         estimate D2E/DX2                !
 ! A270  A(39,95,96)           108.0385         estimate D2E/DX2                !
 ! A271  A(6,97,98)            108.5387         estimate D2E/DX2                !
 ! A272  A(43,99,100)          108.414          estimate D2E/DX2                !
 ! A273  A(41,101,102)         107.8194         estimate D2E/DX2                !
 ! A274  A(21,103,104)         108.5834         estimate D2E/DX2                !
 ! A275  A(8,105,106)          109.0581         estimate D2E/DX2                !
 ! A276  A(24,107,108)         108.2779         estimate D2E/DX2                !
 ! D1    D(4,1,2,3)             16.0118         estimate D2E/DX2                !
 ! D2    D(4,1,2,11)           128.9715         estimate D2E/DX2                !
 ! D3    D(4,1,2,61)          -108.1025         estimate D2E/DX2                !
 ! D4    D(8,1,2,3)           -156.9065         estimate D2E/DX2                !
 ! D5    D(8,1,2,11)           -43.9468         estimate D2E/DX2                !
 ! D6    D(8,1,2,61)            78.9792         estimate D2E/DX2                !
 ! D7    D(2,1,4,5)             -0.6597         estimate D2E/DX2                !
 ! D8    D(2,1,4,6)           -170.0187         estimate D2E/DX2                !
 ! D9    D(8,1,4,5)            172.0937         estimate D2E/DX2                !
 ! D10   D(8,1,4,6)              2.7347         estimate D2E/DX2                !
 ! D11   D(2,1,8,9)            148.4244         estimate D2E/DX2                !
 ! D12   D(2,1,8,10)            42.0481         estimate D2E/DX2                !
 ! D13   D(2,1,8,105)          -85.9387         estimate D2E/DX2                !
 ! D14   D(4,1,8,9)            -23.6171         estimate D2E/DX2                !
 ! D15   D(4,1,8,10)          -129.9933         estimate D2E/DX2                !
 ! D16   D(4,1,8,105)          102.0199         estimate D2E/DX2                !
 ! D17   D(1,2,3,5)            -25.3761         estimate D2E/DX2                !
 ! D18   D(1,2,3,14)           134.0191         estimate D2E/DX2                !
 ! D19   D(11,2,3,5)          -138.6331         estimate D2E/DX2                !
 ! D20   D(11,2,3,14)           20.7621         estimate D2E/DX2                !
 ! D21   D(61,2,3,5)            95.8142         estimate D2E/DX2                !
 ! D22   D(61,2,3,14)         -104.7906         estimate D2E/DX2                !
 ! D23   D(1,2,11,12)           42.0904         estimate D2E/DX2                !
 ! D24   D(1,2,11,13)         -128.5316         estimate D2E/DX2                !
 ! D25   D(3,2,11,12)          149.4009         estimate D2E/DX2                !
 ! D26   D(3,2,11,13)          -21.2211         estimate D2E/DX2                !
 ! D27   D(61,2,11,12)         -81.7678         estimate D2E/DX2                !
 ! D28   D(61,2,11,13)         107.6101         estimate D2E/DX2                !
 ! D29   D(1,2,61,62)           81.8903         estimate D2E/DX2                !
 ! D30   D(3,2,61,62)          -32.3528         estimate D2E/DX2                !
 ! D31   D(11,2,61,62)        -156.5161         estimate D2E/DX2                !
 ! D32   D(2,3,5,4)             25.1088         estimate D2E/DX2                !
 ! D33   D(2,3,5,17)           137.4506         estimate D2E/DX2                !
 ! D34   D(2,3,5,75)           -95.5425         estimate D2E/DX2                !
 ! D35   D(14,3,5,4)          -134.3853         estimate D2E/DX2                !
 ! D36   D(14,3,5,17)          -22.0435         estimate D2E/DX2                !
 ! D37   D(14,3,5,75)          104.9634         estimate D2E/DX2                !
 ! D38   D(2,3,14,15)            0.0146         estimate D2E/DX2                !
 ! D39   D(2,3,14,16)         -156.0126         estimate D2E/DX2                !
 ! D40   D(5,3,14,15)          156.5051         estimate D2E/DX2                !
 ! D41   D(5,3,14,16)            0.4778         estimate D2E/DX2                !
 ! D42   D(1,4,5,3)            -14.9841         estimate D2E/DX2                !
 ! D43   D(1,4,5,17)          -127.8961         estimate D2E/DX2                !
 ! D44   D(1,4,5,75)           104.6859         estimate D2E/DX2                !
 ! D45   D(6,4,5,3)            154.4836         estimate D2E/DX2                !
 ! D46   D(6,4,5,17)            41.5717         estimate D2E/DX2                !
 ! D47   D(6,4,5,75)           -85.8463         estimate D2E/DX2                !
 ! D48   D(1,4,6,7)             19.8757         estimate D2E/DX2                !
 ! D49   D(1,4,6,19)           126.6706         estimate D2E/DX2                !
 ! D50   D(1,4,6,97)          -106.6025         estimate D2E/DX2                !
 ! D51   D(5,4,6,7)           -148.3216         estimate D2E/DX2                !
 ! D52   D(5,4,6,19)           -41.5267         estimate D2E/DX2                !
 ! D53   D(5,4,6,97)            85.2002         estimate D2E/DX2                !
 ! D54   D(3,5,17,18)           22.1712         estimate D2E/DX2                !
 ! D55   D(3,5,17,20)         -149.022          estimate D2E/DX2                !
 ! D56   D(4,5,17,18)          129.3731         estimate D2E/DX2                !
 ! D57   D(4,5,17,20)          -41.82           estimate D2E/DX2                !
 ! D58   D(75,5,17,18)        -103.6294         estimate D2E/DX2                !
 ! D59   D(75,5,17,20)          85.1774         estimate D2E/DX2                !
 ! D60   D(3,5,75,76)         -158.7318         estimate D2E/DX2                !
 ! D61   D(4,5,75,76)           88.8111         estimate D2E/DX2                !
 ! D62   D(17,5,75,76)         -35.0161         estimate D2E/DX2                !
 ! D63   D(4,6,7,9)            -20.9552         estimate D2E/DX2                !
 ! D64   D(4,6,7,21)           138.5223         estimate D2E/DX2                !
 ! D65   D(19,6,7,9)          -133.4179         estimate D2E/DX2                !
 ! D66   D(19,6,7,21)           26.0596         estimate D2E/DX2                !
 ! D67   D(97,6,7,9)           106.8279         estimate D2E/DX2                !
 ! D68   D(97,6,7,21)          -93.6946         estimate D2E/DX2                !
 ! D69   D(4,6,19,20)           42.1872         estimate D2E/DX2                !
 ! D70   D(4,6,19,22)         -129.4326         estimate D2E/DX2                !
 ! D71   D(7,6,19,20)          154.9643         estimate D2E/DX2                !
 ! D72   D(7,6,19,22)          -16.6556         estimate D2E/DX2                !
 ! D73   D(97,6,19,20)         -85.6005         estimate D2E/DX2                !
 ! D74   D(97,6,19,22)         102.7797         estimate D2E/DX2                !
 ! D75   D(4,6,97,98)          -78.3072         estimate D2E/DX2                !
 ! D76   D(7,6,97,98)          157.4269         estimate D2E/DX2                !
 ! D77   D(19,6,97,98)          45.7709         estimate D2E/DX2                !
 ! D78   D(6,7,9,8)             -0.3019         estimate D2E/DX2                !
 ! D79   D(6,7,9,24)           156.7736         estimate D2E/DX2                !
 ! D80   D(21,7,9,8)          -156.9726         estimate D2E/DX2                !
 ! D81   D(21,7,9,24)            0.1029         estimate D2E/DX2                !
 ! D82   D(6,7,21,22)          -25.4927         estimate D2E/DX2                !
 ! D83   D(6,7,21,23)         -138.3495         estimate D2E/DX2                !
 ! D84   D(6,7,21,103)          97.3445         estimate D2E/DX2                !
 ! D85   D(9,7,21,22)          134.1649         estimate D2E/DX2                !
 ! D86   D(9,7,21,23)           21.3081         estimate D2E/DX2                !
 ! D87   D(9,7,21,103)        -102.9978         estimate D2E/DX2                !
 ! D88   D(1,8,9,7)             22.2593         estimate D2E/DX2                !
 ! D89   D(1,8,9,24)          -137.5476         estimate D2E/DX2                !
 ! D90   D(10,8,9,7)           133.6073         estimate D2E/DX2                !
 ! D91   D(10,8,9,24)          -26.1996         estimate D2E/DX2                !
 ! D92   D(105,8,9,7)         -104.1752         estimate D2E/DX2                !
 ! D93   D(105,8,9,24)          96.0179         estimate D2E/DX2                !
 ! D94   D(1,8,10,12)          -40.1972         estimate D2E/DX2                !
 ! D95   D(1,8,10,25)          125.014          estimate D2E/DX2                !
 ! D96   D(9,8,10,12)         -152.06           estimate D2E/DX2                !
 ! D97   D(9,8,10,25)           13.1512         estimate D2E/DX2                !
 ! D98   D(105,8,10,12)         87.2963         estimate D2E/DX2                !
 ! D99   D(105,8,10,25)       -107.4925         estimate D2E/DX2                !
 ! D100  D(1,8,105,106)         33.5464         estimate D2E/DX2                !
 ! D101  D(9,8,105,106)        156.463          estimate D2E/DX2                !
 ! D102  D(10,8,105,106)       -90.2708         estimate D2E/DX2                !
 ! D103  D(7,9,24,25)         -131.8245         estimate D2E/DX2                !
 ! D104  D(7,9,24,26)          -20.5064         estimate D2E/DX2                !
 ! D105  D(7,9,24,107)         106.1749         estimate D2E/DX2                !
 ! D106  D(8,9,24,25)           28.0438         estimate D2E/DX2                !
 ! D107  D(8,9,24,26)          139.3619         estimate D2E/DX2                !
 ! D108  D(8,9,24,107)         -93.9567         estimate D2E/DX2                !
 ! D109  D(8,10,12,11)          39.2422         estimate D2E/DX2                !
 ! D110  D(8,10,12,28)         147.1346         estimate D2E/DX2                !
 ! D111  D(8,10,12,77)         -86.9893         estimate D2E/DX2                !
 ! D112  D(25,10,12,11)       -124.2471         estimate D2E/DX2                !
 ! D113  D(25,10,12,28)        -16.3548         estimate D2E/DX2                !
 ! D114  D(25,10,12,77)        109.5213         estimate D2E/DX2                !
 ! D115  D(8,10,25,24)           4.5257         estimate D2E/DX2                !
 ! D116  D(8,10,25,27)        -153.4838         estimate D2E/DX2                !
 ! D117  D(12,10,25,24)        169.9577         estimate D2E/DX2                !
 ! D118  D(12,10,25,27)         11.9482         estimate D2E/DX2                !
 ! D119  D(2,11,12,10)         -39.9395         estimate D2E/DX2                !
 ! D120  D(2,11,12,28)        -155.7911         estimate D2E/DX2                !
 ! D121  D(2,11,12,77)          87.1565         estimate D2E/DX2                !
 ! D122  D(13,11,12,10)        131.7252         estimate D2E/DX2                !
 ! D123  D(13,11,12,28)         15.8736         estimate D2E/DX2                !
 ! D124  D(13,11,12,77)       -101.1788         estimate D2E/DX2                !
 ! D125  D(2,11,13,15)           0.5956         estimate D2E/DX2                !
 ! D126  D(2,11,13,29)         171.5773         estimate D2E/DX2                !
 ! D127  D(12,11,13,15)       -170.8424         estimate D2E/DX2                !
 ! D128  D(12,11,13,29)          0.1393         estimate D2E/DX2                !
 ! D129  D(10,12,28,29)       -140.0348         estimate D2E/DX2                !
 ! D130  D(10,12,28,30)         14.9402         estimate D2E/DX2                !
 ! D131  D(11,12,28,29)        -26.312          estimate D2E/DX2                !
 ! D132  D(11,12,28,30)        128.663          estimate D2E/DX2                !
 ! D133  D(77,12,28,29)         92.2015         estimate D2E/DX2                !
 ! D134  D(77,12,28,30)       -112.8235         estimate D2E/DX2                !
 ! D135  D(10,12,77,78)         72.178          estimate D2E/DX2                !
 ! D136  D(11,12,77,78)        -51.7462         estimate D2E/DX2                !
 ! D137  D(28,12,77,78)       -161.7634         estimate D2E/DX2                !
 ! D138  D(11,13,15,14)         20.4362         estimate D2E/DX2                !
 ! D139  D(11,13,15,32)        127.1162         estimate D2E/DX2                !
 ! D140  D(11,13,15,63)       -106.3632         estimate D2E/DX2                !
 ! D141  D(29,13,15,14)       -149.6417         estimate D2E/DX2                !
 ! D142  D(29,13,15,32)        -42.9617         estimate D2E/DX2                !
 ! D143  D(29,13,15,63)         83.5589         estimate D2E/DX2                !
 ! D144  D(11,13,29,28)        -16.1184         estimate D2E/DX2                !
 ! D145  D(11,13,29,31)       -127.6115         estimate D2E/DX2                !
 ! D146  D(11,13,29,67)        109.04           estimate D2E/DX2                !
 ! D147  D(15,13,29,28)        154.9914         estimate D2E/DX2                !
 ! D148  D(15,13,29,31)         43.4983         estimate D2E/DX2                !
 ! D149  D(15,13,29,67)        -79.8501         estimate D2E/DX2                !
 ! D150  D(3,14,15,13)         -20.6207         estimate D2E/DX2                !
 ! D151  D(3,14,15,32)        -132.7664         estimate D2E/DX2                !
 ! D152  D(3,14,15,63)         107.0157         estimate D2E/DX2                !
 ! D153  D(16,14,15,13)        138.3789         estimate D2E/DX2                !
 ! D154  D(16,14,15,32)         26.2332         estimate D2E/DX2                !
 ! D155  D(16,14,15,63)        -93.9846         estimate D2E/DX2                !
 ! D156  D(3,14,16,18)          21.2775         estimate D2E/DX2                !
 ! D157  D(3,14,16,33)         133.3372         estimate D2E/DX2                !
 ! D158  D(3,14,16,65)        -103.344          estimate D2E/DX2                !
 ! D159  D(15,14,16,18)       -137.7802         estimate D2E/DX2                !
 ! D160  D(15,14,16,33)        -25.7204         estimate D2E/DX2                !
 ! D161  D(15,14,16,65)         97.5983         estimate D2E/DX2                !
 ! D162  D(13,15,32,33)       -129.5136         estimate D2E/DX2                !
 ! D163  D(13,15,32,34)         42.8186         estimate D2E/DX2                !
 ! D164  D(14,15,32,33)        -16.751          estimate D2E/DX2                !
 ! D165  D(14,15,32,34)        155.5812         estimate D2E/DX2                !
 ! D166  D(63,15,32,33)        103.2702         estimate D2E/DX2                !
 ! D167  D(63,15,32,34)        -84.3976         estimate D2E/DX2                !
 ! D168  D(13,15,63,64)        -65.636          estimate D2E/DX2                !
 ! D169  D(14,15,63,64)        169.963          estimate D2E/DX2                !
 ! D170  D(32,15,63,64)         57.9093         estimate D2E/DX2                !
 ! D171  D(14,16,18,17)        -21.5518         estimate D2E/DX2                !
 ! D172  D(14,16,18,36)        149.2899         estimate D2E/DX2                !
 ! D173  D(33,16,18,17)       -128.1106         estimate D2E/DX2                !
 ! D174  D(33,16,18,36)         42.731          estimate D2E/DX2                !
 ! D175  D(65,16,18,17)        106.5632         estimate D2E/DX2                !
 ! D176  D(65,16,18,36)        -82.5952         estimate D2E/DX2                !
 ! D177  D(14,16,33,32)         15.153          estimate D2E/DX2                !
 ! D178  D(14,16,33,35)       -154.8607         estimate D2E/DX2                !
 ! D179  D(18,16,33,32)        127.7947         estimate D2E/DX2                !
 ! D180  D(18,16,33,35)        -42.219          estimate D2E/DX2                !
 ! D181  D(65,16,33,32)       -109.4287         estimate D2E/DX2                !
 ! D182  D(65,16,33,35)         80.5576         estimate D2E/DX2                !
 ! D183  D(14,16,65,66)        -54.4511         estimate D2E/DX2                !
 ! D184  D(18,16,65,66)       -178.0412         estimate D2E/DX2                !
 ! D185  D(33,16,65,66)         60.6812         estimate D2E/DX2                !
 ! D186  D(5,17,18,16)          -0.284          estimate D2E/DX2                !
 ! D187  D(5,17,18,36)        -171.9985         estimate D2E/DX2                !
 ! D188  D(20,17,18,16)        171.7081         estimate D2E/DX2                !
 ! D189  D(20,17,18,36)         -0.0064         estimate D2E/DX2                !
 ! D190  D(5,17,20,19)          42.9137         estimate D2E/DX2                !
 ! D191  D(5,17,20,37)         156.274          estimate D2E/DX2                !
 ! D192  D(5,17,20,83)         -79.8665         estimate D2E/DX2                !
 ! D193  D(18,17,20,19)       -129.2253         estimate D2E/DX2                !
 ! D194  D(18,17,20,37)        -15.865          estimate D2E/DX2                !
 ! D195  D(18,17,20,83)        107.9944         estimate D2E/DX2                !
 ! D196  D(16,18,36,37)       -155.9471         estimate D2E/DX2                !
 ! D197  D(16,18,36,38)        -43.1277         estimate D2E/DX2                !
 ! D198  D(16,18,36,73)         84.3191         estimate D2E/DX2                !
 ! D199  D(17,18,36,37)         15.878          estimate D2E/DX2                !
 ! D200  D(17,18,36,38)        128.6973         estimate D2E/DX2                !
 ! D201  D(17,18,36,73)       -103.8558         estimate D2E/DX2                !
 ! D202  D(6,19,20,17)         -42.5978         estimate D2E/DX2                !
 ! D203  D(6,19,20,37)        -149.6208         estimate D2E/DX2                !
 ! D204  D(6,19,20,83)          81.1169         estimate D2E/DX2                !
 ! D205  D(22,19,20,17)        127.9941         estimate D2E/DX2                !
 ! D206  D(22,19,20,37)         20.9711         estimate D2E/DX2                !
 ! D207  D(22,19,20,83)       -108.2912         estimate D2E/DX2                !
 ! D208  D(6,19,22,21)           1.0714         estimate D2E/DX2                !
 ! D209  D(6,19,22,39)         171.022          estimate D2E/DX2                !
 ! D210  D(20,19,22,21)       -170.3337         estimate D2E/DX2                !
 ! D211  D(20,19,22,39)         -0.383          estimate D2E/DX2                !
 ! D212  D(17,20,37,36)         25.8475         estimate D2E/DX2                !
 ! D213  D(17,20,37,40)       -132.869          estimate D2E/DX2                !
 ! D214  D(19,20,37,36)        138.7533         estimate D2E/DX2                !
 ! D215  D(19,20,37,40)        -19.9632         estimate D2E/DX2                !
 ! D216  D(83,20,37,36)        -95.1391         estimate D2E/DX2                !
 ! D217  D(83,20,37,40)        106.1444         estimate D2E/DX2                !
 ! D218  D(17,20,83,84)        -81.1103         estimate D2E/DX2                !
 ! D219  D(19,20,83,84)        157.6831         estimate D2E/DX2                !
 ! D220  D(37,20,83,84)         32.6794         estimate D2E/DX2                !
 ! D221  D(7,21,22,19)          14.9547         estimate D2E/DX2                !
 ! D222  D(7,21,22,39)        -155.0558         estimate D2E/DX2                !
 ! D223  D(23,21,22,19)        128.1193         estimate D2E/DX2                !
 ! D224  D(23,21,22,39)        -41.8913         estimate D2E/DX2                !
 ! D225  D(103,21,22,19)      -109.2084         estimate D2E/DX2                !
 ! D226  D(103,21,22,39)        80.7811         estimate D2E/DX2                !
 ! D227  D(7,21,23,26)         -23.2473         estimate D2E/DX2                !
 ! D228  D(7,21,23,41)         148.1511         estimate D2E/DX2                !
 ! D229  D(22,21,23,26)       -130.154          estimate D2E/DX2                !
 ! D230  D(22,21,23,41)         41.2444         estimate D2E/DX2                !
 ! D231  D(103,21,23,26)       104.6201         estimate D2E/DX2                !
 ! D232  D(103,21,23,41)       -83.9815         estimate D2E/DX2                !
 ! D233  D(7,21,103,104)       -50.4915         estimate D2E/DX2                !
 ! D234  D(22,21,103,104)       64.202          estimate D2E/DX2                !
 ! D235  D(23,21,103,104)     -174.0899         estimate D2E/DX2                !
 ! D236  D(19,22,39,40)        -20.8093         estimate D2E/DX2                !
 ! D237  D(19,22,39,42)       -127.4004         estimate D2E/DX2                !
 ! D238  D(19,22,39,95)        107.2358         estimate D2E/DX2                !
 ! D239  D(21,22,39,40)        148.0567         estimate D2E/DX2                !
 ! D240  D(21,22,39,42)         41.4657         estimate D2E/DX2                !
 ! D241  D(21,22,39,95)        -83.8982         estimate D2E/DX2                !
 ! D242  D(21,23,26,24)          3.2871         estimate D2E/DX2                !
 ! D243  D(21,23,26,43)        169.9322         estimate D2E/DX2                !
 ! D244  D(41,23,26,24)       -168.8355         estimate D2E/DX2                !
 ! D245  D(41,23,26,43)         -2.1905         estimate D2E/DX2                !
 ! D246  D(21,23,41,42)        -41.7156         estimate D2E/DX2                !
 ! D247  D(21,23,41,45)       -154.6621         estimate D2E/DX2                !
 ! D248  D(21,23,41,101)        86.0626         estimate D2E/DX2                !
 ! D249  D(26,23,41,42)        130.6251         estimate D2E/DX2                !
 ! D250  D(26,23,41,45)         17.6785         estimate D2E/DX2                !
 ! D251  D(26,23,41,101)      -101.5968         estimate D2E/DX2                !
 ! D252  D(9,24,25,10)         -19.9555         estimate D2E/DX2                !
 ! D253  D(9,24,25,27)         137.9786         estimate D2E/DX2                !
 ! D254  D(26,24,25,10)       -133.4073         estimate D2E/DX2                !
 ! D255  D(26,24,25,27)         24.5268         estimate D2E/DX2                !
 ! D256  D(107,24,25,10)       102.7087         estimate D2E/DX2                !
 ! D257  D(107,24,25,27)       -99.3571         estimate D2E/DX2                !
 ! D258  D(9,24,26,23)          18.9027         estimate D2E/DX2                !
 ! D259  D(9,24,26,43)        -146.1918         estimate D2E/DX2                !
 ! D260  D(25,24,26,23)        124.2725         estimate D2E/DX2                !
 ! D261  D(25,24,26,43)        -40.8221         estimate D2E/DX2                !
 ! D262  D(107,24,26,23)      -109.9862         estimate D2E/DX2                !
 ! D263  D(107,24,26,43)        84.9193         estimate D2E/DX2                !
 ! D264  D(9,24,107,108)        45.3948         estimate D2E/DX2                !
 ! D265  D(25,24,107,108)      -67.3457         estimate D2E/DX2                !
 ! D266  D(26,24,107,108)      171.1721         estimate D2E/DX2                !
 ! D267  D(10,25,27,30)         -4.0842         estimate D2E/DX2                !
 ! D268  D(10,25,27,44)        143.5763         estimate D2E/DX2                !
 ! D269  D(24,25,27,30)       -160.3662         estimate D2E/DX2                !
 ! D270  D(24,25,27,44)        -12.7056         estimate D2E/DX2                !
 ! D271  D(23,26,43,44)       -126.1194         estimate D2E/DX2                !
 ! D272  D(23,26,43,45)        -14.3499         estimate D2E/DX2                !
 ! D273  D(23,26,43,99)        109.7141         estimate D2E/DX2                !
 ! D274  D(24,26,43,44)         40.4523         estimate D2E/DX2                !
 ! D275  D(24,26,43,45)        152.2219         estimate D2E/DX2                !
 ! D276  D(24,26,43,99)        -83.7142         estimate D2E/DX2                !
 ! D277  D(25,27,30,28)          2.691          estimate D2E/DX2                !
 ! D278  D(25,27,30,46)        159.8908         estimate D2E/DX2                !
 ! D279  D(44,27,30,28)       -148.7159         estimate D2E/DX2                !
 ! D280  D(44,27,30,46)          8.4839         estimate D2E/DX2                !
 ! D281  D(25,27,44,43)         12.0405         estimate D2E/DX2                !
 ! D282  D(25,27,44,48)       -162.1092         estimate D2E/DX2                !
 ! D283  D(30,27,44,43)        162.0544         estimate D2E/DX2                !
 ! D284  D(30,27,44,48)        -12.0953         estimate D2E/DX2                !
 ! D285  D(12,28,29,13)         26.2308         estimate D2E/DX2                !
 ! D286  D(12,28,29,31)        137.6211         estimate D2E/DX2                !
[...]
 Alpha virt. eigenvalues --    1.76891   1.77156   1.77279   1.77618   1.77901
 Alpha virt. eigenvalues --    1.78304   1.78777   1.79041   1.79607   1.79891
 Alpha virt. eigenvalues --    1.80053   1.80654   1.80791   1.80989   1.81320
 Alpha virt. eigenvalues --    1.81498   1.81553   1.81965   1.82098   1.82340
 Alpha virt. eigenvalues --    1.82557   1.82874   1.83269   1.83485   1.83624
 Alpha virt. eigenvalues --    1.83756   1.84154   1.84337   1.84788   1.84940
 Alpha virt. eigenvalues --    1.85363   1.85489   1.85996   1.86196   1.86607
 Alpha virt. eigenvalues --    1.86672   1.87017   1.87284   1.87650   1.87725
 Alpha virt. eigenvalues --    1.87958   1.88395   1.88628   1.89015   1.89141
 Alpha virt. eigenvalues --    1.89285   1.89317   1.89622   1.89813   1.89956
 Alpha virt. eigenvalues --    1.90550   1.90585   1.91025   1.91252   1.91545
 Alpha virt. eigenvalues --    1.91816   1.92163   1.92268   1.92839   1.92993
 Alpha virt. eigenvalues --    1.93088   1.93213   1.93348   1.93627   1.94189
 Alpha virt. eigenvalues --    1.94469   1.94564   1.95032   1.95240   1.95477
 Alpha virt. eigenvalues --    1.95694   1.95930   1.96305   1.96534   1.97192
 Alpha virt. eigenvalues --    1.97546   1.97680   1.98284   1.98610   1.98718
 Alpha virt. eigenvalues --    1.98923   1.99489   1.99592   2.00108   2.00139
 Alpha virt. eigenvalues --    2.00926   2.01293   2.01611   2.01790   2.02238
 Alpha virt. eigenvalues --    2.02757   2.02873   2.03369   2.03497   2.03924
 Alpha virt. eigenvalues --    2.04421   2.04692   2.05239   2.05342   2.05499
 Alpha virt. eigenvalues --    2.06043   2.06190   2.06507   2.07108   2.07656
 Alpha virt. eigenvalues --    2.07979   2.08377   2.08663   2.08862   2.09710
 Alpha virt. eigenvalues --    2.10164   2.10707   2.11207   2.11537   2.11914
 Alpha virt. eigenvalues --    2.12465   2.12676   2.12886   2.13230   2.13484
 Alpha virt. eigenvalues --    2.13561   2.13939   2.14690   2.14852   2.15144
 Alpha virt. eigenvalues --    2.15522   2.15666   2.16074   2.16576   2.16720
 Alpha virt. eigenvalues --    2.17192   2.17779   2.18255   2.18698   2.19354
 Alpha virt. eigenvalues --    2.19526   2.19969   2.20592   2.20889   2.21384
 Alpha virt. eigenvalues --    2.22027   2.22180   2.22701   2.23547   2.23904
 Alpha virt. eigenvalues --    2.24336   2.24570   2.24807   2.25159   2.25630
 Alpha virt. eigenvalues --    2.25872   2.26314   2.26821   2.27092   2.27304
 Alpha virt. eigenvalues --    2.27558   2.27849   2.28222   2.28400   2.28888
 Alpha virt. eigenvalues --    2.29207   2.29223   2.30030   2.30173   2.30295
 Alpha virt. eigenvalues --    2.30593   2.31029   2.31170   2.31200   2.31601
 Alpha virt. eigenvalues --    2.32035   2.32166   2.32730   2.32933   2.33284
 Alpha virt. eigenvalues --    2.33370   2.33565   2.33863   2.34779   2.34948
 Alpha virt. eigenvalues --    2.35227   2.35449   2.35693   2.36076   2.36191
 Alpha virt. eigenvalues --    2.36552   2.36815   2.36954   2.37434   2.37897
 Alpha virt. eigenvalues --    2.38207   2.38613   2.38979   2.39172   2.39284
 Alpha virt. eigenvalues --    2.39595   2.39731   2.40206   2.40227   2.40513
 Alpha virt. eigenvalues --    2.40860   2.41091   2.41354   2.41532   2.41806
 Alpha virt. eigenvalues --    2.41935   2.42221   2.42399   2.42745   2.42887
 Alpha virt. eigenvalues --    2.43147   2.43244   2.43593   2.43890   2.44146
 Alpha virt. eigenvalues --    2.44596   2.44942   2.45136   2.45512   2.45667
 Alpha virt. eigenvalues --    2.46113   2.46611   2.46908   2.47475   2.47975
 Alpha virt. eigenvalues --    2.48490   2.48925   2.49743   2.49909   2.50615
 Alpha virt. eigenvalues --    2.50755   2.51032   2.51504   2.51652   2.52059
 Alpha virt. eigenvalues --    2.52424   2.53523   2.53646   2.53935   2.54071
 Alpha virt. eigenvalues --    2.54595   2.54649   2.55273   2.55447   2.55804
 Alpha virt. eigenvalues --    2.56287   2.56513   2.57013   2.57527   2.57709
 Alpha virt. eigenvalues --    2.58121   2.58640   2.58921   2.59121   2.59462
 Alpha virt. eigenvalues --    2.59793   2.60164   2.60647   2.60921   2.61228
 Alpha virt. eigenvalues --    2.61523   2.61589   2.61979   2.62282   2.62363
 Alpha virt. eigenvalues --    2.62907   2.63124   2.63391   2.63621   2.63860
 Alpha virt. eigenvalues --    2.64204   2.64541   2.64726   2.64894   2.65127
 Alpha virt. eigenvalues --    2.65435   2.65486   2.65885   2.66090   2.66290
 Alpha virt. eigenvalues --    2.66338   2.66484   2.66782   2.67174   2.67737
 Alpha virt. eigenvalues --    2.67906   2.67990   2.68362   2.68497   2.68730
 Alpha virt. eigenvalues --    2.68836   2.69178   2.69474   2.69967   2.70212
 Alpha virt. eigenvalues --    2.70531   2.70747   2.71366   2.71424   2.71553
 Alpha virt. eigenvalues --    2.72016   2.72366   2.72497   2.73031   2.73418
 Alpha virt. eigenvalues --    2.73914   2.73961   2.74280   2.74685   2.75353
 Alpha virt. eigenvalues --    2.75703   2.76076   2.76365   2.76812   2.77230
 Alpha virt. eigenvalues --    2.77564   2.77714   2.78349   2.78827   2.79346
 Alpha virt. eigenvalues --    2.80289   2.80663   2.81189   2.81422   2.81687
 Alpha virt. eigenvalues --    2.81855   2.82796   2.83165   2.83515   2.84052
 Alpha virt. eigenvalues --    2.84479   2.84711   2.85115   2.85182   2.86256
 Alpha virt. eigenvalues --    2.86592   2.87259   2.87514   2.87872   2.88448
 Alpha virt. eigenvalues --    2.88683   2.89828   2.89877   2.90618   2.91159
 Alpha virt. eigenvalues --    2.91505   2.91663   2.92151   2.92371   2.92860
 Alpha virt. eigenvalues --    2.93037   2.93299   2.93744   2.94079   2.94639
 Alpha virt. eigenvalues --    2.94981   2.95142   2.95398   2.96233   2.96530
 Alpha virt. eigenvalues --    2.96732   2.96946   2.97253   2.98023   2.98050
 Alpha virt. eigenvalues --    2.98857   2.99597   3.00023   3.00545   3.01024
 Alpha virt. eigenvalues --    3.01124   3.01819   3.02306   3.02938   3.03085
 Alpha virt. eigenvalues --    3.03407   3.03699   3.04235   3.05256   3.05555
 Alpha virt. eigenvalues --    3.06760   3.07507   3.07787   3.08022   3.08929
 Alpha virt. eigenvalues --    3.09581   3.10062   3.10739   3.11424   3.11547
 Alpha virt. eigenvalues --    3.11929   3.12471   3.12986   3.13463   3.13829
 Alpha virt. eigenvalues --    3.14528   3.15004   3.15145   3.16366   3.17062
 Alpha virt. eigenvalues --    3.17538   3.17685   3.18630   3.18838   3.19374
 Alpha virt. eigenvalues --    3.20848   3.22063   3.22359   3.23345   3.23840
 Alpha virt. eigenvalues --    3.25351   3.25658   3.27159   3.28288   3.28354
 Alpha virt. eigenvalues --    3.30292   3.31113   3.32140   3.33445   3.34308
 Alpha virt. eigenvalues --    3.34785   3.35461   3.36551   3.39554   3.44984
 Alpha virt. eigenvalues --    3.45316   3.45611   3.46131   3.46210   3.46417
 Alpha virt. eigenvalues --    3.46760   3.47239   3.47579   3.47886   3.48634
 Alpha virt. eigenvalues --    3.48683   3.49087   3.49637   3.49838   3.50123
 Alpha virt. eigenvalues --    3.50365   3.50603   3.51207   3.51702   3.53175
 Alpha virt. eigenvalues --    3.53614   3.54054   3.55291   3.93553   3.94102
 Alpha virt. eigenvalues --    3.94373   3.94803   3.95987   3.96878   3.98152
 Alpha virt. eigenvalues --    3.99923   4.01118   4.02807   4.08068   4.09428
 Alpha virt. eigenvalues --    4.10705   4.13478   4.14256   4.15618   4.16452
 Alpha virt. eigenvalues --    4.17479   4.19352   4.19801   4.20997   4.21629
 Alpha virt. eigenvalues --    4.21840   4.22246   4.23382   4.24426   4.26499
 Alpha virt. eigenvalues --    4.27483   4.28082   4.29387   4.30604   4.31394
 Alpha virt. eigenvalues --    4.32103   4.34035   4.35627   4.36593   4.37445
 Alpha virt. eigenvalues --    4.37778   4.40346   4.40760   4.41521   4.43410
 Alpha virt. eigenvalues --    4.53198   4.55376   4.55806   4.57138   4.58947
 Alpha virt. eigenvalues --    4.59377   4.61134   4.62594   4.63819   4.65009
 Alpha virt. eigenvalues --    4.65958   4.66791   4.66931   4.70018   4.72423
 Alpha virt. eigenvalues --    4.74281   4.75475   4.76240   4.77012   4.77325
 Alpha virt. eigenvalues --    4.78626   4.80016   4.84767   4.87113   4.89835
 Alpha virt. eigenvalues --    4.92888   4.95173   4.95644   4.96085   5.01654
 Alpha virt. eigenvalues --    5.01988   5.03218   5.05083   5.06164   5.08089
 Alpha virt. eigenvalues --    5.08788   5.11203   5.12962   5.14179   5.19963
 Alpha virt. eigenvalues --    5.22099   5.33985
          Condensed to atoms (all electrons):
 Mulliken charges:
               1
     1  C    0.048062
     2  C    0.161493
     3  C    0.062757
     4  C    0.069801
     5  C    0.151790
     6  C    0.149057
     7  C    0.067304
     8  C    0.157326
     9  C    0.051841
    10  C    0.060124
    11  C    0.076159
    12  C    0.149912
    13  C    0.048137
    14  C    0.064730
    15  C    0.149169
    16  C    0.162777
    17  C    0.051064
    18  C    0.068093
    19  C    0.073173
    20  C    0.157037
    21  C    0.162948
    22  C    0.059615
    23  C    0.069878
    24  C    0.153045
    25  C    0.027700
    26  C    0.062925
    27  C    0.072175
    28  C    0.024484
    29  C    0.171922
    30  C    0.047857
    31  C    0.049015
    32  C    0.071686
    33  C    0.058954
    34  C    0.164036
    35  C    0.158889
    36  C    0.150271
    37  C    0.062716
    38  C    0.058423
    39  C    0.160592
    40  C    0.064200
    41  C    0.152704
    42  C    0.058509
    43  C    0.170218
    44  C    0.031394
    45  C    0.043460
    46  C    0.183200
    47  C    0.095184
    48  C    0.195242
    49  C    0.058538
    50  C    0.061156
    51  C    0.128672
    52  C    0.064482
    53  C    0.152775
    54  C    0.066186
    55  C    0.166324
    56  C    0.074527
    57  C    0.187117
    58  C    0.110810
    59  C    0.156233
    60  C    0.031412
    61  O   -0.598733
    62  H    0.355342
    63  O   -0.604551
    64  H    0.348857
    65  O   -0.601420
    66  H    0.353528
    67  O   -0.602647
    68  H    0.353320
    69  O   -0.602380
    70  H    0.353303
    71  O   -0.601615
    72  H    0.353271
    73  O   -0.605547
    74  H    0.348915
    75  O   -0.607545
    76  H    0.353379
    77  O   -0.607108
    78  H    0.353512
    79  O   -0.604871
    80  H    0.349427
    81  O   -0.605397
    82  H    0.354899
    83  O   -0.597131
    84  H    0.355406
    85  O   -0.614061
    86  H    0.352289
    87  O   -0.605074
    88  H    0.350142
    89  O   -0.601970
    90  H    0.372645
    91  O   -0.614018
    92  H    0.351232
    93  O   -0.603114
    94  H    0.349522
    95  O   -0.601369
    96  H    0.353556
    97  O   -0.606931
    98  H    0.355327
    99  O   -0.596970
   100  H    0.351852
   101  O   -0.604502
   102  H    0.349592
   103  O   -0.601253
   104  H    0.352898
   105  O   -0.606384
   106  H    0.354042
   107  O   -0.602966
   108  H    0.352023
 Sum of Mulliken charges =  -0.00000
 Mulliken charges with hydrogens summed into heavy atoms:
               1
     1  C    0.048062
     2  C    0.161493
     3  C    0.062757
     4  C    0.069801
     5  C    0.151790
     6  C    0.149057
     7  C    0.067304
     8  C    0.157326
     9  C    0.051841
    10  C    0.060124
    11  C    0.076159
    12  C    0.149912
    13  C    0.048137
    14  C    0.064730
    15  C    0.149169
    16  C    0.162777
    17  C    0.051064
    18  C    0.068093
    19  C    0.073173
    20  C    0.157037
    21  C    0.162948
    22  C    0.059615
    23  C    0.069878
    24  C    0.153045
    25  C    0.027700
    26  C    0.062925
    27  C    0.072175
    28  C    0.024484
    29  C    0.171922
    30  C    0.047857
    31  C    0.049015
    32  C    0.071686
    33  C    0.058954
    34  C    0.164036
    35  C    0.158889
    36  C    0.150271
    37  C    0.062716
    38  C    0.058423
    39  C    0.160592
    40  C    0.064200
    41  C    0.152704
    42  C    0.058509
    43  C    0.170218
    44  C    0.031394
    45  C    0.043460
    46  C    0.183200
    47  C    0.095184
    48  C    0.195242
    49  C    0.058538
    50  C    0.061156
    51  C    0.128672
    52  C    0.064482
    53  C    0.152775
    54  C    0.066186
    55  C    0.166324
    56  C    0.074527
    57  C    0.187117
    58  C    0.110810
    59  C    0.156233
    60  C    0.031412
    61  O   -0.243391
    63  O   -0.255694
    65  O   -0.247892
    67  O   -0.249327
    69  O   -0.249077
    71  O   -0.248344
    73  O   -0.256632
    75  O   -0.254166
    77  O   -0.253597
    79  O   -0.255444
    81  O   -0.250498
    83  O   -0.241725
    85  O   -0.261771
    87  O   -0.254932
    89  O   -0.229326
    91  O   -0.262786
    93  O   -0.253592
    95  O   -0.247813
    97  O   -0.251604
    99  O   -0.245118
   101  O   -0.254909
   103  O   -0.248356
   105  O   -0.252342
   107  O   -0.250943
 Electronic spatial extent (au):  <R**2>=          39373.4499
 Charge=              0.0000 electrons
 Dipole moment (field-independent basis, Debye):
    X=              1.6603    Y=              0.9907    Z=             -2.5019  Tot=              3.1619
 Quadrupole moment (field-independent basis, Debye-Ang):
   XX=           -428.5114   YY=           -504.9008   ZZ=           -469.1589
   XY=             -4.6491   XZ=              4.9552   YZ=             -6.9737
 Traceless Quadrupole moment (field-independent basis, Debye-Ang):
   XX=             39.0123   YY=            -37.3771   ZZ=             -1.6352
   XY=             -4.6491   XZ=              4.9552   YZ=             -6.9737
 Octapole moment (field-independent basis, Debye-Ang**2):
  XXX=             50.5450  YYY=             -6.8201  ZZZ=            -39.9210  XYY=              5.5923
  XXY=            -40.8973  XXZ=            -38.1774  XZZ=             31.5629  YZZ=             83.7636
  YYZ=             17.3590  XYZ=             66.6906
 Hexadecapole moment (field-independent basis, Debye-Ang**3):
 XXXX=         -15811.1539 YYYY=         -16806.6944 ZZZZ=         -15841.6585 XXXY=            157.0590
 XXXZ=           -221.7260 YYYX=            -58.8699 YYYZ=           -228.5837 ZZZX=            330.9790
 ZZZY=             69.1339 XXYY=          -6008.9581 XXZZ=          -5071.3527 YYZZ=          -5770.5827
 XXYZ=            -83.1026 YYXZ=             50.2308 ZZXY=           -280.3115
 N-N= 1.794268881740D+04 E-N=-4.547222962665D+04  KE= 4.070869767148D+03
 Leave Link  601 at Tue May 24 04:40:14 2022, MaxMem=  1342177280 cpu:              60.7 elap:               3.0
 (Enter /home/mkliu/g16/l9999.exe)
 1\1\GINC-NODE04\FOpt\RB3LYP\6-31G(d,p)\C60H24O24\MKLIU\24-May-2022\0\\
 #P opt b3lyp/6-31G(d, p) empiricaldispersion=GD3 scrf=SMD Guess=TCheck
  Geom=allcheck\\force\\0,1\C,0.2302924942,-0.0882902341,-3.4724189853\
 C,0.3382290022,1.4318081765,-3.5081171249\C,-1.0460628972,1.8208167006
 ,-2.9612211323\C,-1.0242938464,-0.5074323447,-3.2935670411\C,-2.011156
 3054,0.6479709499,-3.1612040296\C,-1.3929252168,-1.9381776256,-2.98276
 70889\C,-0.1726951863,-2.6904732449,-2.4484709038\C,1.4365061395,-0.99
 58123537,-3.4146634987\C,1.0805514366,-2.2758018116,-2.6390803935\C,2.
 4538212662,-0.3675239769,-2.463322987\C,1.4101702222,1.8728166334,-2.5
 508059414\C,2.7218252897,1.1177809598,-2.3865150176\C,1.2327032292,2.7
 99796519,-1.6085414518\C,-1.2231607211,2.7470677352,-2.0146648871\C,-0
 .0669868877,3.5298463755,-1.3839631117\C,-2.4131448303,2.7392300886,-1
 .0386058769\C,-2.8336172641,0.4377153539,-1.9193470145\C,-3.0261097511
 ,1.3665029274,-0.9836771172\C,-2.2879965941,-1.9583483532,-1.747078554
 2\C,-3.3585862616,-0.9293629041,-1.5049787478\C,-0.5934921752,-3.55213
 22347,-1.2448607961\C,-1.859815873,-2.8158452995,-0.8197881826\C,0.431
 935372,-3.4556672157,-0.143711619\C,2.22185905,-2.6163340905,-1.670545
 8122\C,2.8191489145,-1.2292847692,-1.4990379711\C,1.6897602271,-3.0552
 282634,-0.3318540234\C,3.281108229,-0.7522609955,-0.2185265774\C,3.108
 417496,1.5550429545,-0.969830901\C,2.3991756737,2.8708798987,-0.624893
 5534\C,3.4383575597,0.676233828,-0.0095763361\C,1.8498297553,2.7925734
 048,0.7786111809\C,-0.4367185452,3.4274287521,0.093212096\C,-1.6890778
 216,3.0063114317,0.276777362\C,0.5840528014,3.5350040131,1.1971673847\
 C,-2.245962061,2.5827060373,1.6102557258\C,-3.6976794798,0.8056215665,
 0.2642594401\C,-3.5529279069,-0.6979831237,0.00362549\C,-2.8813398725,
 1.2043857742,1.4663181354\C,-2.4026042091,-2.8724307884,0.5818671623\C
 ,-3.1218723932,-1.5580941807,0.9293756866\C,0.0629272086,-3.5338001304
 ,1.333674306\C,-1.2380261345,-2.8092189184,1.5602406535\C,2.4130840459
 ,-2.7679547557,0.9914930139\C,3.0284732738,-1.3972545847,0.9423269887\
 C,1.2211097533,-2.742358201,1.9474208191\C,3.4024419718,0.9616695937,1
 .5000288901\C,2.2607276603,1.9248760295,1.7093461379\C,3.202346086,-0.
 5096225827,2.1478747298\C,0.1534404584,2.6781120249,2.3987977355\C,-1.
 0984507714,2.2514192755,2.5774482446\C,1.3707379131,1.9200716541,2.932
 3622641\C,-2.4600253403,0.3450758618,2.3952296322\C,-2.7355500442,-1.1
 375866074,2.3517610278\C,-1.416698624,-1.8895352527,2.5087077073\C,-1.
 4422631286,0.9640994824,3.3385650427\C,1.0570173244,-1.8138266802,2.89
 01135609\C,2.0185979415,-0.6539834149,3.1991967715\C,1.0159458364,0.49
 07194891,3.2111974159\C,-0.3300512159,-1.4478803409,3.4499094531\C,-0.
 234772962,0.068221382,3.3994646973\O,0.6787341035,1.9275423085,-4.8118
 45923\H,0.0319634956,1.557955859,-5.4344405651\O,-0.0332686302,4.88316
 48744,-1.861202106\H,0.6565623561,5.3431976836,-1.3556428953\O,-3.4551
 973249,3.6839890672,-1.3103945733\H,-3.0591581596,4.5680593366,-1.2498
 441594\O,3.1530311993,4.0825550362,-0.7506439553\H,3.458978274,4.12519
 41798,-1.670794312\O,0.8113065108,4.9251687487,1.4621522986\H,1.540329
 608,4.9749764149,2.1013972226\O,-3.1783196724,3.5781451803,2.052509597
 8\H,-3.5599874182,3.2538200021,2.8840818664\O,-5.0765689495,1.18737931
 12,0.3815328287\H,-5.0948810792,2.1551888589,0.4613966701\O,-2.8299756
 42,0.8275981316,-4.3284575792\H,-3.5039392111,0.1286686457,-4.31464434
 7\O,3.728734223,1.5355255225,-3.3287878805\H,3.3415908558,1.4573954473
 ,-4.215798329\O,1.9515023942,2.584228872,4.065515151\H,2.7618910735,2.
 1006711082,4.2949116226\O,-2.0563675366,1.15087655,4.6224812014\H,-1.3
 687167234,1.4814324531,5.2225257631\O,-4.5241435103,-1.3115801616,-2.2
 522066968\H,-5.1719958401,-0.5935219973,-2.1593939605\O,4.576533707,1.
 5697434459,2.0182595426\H,5.1297204734,0.8273698591,2.3290086443\O,-3.
 7312386551,-1.5447774229,3.3023662433\H,-3.3818783541,-1.334587934,4.1
 838170824\O,4.4234947927,-0.8448901076,2.8357191794\H,4.7934569261,-1.
 647994565,2.4368593268\O,2.5549786907,-0.7314286119,4.5214025184\H,3.4
 611622502,-1.0777031667,4.4112825117\O,-0.6249569417,-1.9567925586,4.7
 569921263\H,0.0566023275,-1.6087209242,5.3541766656\O,-3.1789893084,-4
 .0697114654,0.719480074\H,-3.4660865118,-4.113375654,1.6456634574\O,-1
 .9666229345,-2.6232948785,-4.1071419361\H,-2.8058508786,-2.1833875754,
 -4.319699988\O,3.4385261789,-3.713726494,1.3209799773\H,3.004975229,-4
 .5746556201,1.4372366255\O,0.0397979081,-4.8795354417,1.8365649303\H,-
 0.6368056699,-5.3578552922,1.329965806\O,-0.8238212589,-4.9399806736,-
 1.5207007878\H,-1.5517298571,-4.9836702513,-2.161776264\O,1.9600676147
 ,-1.3070347829,-4.7139534565\H,2.1491184099,-0.4630365546,-5.154756591
 5\O,3.1646129142,-3.5839577584,-2.1424139388\H,3.5188802623,-3.2459442
 131,-2.9805246884\\Version=ES64L-G16RevA.03\State=1-A\HF=-4106.0973984
 \RMSD=7.859e-10\RMSF=8.328e-06\Dipole=1.2365545,0.1265767,0.0492197\Qu
 adrupole=3.0433627,-28.4939116,25.4505489,-3.2602895,10.3155937,-2.898
 3513\PG=C01 [X(C60H24O24)]\\@


 The lyf so short, the craft so long to lerne.
                             -- Chaucer
 Job cpu time:       4 days 11 hours  4 minutes 56.7 seconds.
 Elapsed time:       0 days  4 hours 32 minutes  9.2 seconds.
 File lengths (MBytes):  RWF=   1703 Int=      0 D2E=      0 Chk=    157 Scr=      1
 Normal termination of Gaussian 16 at Tue May 24 04:40:16 2022.
