69
 energy: -142.772481780110 gnorm: 0.138553308020 xtb: 6.4.1 (a3dbbd7)
C        -1.22343401285005    1.78726750953775   -3.68821593085614
C         0.14037346425109    2.09822890455349   -3.77408885513892
C         0.93659412337799    0.90542926401435   -4.26809194012218
C        -1.36733661352118    0.36580554371435   -3.95356010760293
C        -0.10404378677211   -0.18099330403082   -4.20774494985156
C        -2.24433223408863   -0.18540647706783   -3.00104421658167
C        -2.00596432954362    2.12333953066235   -2.57994926474477
C        -2.70163242097586    0.90070138873887   -2.16681523793411
C        -1.45690647260473    2.96103939632871   -1.56561350514431
C         0.74800658491500    2.67038389025335   -2.66483839207495
C        -0.03019182880492    3.23970859278797   -1.61453193222631
C         1.92621342601234    0.72423937599726   -3.13191946525794
C         1.90914808334052    1.85408159184985   -2.32686711873109
C         2.27448249613605   -0.53993408298210   -2.58995345207955
C         0.18973482426872   -1.39564210574234   -3.64023619460266
C         1.47975507746169   -1.64326845605133   -2.99665584004465
C        -1.99151403216488   -1.46013526743951   -2.45027149139324
C        -0.81290137942444   -2.11254259856421   -2.91122317348871
C        -2.47167556875295   -1.73501409072718   -1.11713694731074
C        -3.08894451792354    0.67382559963609   -0.86940348608991
C        -3.05728634636580   -0.65872576570322   -0.33171225016793
C        -2.07653554882016    2.90080088967791   -0.31348109139672
C        -3.18998951670301    1.91018165278539    0.01098785877450
C        -1.39544915901181    3.24623588970295    0.86062708920939
C         0.65513402045730    3.44295773201149   -0.40860493824082
C        -0.02848137596627    3.56101055571684    0.82488057862160
C         2.46660475716746    1.86082852239880   -1.02100801268613
C         1.94047886304168    2.81902317703595   -0.14052319899019
C         2.91261886910212   -0.57460317893994   -1.28690382195433
C         3.05936456714315    0.64729642630355   -0.51850153879487
C         2.90025641624944   -1.79595449673603   -0.57855221958573
C         1.28590409682377   -2.74042499861356   -2.12565547284511
C        -0.12741991619912   -3.04152308535876   -2.07236471779981
C         2.04620765408583   -2.87270222566846   -0.97361396456431
C        -1.90834880017357   -2.82979732445780   -0.43117830489265
C        -0.69799541369352   -3.46215435123428   -0.89431894577481
C        -1.88646869283658   -2.90086939242179    0.99076034563891
C        -3.11193988154627   -0.80394275791893    1.07006156034958
C        -2.49918702755583   -1.90329644063482    1.73353649713577
C        -2.90783238634538    1.61346265811444    1.45686334603861
C        -1.92305600538995    2.49885838272304    1.97272650358300
C        -2.99395869449688    0.33997652398716    1.95993694322989
C        -1.09457662598381    2.11971989147574    3.02708909301107
C         0.82928756162205    3.10686418868949    1.88385474868040
C         2.05028083796966    2.65364565392702    1.26618340896586
C         0.31493151422944    2.42584084706346    2.97412571207026
C         3.24426743458395    0.56085727499137    0.87969366894943
C         2.72092259452502    1.54965068436016    1.77160803352381
C         3.00247926734199   -1.85381305201649    0.85396903359780
C         3.19153874007859   -0.69494850054062    1.57363246616186
C         1.48553377340015   -3.47816989006309    0.20657437890452
C         0.12557670910167   -3.77197855681947    0.24825654799111
C        -0.63252538207893   -3.46523598755578    1.42649412053624
C         2.11456529710894   -2.87588318255417    1.34906179090618
C        -0.00922925215527   -2.95707542209014    2.55947011474767
C         1.39926009710929   -2.65622034976428    2.51942166390928
C        -1.89710217468878   -1.44591428201372    2.96167526714708
C        -2.19731017302996   -0.05029565202452    3.09141156991070
C        -1.24445980912763    0.82303495882507    3.61119090095809
C        -0.65788532316802   -1.93965750262627    3.34701583766987
C         1.03313200800564    1.30907546715396    3.53429747170180
C         2.23055788447719    0.89535360889769    2.96038615732993
C         2.52581953127685   -0.50390420461054    2.83767562244816
C         1.61714685279929   -1.45487397605941    3.28570060491515
C         0.06628553621742    0.32517001003774    3.95289195612789
C         0.35210698976663   -1.02814407072199    3.82598552805894
H         1.42743842158925    1.01532467052605   -5.23672998884851
H        -4.18364449079296    2.35491899196940   -0.12872126461159
H        -3.41481076112882   -2.22080619088701   -1.40782930070939
69
 energy: -142.797923370077 gnorm: 0.074400184206 xtb: 6.4.1 (a3dbbd7)
C        -1.21768957651864    1.78770823940537   -3.69077211393907
C         0.14439055420485    2.10158658210322   -3.77723602665827
C         0.94200740572456    0.90947182133271   -4.27135025648635
C        -1.35863343825758    0.36994406878798   -3.96385258749805
C        -0.09651895145225   -0.17700835805842   -4.21498855453390
C        -2.23766219068587   -0.18258790814222   -3.01127921967500
C        -2.00317827054259    2.12169819001497   -2.58025134131120
C        -2.69099104827794    0.90266954349401   -2.16608776903246
C        -1.45561632159948    2.96108343877232   -1.56348644381595
C         0.74938440727281    2.67144832081784   -2.66409866174855
C        -0.02992938201772    3.24001781453361   -1.61356573759183
C         1.92995383633871    0.72642876339929   -3.13318372747013
C         1.91019263180689    1.85648685649189   -2.32628965916751
C         2.27713426822902   -0.53647820278170   -2.59166738430112
C         0.19999532494508   -1.39246573113171   -3.64635245255011
C         1.48352051355262   -1.64157041349136   -3.00053804121702
C        -1.98236299553610   -1.45361340336112   -2.47355571886344
C        -0.80331080648318   -2.10585563621818   -2.91463321049480
C        -2.57665930444494   -1.79120844282843   -1.15273915501603
C        -3.07703490321203    0.68289106257646   -0.86098731347330
C        -3.05013862466480   -0.63730177443969   -0.31615339660156
C        -2.07611490692547    2.90556774202757   -0.31274649875401
C        -3.19354298126186    1.92036449698850    0.01462366856009
C        -1.39436762857105    3.24984782776070    0.86232770701235
C         0.65532726537807    3.44388532676817   -0.40771599115377
C        -0.02818667170523    3.56209036975606    0.82622972640602
C         2.46625365090478    1.86265469044815   -1.02073786149887
C         1.94004686218330    2.82034093120856   -0.13985771758872
C         2.91203421631231   -0.57236001183507   -1.28722138969996
C         3.05898597938714    0.64825734374477   -0.51839493735497
C         2.90078500337626   -1.79514357160410   -0.57821449439849
C         1.28552321579893   -2.73717016299044   -2.12524163941135
C        -0.12289558129486   -3.03635493277821   -2.07031520784539
C         2.04736852252603   -2.87140778956178   -0.97165480642061
C        -1.90379289354089   -2.86339311379113   -0.41880027479722
C        -0.68955032036249   -3.46105738945338   -0.88289165831489
C        -1.87499607156941   -2.90724154285451    1.00095791958489
C        -3.10797669164870   -0.79414464355699    1.07569837810053
C        -2.49149840495704   -1.90383048663721    1.73810149519502
C        -2.90981011535433    1.62164745314064    1.46082540264690
C        -1.92297602849661    2.50296996319584    1.97449013936092
C        -2.99435977289762    0.34611820789273    1.96411052684998
C        -1.09363809521548    2.12120462296783    3.02853775337782
C         0.83016891696957    3.10767048061208    1.88509577769609
C         2.04991353336747    2.65479167509032    1.26737563680762
C         0.31543775850885    2.42642166850740    2.97565143312334
C         3.24447392043101    0.56173815623895    0.87985112948200
C         2.72147813733678    1.55022776436159    1.77257677350555
C         3.00478429522813   -1.85286742016545    0.85407167875068
C         3.19281706099732   -0.69394757148539    1.57353694393980
C         1.49153896322136   -3.47935070658351    0.20993543050784
C         0.13350557544221   -3.77823209755916    0.25711542573080
C        -0.62310381057394   -3.47275974126246    1.43653631530622
C         2.11917705537501   -2.87559633287031    1.35157376648806
C        -0.00159087710145   -2.95942430030642    2.56779593577297
C         1.40516040377617   -2.65650692385289    2.52311172527029
C        -1.89393030734628   -1.44626846700982    2.96210374936820
C        -2.19466675695061   -0.04952089424585    3.09038292026694
C        -1.24245823891037    0.82377200729520    3.61040335855828
C        -0.65221127778785   -1.94185914308927    3.35206796260853
C         1.03385118172590    1.30939170030833    3.53493540217492
C         2.23185363393987    0.89646642046446    2.96062294335957
C         2.52771566097229   -0.50313897921754    2.83803791829905
C         1.62107296655354   -1.45409261432324    3.28783138863717
C         0.06805216648713    0.32539419080902    3.95369293744924
C         0.35501930032424   -1.02858847861027    3.82803890708800
H         1.43312360884835    1.01892794657748   -5.23953666294765
H        -4.18782963631442    2.36359231258905   -0.12772568308902
H        -3.53518649461554   -2.27214278857716   -1.44393869490003
69
 energy: -142.807281309542 gnorm: 0.021284556317 xtb: 6.4.1 (a3dbbd7)
C        -1.21318618104677    1.78790760455255   -3.68922173252439
C         0.14614907796225    2.10526467516176   -3.77833683917226
C         0.94464450628550    0.91258143594395   -4.27168287720214
C        -1.35321288512780    0.37039829955261   -3.96286707139542
C        -0.09268238814036   -0.17574474620509   -4.21688551101145
C        -2.23490065972306   -0.18799634803589   -3.01461259660264
C        -1.99965896791115    2.11685459280342   -2.57503053755061
C        -2.68821060661504    0.90259152875149   -2.16700469871549
C        -1.45283361457272    2.96403141174265   -1.56085621462892
C         0.75130952310482    2.67367627526882   -2.66255498328429
C        -0.02718791601975    3.24212904089765   -1.61259272755550
C         1.93078774133276    0.72877879661010   -3.13176461360108
C         1.91087993095805    1.85878973756822   -2.32475998466003
C         2.27896788916243   -0.53372965524703   -2.58891039880493
C         0.20309837948444   -1.38808322204510   -3.64337442587227
C         1.48508966103211   -1.63773619410252   -2.99600457296381
C        -1.98236381227119   -1.45570295413461   -2.49150964263826
C        -0.80311561222609   -2.09589575171083   -2.91026752315637
C        -2.71523761344724   -1.86476259649378   -1.20203106319674
C        -3.06532452013499    0.68041959776101   -0.85712820955075
C        -3.04548451877542   -0.62700531149815   -0.30992434998903
C        -2.07237739682275    2.91311330038484   -0.31162501533269
C        -3.18266044663291    1.92039197342124    0.01405910331508
C        -1.39037767997541    3.25506284620010    0.86418229403388
C         0.65891203069090    3.44628292715417   -0.40671835689630
C        -0.02424760092705    3.56505834785219    0.82757217643399
C         2.46755771311624    1.86471549124097   -1.01881935496389
C         1.94246196115854    2.82257382151556   -0.13881322808352
C         2.91518154370413   -0.56922343999478   -1.28431574142839
C         3.06093920913179    0.65024583149448   -0.51614622131179
C         2.90358839662099   -1.79267239482254   -0.57468974645477
C         1.28361806484857   -2.73263503163684   -2.11886730011704
C        -0.11991615454855   -3.03079038965116   -2.06573501315885
C         2.05386756232023   -2.86994469186526   -0.96708296730582
C        -1.90286500011077   -2.88455221028583   -0.41505116659702
C        -0.68615924093278   -3.44658335804172   -0.87358942690144
C        -1.86772606731250   -2.90754781422210    0.99403785200770
C        -3.09476154786065   -0.78712646502946    1.06843638120999
C        -2.48841649866654   -1.90735099227608    1.73775195366554
C        -2.90374999047447    1.62716926112523    1.46188229911297
C        -1.92043456730234    2.50842527970083    1.97659499263302
C        -2.98513144064612    0.34945312615082    1.96236419412409
C        -1.09001485610786    2.12351399130583    3.03061905337344
C         0.83350067526853    3.10959827548834    1.88657490900062
C         2.05185343463931    2.65755718849663    1.26954189205724
C         0.31744888200257    2.42805685487953    2.97775641192248
C         3.24709421113684    0.56483380583694    0.88241072233255
C         2.72322792961835    1.55245629486088    1.77452998934190
C         3.01092290732141   -1.84983949585193    0.85825921938686
C         3.19709925883515   -0.69050879704139    1.57675425440897
C         1.50076086217958   -3.47711029598661    0.21451634642008
C         0.14331423315934   -3.77490469577745    0.26323296892725
C        -0.61345663910060   -3.47184144157088    1.43836568615192
C         2.12859804751900   -2.87415061593413    1.35695732750908
C         0.00571762161635   -2.95767510120588    2.57030777791238
C         1.41325907754380   -2.65559687250223    2.52764040341896
C        -1.88884055769906   -1.44665462026197    2.95322925218941
C        -2.18825801619258   -0.04840180778110    3.08715977191098
C        -1.23839693875069    0.82482809912734    3.61052000804942
C        -0.64648072646820   -1.94369342471677    3.35495456527744
C         1.03582274530805    1.31021552570130    3.53670428748433
C         2.23428323219702    0.89894064767771    2.96255793931497
C         2.53163032782934   -0.50048833691871    2.84113082839959
C         1.62629390943436   -1.45193569215653    3.29103898706720
C         0.07141787895710    0.32630896004556    3.95666735103497
C         0.35764068531520   -1.02834578882570    3.82911724024950
H         1.43790557417860    1.02317907444765   -5.23879410988328
H        -4.17881184463233    2.35715322883705   -0.13077866051285
H        -3.68072375744598   -2.32603856992069   -1.48889566898867
69
 energy: -142.807954188574 gnorm: 0.009637994707 xtb: 6.4.1 (a3dbbd7)
C        -1.21176051582735    1.78585087330089   -3.68622080936275
C         0.14757784302882    2.10432227258308   -3.77557535767166
C         0.94670358407272    0.91263870889824   -4.26957757743329
C        -1.35441145883099    0.36848728162730   -3.95943958466568
C        -0.09268984693432   -0.17540870376509   -4.21338855856609
C        -2.24224345414860   -0.19292148819253   -3.01727819975976
C        -1.99766063828381    2.11237120248141   -2.57187968336839
C        -2.69240040944864    0.89900027286203   -2.16940551627476
C        -1.44953957486020    2.96076611050952   -1.55978757677629
C         0.75401220321603    2.67503824771915   -2.66143619527034
C        -0.02439642375464    3.24264008621708   -1.61136229603321
C         1.93312617560865    0.73111917423476   -3.12978018890603
C         1.91430076265785    1.86134591976458   -2.32352831425040
C         2.27925747436375   -0.53143204609440   -2.58580490509719
C         0.19876322637884   -1.38628923667910   -3.63736832908852
C         1.48221181911840   -1.63386078725243   -2.99049334239575
C        -1.99978928617636   -1.46763869738103   -2.49572903179362
C        -0.81155325487861   -2.09771058275330   -2.91002785312770
C        -2.71966861309391   -1.86850707739627   -1.20494790370514
C        -3.07219913837905    0.67154033656004   -0.86128776403647
C        -3.06552388144823   -0.64084046203647   -0.31898225867581
C        -2.06828498150747    2.90859298568658   -0.31093584281382
C        -3.17788919361005    1.91408411648360    0.01127151155930
C        -1.38757830683866    3.25470793099365    0.86466899996393
C         0.66172908967372    3.44845607463312   -0.40543365975729
C        -0.02164490503474    3.56699416083061    0.82884088497678
C         2.47133507822814    1.86787785859683   -1.01709219542609
C         1.94587582013005    2.82560613019403   -0.13710929002729
C         2.91759704739484   -0.56606373526718   -1.28221409213662
C         3.06469444282115    0.65355982385356   -0.51429923054890
C         2.90471944063945   -1.78949345856844   -0.57351007157475
C         1.27989986154760   -2.72827425782046   -2.11483891062964
C        -0.12415560661932   -3.03054938402687   -2.06509703289275
C         2.05287973364038   -2.86556119569204   -0.96565707108120
C        -1.91588633131909   -2.88687684480487   -0.42038013790024
C        -0.69440127761461   -3.44643962383015   -0.87624284707444
C        -1.87611161083838   -2.91036754268176    0.98934229582297
C        -3.09971990351762   -0.79374610235119    1.06410333089180
C        -2.49182616518309   -1.90958453564247    1.73682793044538
C        -2.89753040893649    1.62314475401614    1.45845507783909
C        -1.91718292973672    2.50741728617765    1.97614681492133
C        -2.97842735931280    0.34581754195097    1.95697751499033
C        -1.08694447561911    2.12408882382155    3.03061374876547
C         0.83638303487697    3.11213929584903    1.88819386265139
C         2.05533112393071    2.66041880681902    1.27140461789091
C         0.32050181585190    2.43010008016709    2.97897390214550
C         3.25093451881704    0.56774768013583    0.88434776786889
C         2.72689123884030    1.55533440930374    1.77636498780456
C         3.01315131448155   -1.84751446983092    0.85940662833877
C         3.20052025592864   -0.68821751452494    1.57819889433672
C         1.49852729202799   -3.47245149678541    0.21471419656613
C         0.13987598536618   -3.76880648973503    0.26115963506457
C        -0.61634240558048   -3.46730430840502    1.43543502778559
C         2.12973017513509   -2.87190735339193    1.35698757340739
C         0.00584893811169   -2.95481758032397    2.56731714019339
C         1.41426795572954   -2.65360413664882    2.52732473070999
C        -1.88607330571910   -1.44648729301114    2.94990286054928
C        -2.18376137040574   -0.04874724147125    3.08396651731843
C        -1.23518660310603    0.82517248507252    3.60957004686456
C        -0.64472134212591   -1.94157409077334    3.35352285197389
C         1.03937503901480    1.31244353820379    3.53825059030029
C         2.23800214398124    0.90128366097842    2.96455081286021
C         2.53494503125219   -0.49842446804799    2.84268513188170
C         1.62881558085908   -1.45029007034461    3.29150347919642
C         0.07466337054216    0.32804129488512    3.95710656786346
C         0.35998439172934   -1.02641828341333    3.82865666854948
H         1.44137692847001    1.02462422282146   -5.23607196922500
H        -4.17339294409210    2.35279404013576   -0.13326064954739
H        -3.68527339433266   -2.32714890361572   -1.49116246773852
69
 energy: -142.808071495057 gnorm: 0.004247109521 xtb: 6.4.1 (a3dbbd7)
C        -1.21089193011565    1.78449609468210   -3.68460013819728
C         0.14784820018662    2.10393350542320   -3.77459533064394
C         0.94721423360058    0.91257297620499   -4.26872041808550
C        -1.35475583787882    0.36709076780837   -3.95711491008139
C        -0.09239427284677   -0.17568626154736   -4.21275411625631
C        -2.24444617956208   -0.19512891220485   -3.01777602997276
C        -1.99632963641343    2.10989481678539   -2.56991033838656
C        -2.69442866665154    0.89820375074564   -2.17070951482426
C        -1.44793157718156    2.95970045386717   -1.55967632989502
C         0.75530375436818    2.67591509100045   -2.66148213785483
C        -0.02295908256374    3.24331464146052   -1.61146706226243
C         1.93401677280288    0.73191833722351   -3.12924276977523
C         1.91582797175287    1.86240968354008   -2.32363118491254
C         2.27949568571497   -0.53066855048750   -2.58454410943023
C         0.19666568552303   -1.38543502804114   -3.63466663179886
C         1.48058965164473   -1.63196003952468   -2.98706263738984
C        -2.00625310474458   -1.47280042131306   -2.49634519974391
C        -0.81492914733297   -2.09680415403954   -2.90850696796738
C        -2.72726911542795   -1.87417157388960   -1.20841594881682
C        -3.07180303851676    0.66727325742026   -0.86229933355635
C        -3.07040836133398   -0.64660032649960   -0.32259574876521
C        -2.06617983145383    2.90642704907743   -0.31089887985177
C        -3.17427140497908    1.91089846887388    0.01104841794686
C        -1.38686270288203    3.25494139256892    0.86502066420439
C         0.66274849130127    3.44962610934862   -0.40521295894191
C        -0.02086612937057    3.56805709661004    0.82911169230623
C         2.47273686778029    1.86907592991926   -1.01660997277955
C         1.94694533153442    2.82668266256887   -0.13673160439602
C         2.91902073981778   -0.56483424651563   -1.28134657017247
C         3.06613092940716    0.65493124536003   -0.51368168853214
C         2.90585240256173   -1.78813265253001   -0.57307557783401
C         1.27843550885783   -2.72626848843147   -2.11246945955309
C        -0.12518188008029   -3.03076034418201   -2.06466039292751
C         2.05347971296200   -2.86383341351035   -0.96500356145754
C        -1.92158511402680   -2.88719917243380   -0.42271041646874
C        -0.69819874625115   -3.44461447830833   -0.87752936783973
C        -1.88050296080560   -2.91131526999087    0.98556205227421
C        -3.09805861120853   -0.79624815388139    1.06159548624384
C        -2.49396810746639   -1.91095415014049    1.73748615280062
C        -2.89458136239725    1.62121075153575    1.45778805417868
C        -1.91616148640153    2.50770191280987    1.97653443487320
C        -2.97445738784462    0.34436333882494    1.95475896338902
C        -1.08592833471455    2.12449467260084    3.03087137588898
C         0.83712506497293    3.11321364448222    1.88871346586998
C         2.05626771566622    2.66140522019447    1.27197702499144
C         0.32140019231143    2.43121473161109    2.97960109257244
C         3.25220096095142    0.56885921829389    0.88510548449932
C         2.72775260889525    1.55631665054594    1.77689017768674
C         3.01467379280346   -1.84674705539155    0.85997769953315
C         3.20186258727325   -0.68737508344071    1.57884608107127
C         1.49838067092210   -3.47040441198927    0.21477851234098
C         0.13909194544744   -3.76425315289498    0.26017541189177
C        -0.61701072429818   -3.46384875520623    1.43335943872083
C         2.13057563610256   -2.87104769156272    1.35700537093923
C         0.00577401228454   -2.95333266075437    2.56559731999876
C         1.41441751014201   -2.65274181617564    2.52695867785269
C        -1.88495932765929   -1.44686827073614    2.94852005166341
C        -2.18130358397904   -0.04911759076183    3.08246468961777
C        -1.23405840664597    0.82541209326682    3.60958772997399
C        -0.64431480713573   -1.94084194219035    3.35349874604620
C         1.04043168942440    1.31343994892181    3.53905096972819
C         2.23889345360476    0.90208349797123    2.96535831957958
C         2.53583342722653   -0.49770714588813    2.84338104124444
C         1.62933728677406   -1.44971505887403    3.29178040943925
C         0.07571848842555    0.32885433724545    3.95781798751696
C         0.36046140812644   -1.02557058853044    3.82869813916117
H         1.44236914665114    1.02524709854717   -5.23481837118909
H        -4.17005646882719    2.34939153577156   -0.13381725012475
H        -3.69393378847243   -2.32729709543506   -1.49405231769543
69
 energy: -142.808090760386 gnorm: 0.001703454289 xtb: 6.4.1 (a3dbbd7)
C        -1.21096676376903    1.78401206316078   -3.68426981536335
C         0.14742551935937    2.10362230799614   -3.77439668222146
C         0.94699097187849    0.91250237759229   -4.26880231384306
C        -1.35491867612370    0.36649489620776   -3.95630627603131
C        -0.09217418596535   -0.17592819849168   -4.21322458074395
C        -2.24430914161595   -0.19529352759874   -3.01751175409113
C        -1.99635102963809    2.10948607541668   -2.56943966106775
C        -2.69518619347919    0.89861768882800   -2.17112379562385
C        -1.44799666299111    2.95982466712890   -1.55987536236365
C         0.75533347785100    2.67604465295971   -2.66165900504284
C        -0.02288635680243    3.24342559395973   -1.61170588590235
C         1.93393220831411    0.73181793181167   -3.12941371529927
C         1.91589021723746    1.86239299548057   -2.32399506004158
C         2.27956473449480   -0.53083996650369   -2.58464110740929
C         0.19636070597817   -1.38530045883893   -3.63438444871870
C         1.48041702616772   -1.63186194687629   -2.98641428232446
C        -2.00592947483358   -1.47311786460705   -2.49496755410230
C        -0.81495136522366   -2.09573444148198   -2.90753626590803
C        -2.72798911958583   -1.87531870994426   -1.20886170387608
C        -3.07065092056296    0.66646651319617   -0.86214905154413
C        -3.06890198692712   -0.64722023419123   -0.32289082817872
C        -2.06596111122104    2.90598481655122   -0.31095819954471
C        -3.17344083617170    1.91031437822950    0.01124712187419
C        -1.38710724871176    3.25518518999832    0.86514905972905
C         0.66261827690368    3.44971568815337   -0.40531085130523
C        -0.02098364334743    3.56819562080679    0.82900746901734
C         2.47266225177010    1.86895702239963   -1.01672820877664
C         1.94671203833106    2.82646590624482   -0.13689159385333
C         2.91925971250144   -0.56498606959512   -1.28136732826135
C         3.06606605508791    0.65489631478225   -0.51379482582132
C         2.90638962336236   -1.78819940190525   -0.57321741435655
C         1.27878620325864   -2.72631553136978   -2.11224952934615
C        -0.12452583442868   -3.03105486509333   -2.06448428313861
C         2.05425599902462   -2.86407311699112   -0.96516264438006
C        -1.92175424852438   -2.88559582675443   -0.42278891701977
C        -0.69842782176803   -3.44345149991270   -0.87783290988049
C        -1.88135078123499   -2.91093704393248    0.98425974923590
C        -3.09624223337354   -0.79651618463069    1.06124724744220
C        -2.49474055156132   -1.91103854914339    1.73838729234656
C        -2.89410948986770    1.62093765481358    1.45782261871072
C        -1.91626076089869    2.50824156322049    1.97684408366611
C        -2.97352551563751    0.34438442239673    1.95448748187419
C        -1.08605310396606    2.12459165248430    3.03095749825788
C         0.83689709501426    3.11312404533762    1.88864087434287
C         2.05602569674794    2.66112659149208    1.27185184859621
C         0.32128132029699    2.43134671396806    2.97968633483044
C         3.25201537822462    0.56868638147085    0.88503989801639
C         2.72740866532983    1.55607628099507    1.77670530848027
C         3.01502948577426   -1.84700320807336    0.85995504357191
C         3.20175664468168   -0.68756138328175    1.57878409308743
C         1.49881255560030   -3.47051754593964    0.21464686429139
C         0.13930360606758   -3.76284130267815    0.26000709560063
C        -0.61685410495110   -3.46272195165472    1.43273853400597
C         2.13064654283817   -2.87117460987570    1.35686448352808
C         0.00549834435210   -2.95322183100884    2.56525049933671
C         1.41399294987099   -2.65270553663455    2.52661490135619
C        -1.88519337600294   -1.44710763831657    2.94890773676595
C        -2.18108024238725   -0.04918647142416    3.08247852817960
C        -1.23426742808055    0.82553901658771    3.60995398417703
C        -0.64470946632644   -1.94078642139049    3.35396386781915
C         1.04027597558436    1.31344397558713    3.53913763038088
C         2.23851188903841    0.90184601373945    2.96530165932173
C         2.53550037287109   -0.49789609684725    2.84331034475490
C         1.62890053029871   -1.44983186736830    3.29169396657490
C         0.07552942577780    0.32893354677930    3.95810942187496
C         0.36012927491723   -1.02552371092997    3.82882756073756
H         1.44212361217630    1.02562498724966   -5.23482505411389
H        -4.16956940721372    2.34817061165366   -0.13408555649027
H        -3.69529688343877   -2.32534511958578   -1.49442774813451
69
 energy: -142.808094143067 gnorm: 0.000734341034 xtb: 6.4.1 (a3dbbd7)
C        -1.21124984830928    1.78387304266919   -3.68438854819419
C         0.14695256116584    2.10329619373782   -3.77427846550186
C         0.94669449840323    0.91241000827858   -4.26904331294463
C        -1.35499655576310    0.36619231577760   -3.95602809242555
C        -0.09199200195929   -0.17611059463348   -4.21376546499737
C        -2.24395986570795   -0.19504230754364   -3.01740077552155
C        -1.99677245251967    2.10965889104730   -2.56945656763807
C        -2.69537577476201    0.89909260255944   -2.17120026567231
C        -1.44845501136227    2.96015286418880   -1.56002459506336
C         0.75510996113193    2.67597981246959   -2.66168699419062
C        -0.02312544435442    3.24329697189127   -1.61181168163076
C         1.93367358533864    0.73157383666262   -3.12959969422201
C         1.91559688944693    1.86213649654150   -2.32419842526268
C         2.27953780130880   -0.53114274641715   -2.58494673019447
C         0.19651101437535   -1.38529690101891   -3.63458664115739
C         1.48076085238499   -1.63226961416926   -2.98669624974233
C        -2.00444170570032   -1.47240023219171   -2.49358918009803
C        -0.81436258583471   -2.09497821711927   -2.90704200688866
C        -2.72726935982357   -1.87530503902772   -1.20865580380562
C        -3.06996226789061    0.66648725227258   -0.86176881879330
C        -3.06704037170535   -0.64663344858876   -0.32248617763902
C        -2.06618751982918    2.90603852211139   -0.31095217941650
C        -3.17353861777660    1.91044083085687    0.01136551075096
C        -1.38736603330044    3.25530193874179    0.86520147729009
C         0.66234129442766    3.44954628222392   -0.40539346081842
C        -0.02114596113768    3.56806349887990    0.82888078357058