69
 energy: -142.820549534288 gnorm: 0.141201152957 xtb: 6.4.1 (a3dbbd7)
C        -1.33566292322652    1.88415024779003   -3.92722727691753
C         0.14316301994113    2.05978578168178   -3.74941424627582
C         0.83978761708447    0.84368148907129   -4.02093580221044
C        -1.49705493070328    0.36446876677577   -4.22139406600711
C        -0.08560157725560   -0.16801433154945   -4.19500258512467
C        -2.21399837224851   -0.17608579666405   -3.00258558455035
C        -1.94987730898835    2.06357746543455   -2.56726763929442
C        -2.62363195036510    0.89189468804591   -2.17037096456999
C        -1.43011155519036    2.93189901009659   -1.58087191314004
C         0.75312248068218    2.65938269166905   -2.66650697650979
C        -0.01105321313831    3.27162340221602   -1.62024869161561
C         1.95530105806068    0.71464331311224   -3.13271001650287
C         1.93749387394535    1.87463301235461   -2.32539341807409
C         2.29438445290875   -0.54683067785955   -2.58374184820365
C         0.20164926844114   -1.40206137621811   -3.63414400929090
C         1.47367308805784   -1.63433496755146   -2.98059076116604
C        -1.98081801191808   -1.43687192215314   -2.45605644846690
C        -0.80537729354015   -2.12666879366735   -2.92578794317948
C        -2.46690795542975   -1.72443675095074   -1.11174640956001
C        -3.06247811540157    0.67177975080457   -0.84117872572335
C        -3.06805880520207   -0.67080556694953   -0.32192539733925
C        -2.05482621513075    2.85320171970320   -0.32106851038585
C        -2.92578053474916    1.77312640203261    0.02077912653520
C        -1.40092253155073    3.28141201818538    0.88738775621359
C         0.65438330996579    3.45820427550846   -0.41531297173140
C        -0.04599519307310    3.56800853661432    0.83910553430396
C         2.47112581261100    1.87209435725400   -1.02494414443582
C         1.93093365740695    2.82848352091084   -0.13792960444192
C         2.92870996490001   -0.57753007525516   -1.28056567488135
C         3.06269430926817    0.65134092375306   -0.51488559341453
C         2.90686412912132   -1.79747363979692   -0.57135603677121
C         1.28529409714702   -2.74390996501611   -2.11588793139170
C        -0.12725896689003   -3.04323349617563   -2.07230088598488
C         2.04679723936987   -2.87625177925357   -0.96971669857412
C        -1.91542341301497   -2.82326109919501   -0.42602531647947
C        -0.70031896476493   -3.45196658690529   -0.88642273497524
C        -1.89933241360522   -2.90531002915538    0.99929248537302
C        -3.11431937449992   -0.80949404683393    1.08240221943938
C        -2.50812785313994   -1.91596049789085    1.75049498299618
C        -2.87828126534409    1.59738754125020    1.44047078594953
C        -1.92866792490475    2.53150793217073    1.99068551543103
C        -2.99563291372424    0.32591789350353    1.96306246758801
C        -1.10715903231549    2.13297717226858    3.03784020727868
C         0.81523655098416    3.11696987250590    1.89253753042417
C         2.02982190687635    2.65707560933341    1.26638359259269
C         0.30134736306402    2.43570703905432    2.98846096660375
C         3.23536776947641    0.56495251591576    0.88128196141334
C         2.70265712907320    1.55438914432913    1.77507942561440
C         3.00126242732533   -1.85190992711212    0.85883700805735
C         3.18341486359722   -0.68830216258748    1.57580151722451
C         1.48133388918746   -3.47292938285301    0.21044180491156
C         0.11931895262399   -3.76727256251266    0.25285227499712
C        -0.63921283152602   -3.46476854716558    1.43189436141197
C         2.11106704017781   -2.87156361022111    1.35455238316880
C        -0.01557712370729   -2.95554248330352    2.56264261060743
C         1.39361066468208   -2.65219174677260    2.52207094039215
C        -1.90805376809028   -1.45449231858474    2.97718721825642
C        -2.21022642824857   -0.05666387698560    3.10843929704981
C        -1.25834564391353    0.82229443035892    3.61473022169261
C        -0.66364287182995   -1.94102597160021    3.35604783305722
C         1.01749369554209    1.31590938241004    3.54030634334147
C         2.21356440743128    0.90306232714126    2.95937700116472
C         2.51229133563588   -0.49788085924246    2.83710181452301
C         1.60882263402129   -1.44967039350356    3.28817867656093
C         0.05347741163938    0.32805902231444    3.95493894782256
C         0.34240480897929   -1.02603565410369    3.83104490478333
H        -1.78297736169845    2.54753853049462   -4.67231687009666
H        -2.03240958328190    0.11715664857945   -5.14220386506595
H         0.31483858793678   -2.02606841828951   -4.53292284159472
69
 energy: -142.842350100359 gnorm: 0.074684865821 xtb: 6.4.1 (a3dbbd7)
C        -1.34489552650609    1.89965337966727   -3.93650541128934
C         0.13438603131425    2.07220369284759   -3.75198106806280
C         0.82491379907249    0.85136812059557   -4.01271218672520
C        -1.50686118650840    0.37815409139262   -4.23157651062849
C        -0.09409711731015   -0.14539875862904   -4.21151278200167
C        -2.20488633064122   -0.17088446854045   -3.00246371898240
C        -1.95142636370100    2.07366395557791   -2.57098259290389
C        -2.61013773258145    0.89338568970177   -2.16963026946333
C        -1.42959718298108    2.93509309976874   -1.58212080258737
C         0.74863893763449    2.65990797523194   -2.66396457526029
C        -0.01088871697330    3.27512028323594   -1.61852028427467
C         1.94739634372108    0.71703961300148   -3.12115309750376
C         1.92980946890964    1.87325686568265   -2.32020069083871
C         2.28801948021792   -0.54096291165136   -2.56607085265386
C         0.21067619017910   -1.45678991005371   -3.72150806068830
C         1.48303147341639   -1.63334277683173   -2.96473976854096
C        -1.96480727669551   -1.43001479840825   -2.43873130445093
C        -0.81617519652012   -2.13800746269030   -2.90778038983818
C        -2.46647641880630   -1.72674051612093   -1.10576640761580
C        -3.05231897107680    0.67164886309603   -0.84007728535806
C        -3.06439005135124   -0.67085211741215   -0.31865458371289
C        -2.05264552090841    2.85514592078548   -0.32144076253456
C        -2.92315064457213    1.77243602073622    0.02087825191547
C        -1.40013579398277    3.28162029584116    0.88484053134899
C         0.65571270102714    3.46109700928663   -0.41422657040189
C        -0.04370914711858    3.56931893411222    0.83770088794166
C         2.47137032573610    1.87324172069508   -1.01913792380822
C         1.93290758986549    2.82882608403586   -0.13527286076062
C         2.93354252457311   -0.57461532916853   -1.27097389209000
C         3.06625371411516    0.65457667063748   -0.50913887760520
C         2.90886812996463   -1.79672209533094   -0.56532463597304
C         1.28447052991956   -2.73698478047160   -2.10847616798409
C        -0.13210987951418   -3.04205770686230   -2.06709814184979
C         2.04899246849478   -2.87384807526178   -0.96189051148205
C        -1.91339289468736   -2.82662024295969   -0.42090811946096
C        -0.70525155100013   -3.46010184590640   -0.87888815725120
C        -1.89856083489097   -2.90684867931115    1.00591897853948
C        -3.11510848722364   -0.80970276570211    1.08461201628213
C        -2.50732752404329   -1.91729979235969    1.75388758733109
C        -2.87902352949330    1.59737385868369    1.44017793611641
C        -1.92876425528605    2.53061036439705    1.98873380912123
C        -2.99631454866409    0.32514156984239    1.96327067620864
C        -1.10687215153037    2.13208550776764    3.03545010974054
C         0.81670268534123    3.11620343318104    1.89237195613800
C         2.03287523739255    2.65724587909659    1.26948271928801
C         0.30173463590714    2.43490968388214    2.98692586162552
C         3.23794143989084    0.56692303471392    0.88676210073480
C         2.70566555847898    1.55548063469454    1.77848770290480
C         3.00112120757320   -1.85182171067401    0.86409621396755
C         3.18287407162896   -0.68823142097208    1.58026921828463
C         1.48219777459312   -3.47487796937080    0.21581618664621
C         0.11891533832513   -3.76876964519094    0.25736197000451
C        -0.63891109786718   -3.46610820628066    1.43737802459096
C         2.11074198756658   -2.87300134193584    1.35842963181869
C        -0.01518820274519   -2.95635502259299    2.56763588692379
C         1.39392487531580   -2.65314420201090    2.52701181475662
C        -1.90829795888643   -1.45565869018040    2.98027881067392
C        -2.20983112838488   -0.05726155304054    3.10839843236360
C        -1.25809360065651    0.82180663701617    3.61371652631609
C        -0.66391043080791   -1.94216966340100    3.35977943253458
C         1.01805778573261    1.31451497658854    3.54023384678543
C         2.21424047031661    0.90190153297880    2.96242667022075
C         2.51349233020463   -0.49848154371616    2.84163276392302
C         1.60930370640195   -1.45112614865426    3.29169913111570
C         0.05361015718194    0.32725655188797    3.95512030851497
C         0.34244283230870   -1.02663695593649    3.83300508555258
H        -1.79473266034816    2.55815625450788   -4.68279956745070
H        -2.04282942832984    0.13630161462396   -5.15319366421263
H         0.32587213582748   -2.08975359139727   -4.62561927115174
69
 energy: -142.850654935785 gnorm: 0.017450367744 xtb: 6.4.1 (a3dbbd7)
C        -1.35574930741736    1.91285932377558   -3.94521688149011
C         0.12235871731972    2.07968917396809   -3.74884123800638
C         0.80361640018903    0.84578758718014   -3.99662999083253
C        -1.51196027436376    0.38686762267762   -4.24267577922852
C        -0.10217864578411   -0.13392972364021   -4.21340964913322
C        -2.19583586151431   -0.16215112033195   -3.00668757227084
C        -1.95484198806733    2.08756139624107   -2.57507377660542
C        -2.59303145282351    0.89527194173347   -2.16861193567434
C        -1.43034247938199    2.94183590973391   -1.58219506191517
C         0.74015619148719    2.65951569253135   -2.66029969280424
C        -0.01231396110088    3.28312141322727   -1.61491079588016
C         1.93883800986604    0.71655626601917   -3.11110009780139
C         1.91566946560823    1.86508951636347   -2.31428425943277
C         2.27900152526968   -0.54270567411813   -2.55714681915317
C         0.22373043141149   -1.52195545792806   -3.82767364648729
C         1.48701188412153   -1.63135295257287   -2.95857828712506
C        -1.94169740063748   -1.42166203336229   -2.43040384305442
C        -0.81808237174807   -2.13668344214964   -2.89374706809596
C        -2.45560157915346   -1.72242379893412   -1.10375836473628
C        -3.03864375438881    0.67272880113437   -0.83811279003895
C        -3.05462435089861   -0.66885297220711   -0.31588959387485
C        -2.05001640490067    2.85875984526083   -0.31955982413784
C        -2.92013463131864    1.77218075037028    0.02246758044344
C        -1.39928412517529    3.28238073026245    0.88446628154566
C         0.65585673213108    3.46686906772282   -0.41153467686478
C        -0.04133760118147    3.57162343865289    0.83849488263383
C         2.46805578630318    1.87208182374838   -1.01154109836227
C         1.93429072249733    2.82839759329052   -0.13199933311539
C         2.92769561045289   -0.57337199370069   -1.26384624836153
C         3.06433312013022    0.65527063839339   -0.50359701752828
C         2.90553606368146   -1.79541824580303   -0.55949308883876
C         1.28384071146322   -2.72594572289503   -2.10616916722434
C        -0.13493725362419   -3.03260201122591   -2.06563121189375
C         2.04770642711604   -2.86841777363110   -0.95615418600656
C        -1.90606320457395   -2.82482068541533   -0.41890165825802
C        -0.70614650545129   -3.46102078022105   -0.87369504620352
C        -1.89633405924401   -2.90671062124746    1.01138106594647
C        -3.11434007436433   -0.80860159442495    1.08648301590221
C        -2.50577467723255   -1.91825985738673    1.75693772881250
C        -2.87908357650581    1.59791550439433    1.44140533140347
C        -1.92869471846503    2.53007431934386    1.98898985217533
C        -2.99642162468766    0.32442784184848    1.96427888277666
C        -1.10638725528203    2.13136296120586    3.03483927376597
C         0.81834271923984    3.11585418628689    1.89426724480236
C         2.03551922839694    2.65741657298238    1.27389802915407
C         0.30217663779590    2.43443616835541    2.98709173482575
C         3.23894137118134    0.56820176036963    0.89281124043091
C         2.70839690628259    1.55609199295889    1.78269091646709
C         3.00005020518161   -1.85174991081319    0.87058695175462
C         3.18229655676315   -0.68865772698648    1.58634101196612
C         1.48228932221318   -3.47497987453484    0.22202660511200
C         0.11959583826670   -3.76869652247531    0.26181106745108
C        -0.63777767379229   -3.46661110185825    1.44294546093069
C         2.10973917130993   -2.87418038374306    1.36406158864851
C        -0.01464696622315   -2.95730355933125    2.57461941813466
C         1.39430741033561   -2.65416634787154    2.53501154215453
C        -1.90834344689223   -1.45635529917510    2.98373471737690
C        -2.20943354794287   -0.05758643276235    3.10963989625352
C        -1.25797176049456    0.82159862629013    3.61419098756876
C        -0.66430415084269   -1.94310610358042    3.36482838672680
C         1.01871671109499    1.31338616343679    3.54186001711025
C         2.21506079510962    0.90100005202117    2.96785089432260
C         2.51436565395492   -0.49870403267621    2.84775713655519
C         1.60953823271066   -1.45241211353514    3.29744700791387
C         0.05352016287072    0.32678190963238    3.95711635836176
C         0.34221120468721   -1.02676828874203    3.83724301378145
H        -1.80461900455261    2.56692376736870   -4.69449720923196
H        -2.05246014444498    0.14530989423478   -5.16099419506345
H         0.33623450358349   -2.15558897297048   -4.72396470564475
69
 energy: -142.851022884466 gnorm: 0.009407598569 xtb: 6.4.1 (a3dbbd7)
C        -1.35766215727592    1.91397118890251   -3.94870248633091
C         0.11864414026957    2.07780273878685   -3.74534475196880
C         0.79819327300662    0.84036422497736   -3.99429394900786
C        -1.51311742423099    0.38643468597808   -4.24835555532004
C        -0.10449071122823   -0.14085905320321   -4.21600261997830
C        -2.19352210213497   -0.16019355943835   -3.01000514080066
C        -1.95516368416140    2.09126889568812   -2.57723811175390
C        -2.58677718514405    0.89588411638966   -2.16900000288365
C        -1.43127990919379    2.94638429361195   -1.58274339224836
C         0.73606071311098    2.65942896008417   -2.65867250910983
C        -0.01358110587701    3.28829542480152   -1.61332579129925
C         1.93369504034267    0.71506594016437   -3.10931591063662
C         1.90932832885188    1.86171809566646   -2.31145365519316
C         2.27522003507003   -0.54806318447100   -2.56097702169952
C         0.22427655973762   -1.52812839279863   -3.83882713156102
C         1.48655941605321   -1.63616629662868   -2.96937510204273
C        -1.93704542670500   -1.42288860511936   -2.43735647126571
C        -0.81589980415730   -2.13923784081649   -2.90335287625369
C        -2.44624897062733   -1.71920178330176   -1.10587705245430
C        -3.03062174052085    0.67383184898865   -0.83792250974155
C        -3.04542641973917   -0.66712103610395   -0.31643086613450
C        -2.04902308885206    2.86198978015642   -0.31893541690922
C        -2.91685224287572    1.77319872939225    0.02272043793829
C        -1.39876948413844    3.28444297087955    0.88587344229728
C         0.65501993137535    3.47068276940622   -0.40970473150565
C        -0.04097385942185    3.57441834395433    0.84102998415416
C         2.46320893181854    1.87086997542688   -1.00864759102378
C         1.93301210444035    2.82918911870148   -0.12997395523171
C         2.92014696907404   -0.57458292133766   -1.26375081860541
C         3.05806117315119    0.65359548749449   -0.50198603548399
C         2.90163786184745   -1.79495671074889   -0.55785919538377
C         1.28458501662622   -2.72773255087760   -2.10948842064239
C        -0.13338749775916   -3.03397671006085   -2.06864294017395
C         2.04493768699510   -2.86719429653020   -0.95608428856059
C        -1.90111443686137   -2.82231124135959   -0.41970943208510
C        -0.70259091487593   -3.45928148880135   -0.87435358066903
C        -1.89392532392844   -2.90574602200202    1.01164992143432
C        -3.10989210650325   -0.80752924133085    1.08579257977854
C        -2.50350237073113   -1.91781281479648    1.75732308907071
C        -2.87697153975235    1.59865494488795    1.44164267070484
C        -1.92773383065742    2.53098210799348    1.99017038516807
C        -2.99411822155720    0.32481629026919    1.96416915583875
C        -1.10603563518872    2.13173110259918    3.03632716514625
C         0.81834116767421    3.11721127020931    1.89686964639683
C         2.03492642232304    2.65815053995407    1.27619256737764
C         0.30230331195535    2.43501986470551    2.98935736839126
C         3.23619921330620    0.56763026561898    0.89457777017658
C         2.70743387006350    1.55605427584567    1.78467915406003
C         2.99871805306659   -1.85155831720306    0.87301273813715
C         3.18124269757277   -0.68888152459600    1.58914096062396
C         1.48222548553628   -3.47451598252334    0.22395977651120
C         0.12089653943617   -3.76885012298412    0.26327070877590
C        -0.63660676772791   -3.46679731811799    1.44453380097849
C         2.10950343163296   -2.87434253642087    1.36664616175004
C        -0.01421080359670   -2.95817686812125    2.57763932216277
C         1.39478603904910   -2.65487498605308    2.53871310044707
C        -1.90757582928383   -1.45628710406447    2.98516739680745
C        -2.20872354035137   -0.05740027116399    3.11065740900061
C        -1.25776323352784    0.82191196093151    3.61573308156322
C        -0.66412096911667   -1.94366423308043    3.36759337361421
C         1.01860421928310    1.31370697794844    3.54438706134629
C         2.21507459075341    0.90113976203499    2.97102665688842
C         2.51428673916402   -0.49872706482816    2.85118295180651
C         1.60979784118676   -1.45294798535821    3.30122600295610
C         0.05339755366061    0.32683994780554    3.95961304524466
C         0.34218864489823   -1.02690939285618    3.84057200690003
H        -1.80472665894314    2.56902683863621   -4.69908765092627
H        -2.05895745262545    0.14721363157980   -5.16446623258391
H         0.33548404249360   -2.16053279260755   -4.73243838314573
69
 energy: -142.851128723926 gnorm: 0.002160131581 xtb: 6.4.1 (a3dbbd7)
C        -1.35794700651751    1.91460800234709   -3.95124085720644
C         0.11637975442373    2.07565550018684   -3.74089201165103
C         0.79403161305470    0.83568550415640   -3.98918596739329
C        -1.51485333560957    0.38576511328671   -4.25058551062580
C        -0.10660761447769   -0.14582284099699   -4.21392077074148
C        -2.19280447998683   -0.15879609286146   -3.01062081602125
C        -1.95606262057148    2.09306499159087   -2.57905680433662
C        -2.58291713058397    0.89594827700491   -2.16857703729436
C        -1.43184224777301    2.94848852435479   -1.58328904705584
C         0.73410878711562    2.65920900970852   -2.65723291229088
C        -0.01419166530866    3.29126824779948   -1.61199895685708
C         1.93086789173756    0.71479765124319   -3.10610667846680
C         1.90685613183847    1.86019322012832   -2.30945428010983
C         2.27258109309460   -0.55158583882560   -2.56204990698196
C         0.22460749423590   -1.53125494489251   -3.84501327452492
C         1.48596443964989   -1.63830394908143   -2.97623248594945
C        -1.93325429968394   -1.42346352670124   -2.44039238991045
C        -0.81345396688563   -2.13882884455226   -2.90826334045989
C        -2.44239139630295   -1.71786960982590   -1.10689560818291
C        -3.02631112534490    0.67434040302223   -0.83735675590571
C        -3.04147472737819   -0.66645938271676   -0.31678512276212
C        -2.04860920064799    2.86365302421951   -0.31914278418335
C        -2.91570935386220    1.77380828698824    0.02274700722146
C        -1.39851914669545    3.28562231534899    0.88600003600540
C         0.65474352743252    3.47351348128937   -0.40887089735434
C        -0.04075742908366    3.57648049153938    0.84220496985954
C         2.46162146073151    1.87096947681861   -1.00661220727465
C         1.93313798385210    2.83053880390377   -0.12907552887749
C         2.91753184743302   -0.57518575677445   -1.26374401248477
C         3.05571534916984    0.65310803080581   -0.50154877606678
C         2.90018928073133   -1.79448491303857   -0.55710162245907
C         1.28525625392521   -2.72844433513550   -2.11126201676682
C        -0.13218225712838   -3.03413656540017   -2.06968651081042
C         2.04308235710880   -2.86554020834923   -0.95639804221234
C        -1.89901542431098   -2.82085820409598   -0.42033998642967
C        -0.70050762571663   -3.45709861312337   -0.87491680946444
C        -1.89288934939269   -2.90518733836633    1.01172856478002
C        -3.10828165749886   -0.80717354428705    1.08530115285608
C        -2.50265043360925   -1.91779245601033    1.75744648178421
C        -2.87591778870861    1.59895814243936    1.44143351862339
C        -1.92722789987672    2.53139640873464    1.99018342756551
C        -2.99301466867291    0.32482255745614    1.96363381263752
C        -1.10586959306290    2.13174572279908    3.03642007346863
C         0.81836859083011    3.11816055027705    1.89795438699345
C         2.03469945681545    2.65882073210571    1.27716058494657
C         0.30233908110127    2.43518721203025    2.98993310638156
C         3.23523973615407    0.56742952361333    0.89512652564099
C         2.70693482503761    1.55601626280269    1.78497215354238
C         2.99827997804581   -1.85149214699815    0.87424577772326
C         3.18089945727953   -0.68904021873914    1.59038080971953
C         1.48189877307069   -3.47367550169216    0.22461194839791
C         0.12159216094957   -3.76868092798184    0.26383375681959
C        -0.63634693580748   -3.46706672650502    1.44492536952984
C         2.10965748316495   -2.87445086960646    1.36746662730476
C        -0.01408175599828   -2.95897483893956    2.57876511181397
C         1.39512303670868   -2.65552380354477    2.54015709575756
C        -1.90745481712598   -1.45650223791029    2.98575032466072
C        -2.20856632700285   -0.05754155720189    3.11080216909144
C        -1.25772231716131    0.82189946823663    3.61581955440340
C        -0.66418437262202   -1.94431820445142    3.36851943001329
C         1.01852877930417    1.31367263910210    3.54485617547122
C         2.21519708385966    0.90106649522828    2.97216394065209
C         2.51442874974368   -0.49882976081914    2.85261934797939
C         1.61003491727276   -1.45351545432551    3.30258047788609
C         0.05328084811810    0.32659456425554    3.96003552975374
C         0.34214853069993   -1.02719147345004    3.84156577067238
H        -1.80217224116957    2.56955988762374   -4.70364489030921
H        -2.06389204337881    0.14748486378477   -5.16486549888356
H         0.33394209682175   -2.16296557826638   -4.73623558881904
69
 energy: -142.851135028985 gnorm: 0.000785052811 xtb: 6.4.1 (a3dbbd7)
C        -1.35796370907813    1.91444677197722   -3.95126098166941
C         0.11591203832294    2.07495561896540   -3.73972250041533
C         0.79352055061137    0.83507282849433   -3.98759894963252
C        -1.51492366643570    0.38542294940077   -4.25031088389208
C        -0.10673855381973   -0.14633538401917   -4.21244806360724
C        -2.19305627503048   -0.15851156099114   -3.01017174711053
C        -1.95657156597330    2.09321895755576   -2.57916572384399
C        -2.58295148460253    0.89605987286469   -2.16835776378004
C        -1.43186701464293    2.94846149143538   -1.58323503782654
C         0.73421844041550    2.65941767373052   -2.65724728527321
C        -0.01415377453798    3.29140821938576   -1.61183951402430
C         1.93096175202615    0.71507695892875   -3.10528889843753
C         1.90743352593875    1.86056158006924   -2.30952085143677
C         2.27248931334263   -0.55175816404303   -2.56160240498245
C         0.22465653014314   -1.53112950334307   -3.84503111709763
C         1.48584969156024   -1.63795331637148   -2.97628117884092
C        -1.93283240805522   -1.42331132605243   -2.43997774329451
C        -0.81281644267585   -2.13770233744503   -2.90757262390458
C        -2.44277523643052   -1.71789334300813   -1.10676901005643
C        -3.02666576800573    0.67449411729637   -0.83715761930336
C        -3.04196170154846   -0.66641084709941   -0.31687310249547
C        -2.04863811213166    2.86366666592602   -0.31925350796698
C        -2.91612173178391    1.77392568114869    0.02282767226406
C        -1.39846920124304    3.28554439913467    0.88583739066761
C         0.65482631527924    3.47382275466208   -0.40895720870134
C        -0.04070344172840    3.57656719233938    0.84216906410753
C         2.46218587675326    1.87142192746849   -1.00657048262119
C         1.93350634815171    2.83088523229427   -0.12918847471967
C         2.91809314482613   -0.57518342261954   -1.26374782552250
C         3.05610299370949    0.65333985697935   -0.50182760634996
C         2.90068524686513   -1.79449987337309   -0.55720114448730
C         1.28546648383794   -2.72844992872614   -2.11114313448173
C        -0.13202615923949   -3.03395700056320   -2.06928736939555
C         2.04323180900691   -2.86535161408105   -0.95663931676886
C        -1.89932584568602   -2.82085099703879   -0.42044274099440
C        -0.70061736292241   -3.45683521611935   -0.87509198333663
C        -1.89309515923515   -2.90528609479472    1.01164525453257
C        -3.10862323097008   -0.80718673385119    1.08520358373662
C        -2.50288511589906   -1.91790109004126    1.75732827320435
C        -2.87606480721643    1.59898925818191    1.44143909709556
C        -1.92723240222370    2.53136492746891    1.99004979318630
C        -2.99318889522449    0.32477444894664    1.96348307339922
C        -1.10588352874574    2.13169009170653    3.03626117917772
C         0.81839495399364    3.11815548300316    1.89786091289136
C         2.03473081568289    2.65886178918387    1.27704511978915
C         0.30232778065129    2.43509880322120    2.98974263965470
C         3.23535084463128    0.56744719749291    0.89486210938303
C         2.70693676596222    1.55597224499762    1.78460319309390
C         2.99854203287144   -1.85163983628210    0.87413328361458
C         3.18100382338775   -0.68908555072585    1.59014913579239
C         1.48181161377649   -3.47346942596595    0.22433267745176
C         0.12154760576152   -3.76859984982276    0.26365343584520
C        -0.63654776854893   -3.46713133082641    1.44464601878252
C         2.10979392829517   -2.87449185213271    1.36712363754715
C        -0.01414749669294   -2.95900744995459    2.57841213582762
C         1.39508515069003   -2.65555648038688    2.53976296819913
C        -1.90757308701086   -1.45655364610216    2.98553485802384
C        -2.20865898415125   -0.05761351955166    3.11060342817734
C        -1.25775648691098    0.82182479880199    3.61554330654727
C        -0.66424176964901   -1.94438113477131    3.36812244594632
C         1.01851172554895    1.31356437985936    3.54449400423829
C         2.21517436396233    0.90098073765952    2.97183993519547
C         2.51442696695854   -0.49886042484566    2.85227498364868
C         1.60999105705412   -1.45358677486841    3.30211948612867
C         0.05324924508419    0.32648247462230    3.95967890348557
C         0.34211694833010   -1.02724680581828    3.84116550581517
H        -1.80139946003262    2.56911286614151   -4.70410749508714
H        -2.06333866212044    0.14651310732341   -5.16455387990051
H         0.33326522232543   -2.16339440226656   -4.73575402235932
69
 energy: -142.851136062858 gnorm: 0.000355215909 xtb: 6.4.1 (a3dbbd7)
C        -1.35784648150403    1.91427989371466   -3.95113303933138
C         0.11571200846980    2.07455442759283   -3.73903073498207
C         0.79346657258745    0.83509276507761   -3.98664738336359
C        -1.51480954600910    0.38522091497955   -4.24985970240045
C        -0.10666142749737   -0.14632235379925   -4.21130558891035
C        -2.19352685397672   -0.15844346770391   -3.00982790669197
C        -1.95684351918812    2.09315870693914   -2.57914862665452
C        -2.58335734035128    0.89613166179471   -2.16829269507062
C        -1.43173503083521    2.94821425723298   -1.58317261971455
C         0.73465155828838    2.65998025486307   -2.65755668022386
C        -0.01400350822877    3.29135055846905   -1.61186561343300
C         1.93138415492182    0.71542602639270   -3.10495969443144
C         1.90831547708731    1.86116636351651   -2.30987484773955
C         2.27263602639530   -0.55160421881334   -2.56122348884375
C         0.22450263783225   -1.53066580980956   -3.84454973551960
C         1.48574973239332   -1.63742866683660   -2.97581981985973
C        -1.93300028000978   -1.42326774677137   -2.43942591456143
C        -0.81246131983209   -2.13658564207772   -2.90643578717555
C        -2.44341316331898   -1.71811154539642   -1.10654805163123
C        -3.02736517327970    0.67451030914497   -0.83706174799771
C        -3.04271118326355   -0.66648606755888   -0.31692357088319
C        -2.04862067661318    2.86346030958296   -0.31939069601732
C        -2.91653004127306    1.77387365353853    0.02287995814298
C        -1.39842411577322    3.28525770584383    0.88565893775896
C         0.65492887125892    3.47386431604750   -0.40910703877087
C        -0.04067337406968    3.57638030070907    0.84204229881320