72
 energy: -144.378856074293 gnorm: 0.152452755586 xtb: 6.4.1 (a3dbbd7)
C        -1.34496316569233    1.89671323940309   -3.96160287962144
C         0.11200668958857    2.03303526459339   -3.67932748873987
C         0.82518818373504    0.81960500497509   -3.95842711946030
C        -1.49425865256022    0.35693521038478   -4.21173450598151
C        -0.09693272362729   -0.20378130834037   -4.19429862302491
C        -2.12605168996050   -0.16251127612979   -2.94209668811662
C        -2.16067203320655    2.23643844622914   -2.68486507873405
C        -2.58490203885465    0.88221275959587   -2.15688841830180
C        -1.42018854168893    2.94652532948841   -1.55987600886837
C         0.72840438233880    2.66931038685553   -2.65348823793791
C        -0.02516631796802    3.25200827426407   -1.59145980631273
C         1.93930733400964    0.70908056103368   -3.12471147917358
C         2.11531858250463    2.03824483633935   -2.43421925458876
C         2.24819774003414   -0.52306826198041   -2.54998009281424
C         0.18983973132363   -1.42094457008794   -3.64112230518007
C         1.40429633052834   -1.60829241939218   -2.93561134108607
C        -1.93074904577550   -1.43464881627045   -2.41509856834233
C        -0.89559580377444   -2.33185030723881   -3.10492997064241
C        -2.40460332593187   -1.72001338475011   -1.10453947319203
C        -3.01315892239842    0.67344283937335   -0.84304369723379
C        -3.00349483682595   -0.66481047260930   -0.31693299412887
C        -2.04134634533625    2.87357683063422   -0.32031368795711
C        -2.94271973256332    1.78864794429043    0.02938812004735
C        -1.38532337225458    3.27521791328602    0.88636055244579
C         0.66453551111572    3.47808154577969   -0.39267489375263
C        -0.02582825305100    3.57296875114503    0.84562473792754
C         2.48257778133732    1.88891698250032   -0.99068860546896
C         1.94321203780153    2.82359929125152   -0.12054705119419
C         2.91208861619614   -0.56674910136509   -1.25585842312352
C         3.04883307813958    0.66836959937449   -0.49230731814178
C         2.89220090906448   -1.77980454303342   -0.55577492309009
C         1.23944320553440   -2.73447396609839   -2.07724183708655
C        -0.13053272649093   -3.11698782165550   -2.07705891773236
C         2.03125139086644   -2.86779048877720   -0.94979141647077
C        -1.90950544783541   -2.86409396267936   -0.41835824947088
C        -0.69224715436593   -3.50105808333152   -0.88569446570111
C        -1.88945402346803   -2.92241276330233    0.99849784243406
C        -3.09049970863701   -0.81147165364536    1.08121760849752
C        -2.49607911541220   -1.92531060714850    1.75041218057406
C        -2.87764981555124    1.59872637998710    1.42968401310486
C        -1.91912893246283    2.52621463015946    1.98597841063023
C        -2.99117352823133    0.31913753520678    1.96045999133778
C        -1.10438385210522    2.12563520686276    3.03488520327176
C         0.82721400732610    3.11477420630182    1.90968233791261
C         2.03972831980671    2.65252275964756    1.29346972108768
C         0.30485587943779    2.42964629245925    2.99580223401882
C         3.23020353804664    0.56916084339116    0.90381084626423
C         2.70920060395060    1.55558760991260    1.80201547457848
C         3.00062058506639   -1.84742970355362    0.87282439035647
C         3.18180719233456   -0.68673646497991    1.59448146177093
C         1.49321973936198   -3.48105730877441    0.22449570583994
C         0.13093974065907   -3.77974810077650    0.26031878495333
C        -0.62753839745106   -3.47794150493309    1.43848863579551
C         2.11938131315613   -2.87579474389893    1.36662785316101
C        -0.00832923926697   -2.96506663863145    2.56965266141676
C         1.39988046351993   -2.65807734315063    2.53437031686499
C        -1.90220317096985   -1.46335783691276    2.97619049087679
C        -2.20738414392221   -0.06341694813393    3.10433052897392
C        -1.25693237518881    0.81497627936060    3.61585558045828
C        -0.66015967272724   -1.95089198468016    3.36322913505372
C         1.01777833424359    1.30712713848300    3.55272775156889
C         2.21988000260336    0.89817120414836    2.98683154787475
C         2.51804115035282   -0.50181257951463    2.85833055312720
C         1.61053060044521   -1.45643005559137    3.30138270796033
C         0.05111716107206    0.32067033400962    3.96257145077625
C         0.34266559596562   -1.03518659030882    3.84038407411333
H        -1.67345585770199    2.48966325800851   -4.81619790027590
H        -2.07962750147120    0.10783340210511   -5.09850551846881
H        -1.37193053253565   -2.95737658536420   -3.86662323912122
H         2.87699822570927    2.65346595814750   -2.93267395065940
H        -3.03691975977784    2.84189963774555   -2.94477949068442
H         0.43826454009109   -1.34264009319243    4.89220781668938
72
 energy: -144.403134449013 gnorm: 0.078445348694 xtb: 6.4.1 (a3dbbd7)
C        -1.34624302189501    1.89632495999123   -3.95959655980477
C         0.11101543212066    2.03232082881550   -3.67809422005835
C         0.82442218025276    0.81914397258808   -3.95738400199102
C        -1.49500003114059    0.35656652323730   -4.20967379577299
C        -0.09812454641971   -0.20450245810553   -4.19309204198238
C        -2.12263414514351   -0.16369565999260   -2.93841686608951
C        -2.16368976653781    2.23683298976554   -2.68394055060748
C        -2.58542278516148    0.88232930684774   -2.15270573306755
C        -1.42047200744748    2.94574098309088   -1.55910334300728
C         0.72900946213317    2.66926244240264   -2.65360490607792
C        -0.02394121298695    3.25245823931201   -1.59207915601515
C         1.93912509664415    0.70935917801902   -3.12497689522584
C         2.11674936220575    2.03932040882534   -2.43618272196867
C         2.24905206123381   -0.52301190808775   -2.55116472041963
C         0.18910200874293   -1.42169720194376   -3.64124759261678
C         1.40525021989656   -1.60886856948365   -2.93747314320287
C        -1.92791820264720   -1.43512180640074   -2.41546066419200
C        -0.89581658551100   -2.33475452117609   -3.10728615532539
C        -2.40120333347119   -1.72144144609556   -1.10375061347532
C        -3.01143868835399    0.67316817082789   -0.84143180171913
C        -2.99771628321324   -0.66527969205152   -0.31516871471742
C        -2.03908511221624    2.87426505160101   -0.32016658338859
C        -2.94402625085080    1.79026347646984    0.03478027233164
C        -1.38304980964198    3.28264320311145    0.88283924945987
C         0.66675032835897    3.48017626715109   -0.39562633515000
C        -0.02430065905614    3.58088425024950    0.84210627869375
C         2.48624043970743    1.88964490812795   -0.99297378956661
C         1.94473619719268    2.82417258586057   -0.12318021489018
C         2.91383710703433   -0.56700985106999   -1.25874447634815
C         3.04891741737856    0.66919838544374   -0.49511408482253
C         2.89512699179488   -1.78073062994960   -0.56132252923470
C         1.24214118520436   -2.73513675184989   -2.08115897630254
C        -0.12987460914934   -3.11857376606753   -2.07929477267254
C         2.03425060309735   -2.86835530551752   -0.95536070652926
C        -1.91203670408022   -2.86841939573848   -0.42169958502181
C        -0.69028178357796   -3.50431167758291   -0.89086485709443
C        -1.89378222458509   -2.93035187865352    0.99095834401668
C        -3.08609899841106   -0.81384544425799    1.08212152943496
C        -2.50502311402667   -1.93336446350437    1.74635460401078
C        -2.87884760851940    1.60375286843983    1.42727454809882
C        -1.91855200541426    2.53433926721439    1.98158863379401
C        -2.99018010039630    0.31948082132197    1.96522888864706
C        -1.10503350401986    2.14093555191649    3.03001648826297
C         0.82857108104009    3.12499342206494    1.90561699299328
C         2.04011923520251    2.65610160131907    1.28988733155323
C         0.30354898282324    2.44583959692471    2.99152766811989
C         3.22903368245702    0.56906268120998    0.90102070139502
C         2.70632144833854    1.55576430005585    1.79926588667671
C         3.00486988889956   -1.85100398998545    0.86649493938458
C         3.18395185806962   -0.68792748435518    1.58734145655221
C         1.49579522179846   -3.48366091704165    0.21875537948436
C         0.13337568446106   -3.78345790236877    0.25320219175583
C        -0.63035434711847   -3.48081931702646    1.42774962063122
C         2.12473386002593   -2.87781537626598    1.35753782996169
C        -0.01053310890483   -2.96150371435452    2.55799619378508
C         1.39926546888285   -2.65336852418517    2.52427297057423
C        -1.90359369906255   -1.46596673868251    2.95934812598164
C        -2.21212784055180   -0.05806263739897    3.09798835814680
C        -1.25348596616237    0.82632059794077    3.60682813592945
C        -0.67044648083480   -1.95798065388479    3.34473196938507
C         1.00985548653179    1.31685160091214    3.54322409104039
C         2.21473219960212    0.90105564781452    2.98188915912891
C         2.51203791281261   -0.50347153126469    2.84399954160053
C         1.61730832591392   -1.46141364291223    3.28620578765144
C         0.03972157545240    0.35038705755768    3.97334530018261
C         0.34759450473418   -1.06694181747057    3.94606929177408
H        -1.67407659910909    2.48900905999681   -4.81488511842694
H        -2.08082481276103    0.10739521472936   -5.09631887337179
H        -1.37124553092234   -2.96082683939208   -3.86891585834129
H         2.87698925596992    2.65486099705601   -2.93641955061083
H        -3.03863991388500    2.84364932106284   -2.94524518028557
H         0.43950836739714   -1.38607682865631    5.00480473083960
72
 energy: -144.411501504301 gnorm: 0.016696689904 xtb: 6.4.1 (a3dbbd7)
C        -1.34732563077828    1.89506625774811   -3.95976787921927
C         0.10991756819329    2.03231054158801   -3.67925909178716
C         0.82370463629114    0.81944673793382   -3.95902299071051
C        -1.49605071428691    0.35576593176650   -4.21043756573707
C        -0.09867689336015   -0.20460191541211   -4.19541717162359
C        -2.12230175784286   -0.16635239344383   -2.93957386638507
C        -2.16303987478954    2.23475438587213   -2.68309793717812
C        -2.58643905533858    0.88149969488289   -2.15022791325803
C        -1.42052903328116    2.94704154468594   -1.55959703935145
C         0.72909445877625    2.67067599850438   -2.65655783167545
C        -0.02281353158388    3.25570797463087   -1.59525653445214
C         1.93849456578939    0.71013402629481   -3.12773510741866
C         2.11677012501035    2.04070098192459   -2.44034832239442
C         2.24981048323736   -0.52260342080032   -2.55453117855373
C         0.18979582263836   -1.42166590327873   -3.64559079482171
C         1.40666512281944   -1.60926631013127   -2.94206574063750
C        -1.92494591588559   -1.43392059815358   -2.41910070976168
C        -0.89441676733995   -2.33484596783610   -3.11078496380785
C        -2.39943256608018   -1.72256787055483   -1.10511435187173
C        -3.01039199894603    0.67148496372229   -0.84336753237019
C        -2.99651687930500   -0.66680198183492   -0.31648912631129
C        -2.03607169643538    2.87710469770471   -0.32137914527607
C        -2.94055793747559    1.78984125064756    0.04002535185320
C        -1.38041800175538    3.28910390076179    0.87938209350294
C         0.66817565081121    3.48292960375685   -0.40020925384003
C        -0.02226782135395    3.58893743003294    0.83849540035298
C         2.48804381679405    1.89102467188779   -0.99721947986841
C         1.94609439934246    2.82557729321595   -0.12724319981987
C         2.91432024451794   -0.56685840669377   -1.26275104971567
C         3.04790023079162    0.67091532304991   -0.49907097488716
C         2.89703448068575   -1.78121361336724   -0.56664560562683
C         1.24565033634381   -2.73637502046892   -2.08808721459142
C        -0.12842554670431   -3.11996547428962   -2.08434592329533
C         2.03554888755433   -2.86827459946403   -0.96130359897834
C        -1.91293803660500   -2.86992589063892   -0.42704533749940
C        -0.68772190359730   -3.50786554728142   -0.89830385386258
C        -1.89382200723053   -2.93267365145665    0.98359028553531
C        -3.08137188677251   -0.81656632780261    1.08086018207249
C        -2.50375895872010   -1.93361628202164    1.74177738847155
C        -2.87710365696235    1.60707002259371    1.42398092086430
C        -1.91528462231978    2.53837463010860    1.97834701370641
C        -2.98156205133810    0.31787205713073    1.97155196202989
C        -1.10175600569336    2.14483308770121    3.02315481341087
C         0.83057752251799    3.13180871637474    1.90102491255066
C         2.04106467655060    2.66049298134200    1.28524904072729
C         0.30508896730739    2.45105533037976    2.98493929115596
C         3.22289243852297    0.56948051054231    0.89809505578537
C         2.69990878415024    1.55532275142656    1.79722926332556
C         3.00214929536006   -1.85162664114985    0.86194945776442
C         3.17293077120457   -0.68671244740636    1.58306211360898
C         1.49565723588111   -3.48300022442670    0.21436115188632
C         0.13401377075422   -3.78423817362966    0.24681145156063
C        -0.63278976965701   -3.47874384544366    1.41973416458793
C         2.12385479049522   -2.87417404659587    1.35146294213683
C        -0.01530875673858   -2.94899643987457    2.55029626037853
C         1.39351755108073   -2.63877587040038    2.51865037427474
C        -1.89803266649835   -1.46728092327610    2.95340696499523
C        -2.21821080316383   -0.05542504009361    3.09845225140620
C        -1.24198518020436    0.82480602049364    3.60235580472173
C        -0.67644875695637   -1.95852859059392    3.33655531106242
C         1.00349568029038    1.31515972220333    3.53602554681837
C         2.21138040014237    0.90438228717660    2.98188773839392
C         2.49888864677788   -0.50598177806930    2.83865205874039
C         1.61655300641006   -1.46244004627678    3.28283785768561
C         0.03214201671618    0.36095330051687    3.96959168347835
C         0.35442273092651   -1.10451053857994    4.06567429226998
H        -1.67550615442774    2.48821519033370   -4.81470776908393
H        -2.08288387825671    0.10672154345837   -5.09633118285758
H        -1.37081227627805   -2.96117671832456   -3.87087389950407
H         2.87601105784175    2.65596601643118   -2.94219270300254
H        -3.03757221051144    2.84166828503382   -2.94374036972395
H         0.44185977217178   -1.42152776828584    5.11857061152760
72
 energy: -144.411855528095 gnorm: 0.009182905012 xtb: 6.4.1 (a3dbbd7)
C        -1.34807991390380    1.89494703773022   -3.96059851815123
C         0.10934646791900    2.03270208993239   -3.68099833580955
C         0.82314364617354    0.81990297535591   -3.96134003841012
C        -1.49643142147464    0.35585844814291   -4.21234306488470
C        -0.09883215454767   -0.20449392119141   -4.19803409833125
C        -2.12225266920870   -0.16738435171716   -2.94190253848018
C        -2.16219847442711    2.23407330766509   -2.68309653859925
C        -2.58544725533417    0.88097675821978   -2.15065086638268
C        -1.41945560395717    2.94747587992383   -1.56040724562464
C         0.72907063648530    2.67160608608519   -2.65892016966263
C        -0.02189539153591    3.25764632821377   -1.59712773840827
C         1.93795579392912    0.71057899157741   -3.13025409987839
C         2.11655711736805    2.04134994494765   -2.44301628008075
C         2.24983094075354   -0.52242401645698   -2.55729918378003
C         0.19044357714285   -1.42180718577090   -3.64889928512650
C         1.40734904607751   -1.60961475737521   -2.94519848585069
C        -1.92337223018293   -1.43374606580007   -2.42140681767718
C        -0.89345304807523   -2.33507943297110   -3.11341401370781
C        -2.39793308682815   -1.72274602468296   -1.10627593832317
C        -3.00885358467755    0.67082247734867   -0.84488093854483
C        -2.99408552156036   -0.66700763183855   -0.31727082513430
C        -2.03445489623032    2.87813553167963   -0.32205682711812
C        -2.93723690305046    1.78908937151605    0.03998792732516
C        -1.37907323908478    3.29030761120123    0.87888397072858
C         0.66899928809678    3.48506181336660   -0.40184429945593
C        -0.02098275391688    3.59106751929022    0.83774799491224
C         2.48746328224080    1.89227346569327   -0.99938644264136
C         1.94694435231679    2.82727765057611   -0.12880217767308
C         2.91264694263616   -0.56630399799795   -1.26452410686107
C         3.04498244916660    0.67142781843209   -0.50021803955309
C         2.89572552778543   -1.78052555143880   -0.56785578140848
C         1.24671682083737   -2.73725437107091   -2.09132193306218
C        -0.12755712163629   -3.12060218107710   -2.08707117611896
C         2.03511860571098   -2.86813160624286   -0.96296566950147
C        -1.91159838726887   -2.86953361924764   -0.42892823074795
C        -0.68701144882241   -3.50901196742159   -0.90063472613913
C        -1.89146635215771   -2.93106693600205    0.98300783386180
C        -3.07779958699641   -0.81645510629340    1.08022450345351
C        -2.49782011152671   -1.93079322081621    1.74130822895601
C        -2.87508798566342    1.60710013045223    1.42330185790390
C        -1.91292002345499    2.53797086710705    1.97809553175634
C        -2.97799932456360    0.31771699650085    1.97267365934448
C        -1.09952315701873    2.14167893308369    3.02165834671235
C         0.83140004393182    3.13220959859704    1.90039484891405
C         2.04166962843976    2.66204704746868    1.28411388573376
C         0.30632632354689    2.44838337867220    2.98388424767515
C         3.21696234854755    0.56944647761221    0.89765143098286
C         2.69726339187314    1.55558178637075    1.79723731452137
C         2.99707523164612   -1.84985436492096    0.86167093195529
C         3.16360616192076   -0.68572775107205    1.58389199476509
C         1.49442434915255   -3.48150262058397    0.21347103924226
C         0.13367971010327   -3.78352645185162    0.24582739140360
C        -0.63176452421818   -3.47673298266359    1.41995798162254
C         2.11958877537474   -2.87137611492685    1.35185759859588
C        -0.01683354480966   -2.94671294543483    2.55259513488855
C         1.39109489216346   -2.63602162437730    2.52123498567184
C        -1.89696118214629   -1.46844705368235    2.96072132775340
C        -2.22048890488572   -0.05617834722263    3.10219274880309
C        -1.23922382552823    0.82112458255873    3.60634321829116
C        -0.67682799510363   -1.96072055479648    3.34826837566648
C         1.00360452105364    1.31237577101360    3.53918890968618
C         2.21115124952745    0.90542137061656    2.98400769432666
C         2.49517571262861   -0.50695924800000    2.84401045853295
C         1.61512882448470   -1.46418959830297    3.29438167141395
C         0.03264113480265    0.35494062765870    3.97054599099777
C         0.35434409602406   -1.11003407275133    4.07714546648242
H        -1.67781328351006    2.48850940891484   -4.81458164333712
H        -2.08399530641316    0.10715642577129   -5.09785442763241
H        -1.37058765096544   -2.96132077389404   -3.87335397094090
H         2.87559958378868    2.65609631245097   -2.94603728883488
H        -3.03787427455327    2.84009907024484   -2.94234653803455
H         0.44010040581348   -1.42204804559709    5.12888059891132
72
 energy: -144.411960202322 gnorm: 0.002323385400 xtb: 6.4.1 (a3dbbd7)
C        -1.34818639273685    1.89497499662444   -3.96084888744527
C         0.10924894661414    2.03286519730519   -3.68134318459618
C         0.82283344998098    0.82000397664547   -3.96184147158085
C        -1.49664698607186    0.35603842600349   -4.21326251104583
C        -0.09894135240803   -0.20455940839474   -4.19883897634079
C        -2.12302039685204   -0.16846998614459   -2.94367780953821
C        -2.16141890423049    2.23314859533169   -2.68274322896614
C        -2.58559613911404    0.88048493583722   -2.15069107987971
C        -1.41876322791165    2.94697237452556   -1.56023252084061
C         0.72911736253557    2.67187660343353   -2.65953195180399
C        -0.02127897940084    3.25850801038418   -1.59745948281065
C         1.93765336503926    0.71065427742100   -3.13096193951928
C         2.11653299497434    2.04154201406952   -2.44381145165020
C         2.25000154588676   -0.52259884500138   -2.55851509915442
C         0.19072184978111   -1.42201380959042   -3.65010537582248
C         1.40773353593770   -1.61006290012632   -2.94646848895251
C        -1.92298334824074   -1.43347713428419   -2.42289074750392
C        -0.89319133296258   -2.33528931314501   -3.11425512548606
C        -2.39760296680839   -1.72291994630705   -1.10656254197781
C        -3.00917388104576    0.67013579688019   -0.84619811980923
C        -2.99342240495653   -0.66731725883865   -0.31775183521722
C        -2.03385132250408    2.87833287123436   -0.32201280132144
C        -2.93571763317896    1.78821351203331    0.04019215977114
C        -1.37849324792549    3.29040926640702    0.87905385630719
C         0.66951872269212    3.48613372317469   -0.40214220143902
C        -0.02034433701181    3.59183541242662    0.83792167131469
C         2.48743776639218    1.89297550640758   -1.00012410822611
C         1.94795401751921    2.82850399750367   -0.12928534391574
C         2.91170186228993   -0.56604220665780   -1.26525735977574
C         3.04364954730130    0.67168669637634   -0.50063288207869
C         2.89520150210973   -1.78028973298065   -0.56868024949295
C         1.24740667688083   -2.73825669395303   -2.09298037847949
C        -0.12716257729855   -3.12109960914024   -2.08814362427690
C         2.03514138201225   -2.86837445949007   -0.96379842403536
C        -1.91101401829281   -2.86910420295897   -0.43035130691068
C        -0.68701067151417   -3.51025847958983   -0.90181238386960
C        -1.89024274653173   -2.93016846297980    0.98271101404331
C        -3.07588960294449   -0.81657293429771    1.07969254893519
C        -2.49363649428281   -1.92873744392375    1.74000943637040
C        -2.87484058188682    1.60695249775690    1.42277429213866
C        -1.91199008931968    2.53749598913185    1.97825786905160
C        -2.97692224613089    0.31763003249671    1.97365898431304
C        -1.09789397239649    2.13896438296056    3.01973343137037
C         0.83221378812003    3.13246313237344    1.90030270827223
C         2.04291036954098    2.66355398202678    1.28371617769640
C         0.30708476138831    2.44592748448678    2.98257703448270
C         3.21359842065720    0.56949236018764    0.89751892209723
C         2.69704003222180    1.55647184192182    1.79720565824616
C         2.99447900995681   -1.84873576798846    0.86126746699841
C         3.15788358065628   -0.68517295538064    1.58414379269702
C         1.49360923361705   -3.48063492224290    0.21288101142620
C         0.13340676663864   -3.78321761665256    0.24525099926990
C        -0.63093875026901   -3.47537835857506    1.41993530903275
C         2.11680093805625   -2.86926409038071    1.35165679764759
C        -0.01756037621096   -2.94432696194682    2.55265177192216
C         1.38949209432997   -2.63321766866260    2.52158949279626
C        -1.89571813879774   -1.46830382119791    2.96427236314477
C        -2.22396885328110   -0.05649668674196    3.10419713730116
C        -1.23687288966614    0.81763708144403    3.60802841201816
C        -0.67620684413307   -1.96028404458945    3.35442306328710
C         1.00447211423616    1.31027321487170    3.54038321160335
C         2.21243840177704    0.90707240820987    2.98487380015794
C         2.49267001474649   -0.50711841219754    2.84622980339857
C         1.61353022439116   -1.46399231851188    3.30092509324132
C         0.03328309889510    0.34956615964847    3.96782430874959
C         0.35469135558573   -1.11305394567172    4.08262660503868
H        -1.67857630186810    2.48906235140445   -4.81420356212846
H        -2.08402556573750    0.10792007587952   -5.09906972159548
H        -1.37090246094648   -2.96142131643820   -3.87406799162400
H         2.87551225652629    2.65584582275001   -2.94754581128830
H        -3.03764134887229    2.83900381411755   -2.94105062184468
H         0.43861513467681   -1.41929171020922    5.13391119998594
72
 energy: -144.411966987713 gnorm: 0.000914247916 xtb: 6.4.1 (a3dbbd7)
C        -1.34820145522914    1.89488334834220   -3.96059593484913
C         0.10924950830748    2.03282472124296   -3.68112964217016
C         0.82285133897156    0.81997350908891   -3.96158206189665
C        -1.49662006618285    0.35600336951626   -4.21324939853137
C        -0.09888802609252   -0.20458819849644   -4.19864082828629
C        -2.12324652543379   -0.16863748606958   -2.94383808283751
C        -2.16144903978677    2.23309850449825   -2.68254981959491
C        -2.58594544090346    0.88050965564901   -2.15059969677148
C        -1.41877114929870    2.94675848091010   -1.55997023230239
C         0.72906731605610    2.67179375217672   -2.65930763559619
C        -0.02128856038102    3.25837197386943   -1.59718810440552
C         1.93763117363870    0.71060047972615   -3.13068187495994
C         2.11646807500519    2.04144065007120   -2.44348110333502
C         2.25003009278428   -0.52265247629994   -2.55828673816537
C         0.19077792545317   -1.42199525555277   -3.64987659984992
C         1.40774844205035   -1.61008997847781   -2.94622710843906
C        -1.92298860916900   -1.43327255471493   -2.42284298267764
C        -0.89317517047924   -2.33521867201224   -3.11395980232003
C        -2.39779446119766   -1.72291287649775   -1.10626887760835
C        -3.00970548856002    0.67008936503680   -0.84640018548180
C        -2.99387845778385   -0.66738294618264   -0.31770829783122
C        -2.03391298561181    2.87813835565090   -0.32179916923772
C        -2.93592645224221    1.78811517806644    0.04035403003965
C        -1.37848158557868    3.29006974095193    0.87926684608773
C         0.66948841040366    3.48592493108701   -0.40190812807771
C        -0.02032837805616    3.59148791924099    0.83815926899582
C         2.48746416906147    1.89284454425215   -0.99987582689326
C         1.94812853565555    2.82850119121158   -0.12908084309504
C         2.91178536962992   -0.56610011111254   -1.26508772267511
C         3.04390131080382    0.67161683457106   -0.50046138085348
C         2.89536703129136   -1.78041004656702   -0.56866722606108
C         1.24741862210728   -2.73834536159604   -2.09282036708512
C        -0.12715180414009   -3.12102492565421   -2.08786769027643
C         2.03524190135848   -2.86849246065541   -0.96365988905994
C        -1.91100918231178   -2.86895948624810   -0.43044073298012
C        -0.68712648472590   -3.51046274759848   -0.90169803024787
C        -1.89039895407936   -2.93028310956589    0.98278198860606
C        -3.07626023468806   -0.81668343511544    1.07969358667827
C        -2.49342521601992   -1.92860209305514    1.73956003820992
C        -2.87541097059466    1.60692814720684    1.42274288068798
C        -1.91218994432661    2.53740037402303    1.97843569576088
C        -2.97759299338618    0.31765219347871    1.97390682711844
C        -1.09775337949132    2.13870305153661    3.01940068260101
C         0.83242204121565    3.13248161280026    1.90046491314841
C         2.04331121117582    2.66371668843789    1.28385381472757
C         0.30707001936992    2.44567455067466    2.98240228319642
C         3.21399112524056    0.56948297803938    0.89764543735460
C         2.69780829767251    1.55672598726010    1.79726395474993
C         2.99482847180657   -1.84883229526978    0.86121272202017
C         3.15805330474017   -0.68529155813241    1.58411384103150
C         1.49362236949960   -3.48073251949638    0.21292074313557
C         0.13338621570521   -3.78336891285798    0.24530552462147
C        -0.63090107880502   -3.47550870395294    1.41993994785128
C         2.11683439261642   -2.86928695713708    1.35159913443577
C        -0.01750962548070   -2.94396330803804    2.55205660836824
C         1.38944813817569   -2.63288359386796    2.52109648556623
C        -1.89545498730906   -1.46792482704974    2.96382616096713
C        -2.22493009816432   -0.05642844331069    3.10406977749590
C        -1.23650146541895    0.81712048621919    3.60762155098171
C        -0.67585984074840   -1.95937871224672    3.35378297550148
C         1.00469919991490    1.31007062877926    3.53985785353496
C         2.21296663462614    0.90740418036418    2.98464570802191
C         2.49259319682564   -0.50708593975030    2.84571979859513
C         1.61303474880019   -1.46337801501909    3.30043870780789
C         0.03332485749838    0.34867154920605    3.96598352856747
C         0.35485028565319   -1.11289668884439    4.08212164328418
H        -1.67863585834606    2.48902596052267   -4.81387551929624
H        -2.08366820362365    0.10803391296364   -5.09932879025859
H        -1.37085812489540   -2.96136484810724   -3.87376678034862
H         2.87546748254946    2.65572102564295   -2.94718411150841
H        -3.03754686184329    2.83920458705914   -2.94084381913240
H         0.43839468494575   -1.41751947832012    5.13375287712962
72
 energy: -144.411968155744 gnorm: 0.000394535277 xtb: 6.4.1 (a3dbbd7)
C        -1.34813578234080    1.89491116479705   -3.96047147793968
C         0.10932968399637    2.03285765153135   -3.68101607970204
C         0.82291900156861    0.81998605851393   -3.96139464217866
C        -1.49662546099914    0.35604329314326   -4.21306715611380
C        -0.09887152063409   -0.20452950061762   -4.19839533674156
C        -2.12342683787062   -0.16872603459797   -2.94380480166466
C        -2.16150879714089    2.23307550387184   -2.68248529249550
C        -2.58635593171759    0.88057837630167   -2.15050267738774