69
 energy: -142.807505104800 gnorm: 0.147029203522 xtb: 6.4.1 (a3dbbd7)
C        -1.31302417058678    1.86609879278613   -3.90180627800239
C         0.19287128786566    2.19266857032161   -3.94826946557692
C         0.86304893555741    0.84167071893746   -4.07158023830902
C        -1.36993957433502    0.35714827007733   -4.00312492120882
C        -0.08683143068178   -0.19362223988893   -4.21638568893608
C        -2.19041313899443   -0.17989823347974   -3.02098169197189
C        -1.94659979352525    2.07893440882512   -2.55634775190229
C        -2.62821678992407    0.91281473264422   -2.17302060959547
C        -1.43996642369848    2.95830896914328   -1.58388597588552
C         0.75929643274400    2.66620792034529   -2.63974777417654
C        -0.00793110467350    3.26903202303724   -1.62800917341714
C         1.88847423340956    0.70509661552742   -3.14637582985293
C         1.88367873161730    1.89182635530220   -2.31188547962032
C         2.24965268681519   -0.55325061803738   -2.58143157282177
C         0.19983425695347   -1.43409815968313   -3.64835293586911
C         1.45521980067179   -1.65074297851160   -2.98382621686433
C        -1.96410476255812   -1.46752316605107   -2.45174596175120
C        -0.81171485390011   -2.14266347638128   -2.91404083416362
C        -2.46465314377401   -1.74196152980485   -1.11861521181173
C        -3.05421137929779    0.67902243265858   -0.85189026541634
C        -3.05950992333894   -0.67263887744536   -0.32929074171406
C        -2.05055792619409    2.86674219446876   -0.31993987951817
C        -2.91358878149936    1.77936017135617    0.01667448227385
C        -1.39227067817213    3.28394859995696    0.89030372538085
C         0.65889487220969    3.45458523626459   -0.40338493620881
C        -0.04071515390781    3.57716227271918    0.84863681242819
C         2.44519877224739    1.87228672865822   -1.02123842030995
C         1.91287506403059    2.82662434354365   -0.13192569420658
C         2.89637896674988   -0.57874708351571   -1.28367791046110
C         3.04035842030382    0.65089878993843   -0.51712639044798
C         2.89156099831541   -1.79578213086808   -0.57513195066996
C         1.27403068375600   -2.76877324136801   -2.11116810009069
C        -0.13285983086192   -3.07405166383646   -2.06788041218358
C         2.03298637696109   -2.88489777471418   -0.96793212835508
C        -1.91469776314336   -2.83862360588463   -0.42714682958144
C        -0.70696766167217   -3.47942492901525   -0.88356162879973
C        -1.89816816478113   -2.91180282115161    1.00202987583514
C        -3.10659072347344   -0.80838955839010    1.06813057989739
C        -2.50369174772101   -1.91783971920021    1.74377994713577
C        -2.86932397577136    1.59866315524733    1.43634129260320
C        -1.92330288130263    2.52932582881487    1.99249237269395
C        -2.98807947193325    0.32634272199592    1.95328370548974
C        -1.10598769765839    2.13236466443179    3.04236868511898
C         0.81886681114459    3.12429546155204    1.90802403547725
C         2.03088036345665    2.66190068918799    1.28546860509617
C         0.30252996919524    2.43798591942029    2.99898928626889
C         3.22145778295873    0.56464790212148    0.87327353578788
C         2.69594749700278    1.55964649300952    1.77826074848582
C         2.99084137952625   -1.85101204848043    0.85148124627205
C         3.17289440893759   -0.68615201539815    1.56897645263815
C         1.47699457210460   -3.48544102145116    0.21541710697230
C         0.11629915326687   -3.78067078368173    0.25730683317662
C        -0.64123237722584   -3.47179826318384    1.43726535790076
C         2.10655208422175   -2.87560080557839    1.35265699347941
C        -0.01560228790847   -2.96030632632752    2.56589971143830
C         1.39279855311844   -2.65472018173227    2.52253486043279
C        -1.90494600572760   -1.45566793902628    2.97029099516246
C        -2.20651364193536   -0.05733343325236    3.10011857175871
C        -1.25815241055337    0.82006095859470    3.61572263269059
C        -0.66432515421318   -1.94439963268688    3.35644669662129
C         1.01782805785083    1.31390240421887    3.54562508825254
C         2.21227892537768    0.90143666170873    2.96405223714972
C         2.50973083596939   -0.49779356459569    2.83435280274489
C         1.60787136787804   -1.45138937672090    3.28647955582158
C         0.05250216144611    0.32478111624061    3.95814786387169
C         0.34213909167657   -1.02809020499858    3.83122701977771
H        -1.87070307049028    2.38861036437491   -4.68251263710429
H         0.43712226163089    2.88888323315137   -4.75397402483411
H        -4.11375308307765   -0.90626037572670   -0.53903428913550
69
 energy: -142.834830265729 gnorm: 0.072456049695 xtb: 6.4.1 (a3dbbd7)
C        -1.31108212424211    1.86910309540880   -3.90571300439663
C         0.19490612450208    2.19423560986985   -3.95029756769057
C         0.86438489041372    0.84263209395652   -4.07271579255065
C        -1.36861227384304    0.35885260630044   -4.00388829706650
C        -0.08388500431181   -0.19272347173430   -4.21702020565496
C        -2.18428552835333   -0.17719922232874   -3.01957162313696
C        -1.93982089747082    2.08832247599043   -2.56039144891737
C        -2.62213270371325    0.92106948519450   -2.17422672682580
C        -1.43445206837102    2.96568417814846   -1.58908422391885
C         0.76210166395845    2.66772864128511   -2.64214103652726
C        -0.00373860820313    3.27297515354561   -1.63104888643510
C         1.88990084900858    0.70581089097093   -3.14692037817163
C         1.88527780998010    1.89219817093922   -2.31290444588658
C         2.25212953955930   -0.55217983602863   -2.58251021656036
C         0.20712528327950   -1.43385004050607   -3.65323645757062
C         1.46009106937893   -1.65042189523422   -2.98753377579922
C        -1.94981501128186   -1.46743484854118   -2.45242716350406
C        -0.80128190969566   -2.14654667657625   -2.91850899726169
C        -2.44446805576428   -1.75186747383499   -1.12692820040648
C        -3.04905200045170    0.69772167136716   -0.86008188236758
C        -3.18776405546554   -0.69993933965126   -0.35368246429848
C        -2.04431362926483    2.87428498761873   -0.32239546812927
C        -2.89759406030222    1.78292166247163    0.01464771896357
C        -1.38910989292034    3.28451584775384    0.88927633544762
C         0.66128837564202    3.45505177141784   -0.40476607857021
C        -0.03808899120317    3.57713050725319    0.84832734685134
C         2.44617602153526    1.87199880251091   -1.02199831697829
C         1.91356302247935    2.82643356144017   -0.13274209216056
C         2.89772522482739   -0.57763822652235   -1.28455728823658
C         3.04136070652625    0.65092522827617   -0.51872266039427
C         2.89211970758169   -1.79606821255230   -0.57595175439044
C         1.27792907000005   -2.76967512023122   -2.11470168898773
C        -0.12534041355773   -3.07920259201316   -2.07517904562158
C         2.03448487309855   -2.88347306319086   -0.96863402170396
C        -1.89849602945582   -2.83546369571273   -0.43046235346643
C        -0.70085433165539   -3.48472550284683   -0.88727764850993
C        -1.89001268380153   -2.90799026621470    1.00779450128834
C        -3.12287625434363   -0.81330583571544    1.10377306369692
C        -2.49335947037952   -1.91261637506264    1.75685774131912
C        -2.86217954119445    1.59974598606840    1.43916942891738
C        -1.92162225282596    2.52783178306146    1.99223908068224
C        -2.97761249835545    0.32245307431397    1.96338158557036
C        -1.10228819715656    2.13303745452583    3.04684446000921
C         0.82082121083974    3.12579130166021    1.90822550071191
C         2.03027674514751    2.66170214025255    1.28553580406174
C         0.30291392503059    2.43789268811022    3.00065393215888
C         3.22102422626520    0.56455140824865    0.87368529069090
C         2.69628380687027    1.55891859238733    1.77781049050771
C         2.98948187486435   -1.85106434779610    0.85157087311042
C         3.17210368530725   -0.68587647729305    1.56867812936364
C         1.47765313782255   -3.48331607030284    0.21570354785276
C         0.11775874132110   -3.77842608278362    0.25700137431436
C        -0.64021555014334   -3.46936454040454    1.43934727730519
C         2.10814956241220   -2.87633543393097    1.35364177242437
C        -0.01134409693517   -2.96053588228050    2.57253492282710
C         1.39423499155607   -2.65531265604850    2.52563028833254
C        -1.89824747321336   -1.45594624437432    2.98731942353411
C        -2.19931772542361   -0.05880483361424    3.11488076186570
C        -1.25219459003076    0.82081422776260    3.62310364389669
C        -0.65734640812153   -1.94599096157218    3.36656638423069
C         1.02010004115758    1.31404169357138    3.54698180059349
C         2.21329515858152    0.90112292509956    2.96461145992415
C         2.51111314999510   -0.49788608197453    2.83553079879693
C         1.61113886081565   -1.45189800989133    3.28927201191012
C         0.05777247994474    0.32465564839944    3.96368851142600
C         0.34787015474304   -1.02829653309202    3.83790553899752
H        -1.86882804234427    2.39081531675046   -4.68697135323260
H         0.43909186913709    2.88996744123836   -4.75613318930564
H        -4.24926666132742   -0.93964433279956   -0.57505518158802
69
 energy: -142.843422729105 gnorm: 0.013455135640 xtb: 6.4.1 (a3dbbd7)
C        -1.30799269346218    1.86988594466078   -3.90459134981457
C         0.19870845173023    2.19512230118722   -3.95086188010781
C         0.86662962089596    0.84274193229232   -4.07181137957927
C        -1.36744072312646    0.35908792627573   -3.99882181055326
C        -0.08029825300629   -0.19241580230985   -4.21498535697741
C        -2.18323356993045   -0.17672641389637   -3.01820383411206
C        -1.93395863940402    2.08686567612317   -2.55802240088477
C        -2.62260258001745    0.92035501847941   -2.16848157810340
C        -1.42774827671055    2.96313551697514   -1.58949478649429
C         0.76704638039217    2.66984798902618   -2.64349049201981
C         0.00145874981883    3.27596445866660   -1.63228226834689
C         1.89418704008876    0.70647517143098   -3.14646141420795
C         1.88925539515252    1.89290603474783   -2.31329910288953
C         2.25790490452394   -0.55101698729401   -2.58325324044761
C         0.21314165661501   -1.43232616636722   -3.65297859251530
C         1.46652064686723   -1.64968872200237   -2.98936396984342
C        -1.94650497891326   -1.46643134707732   -2.44702202654866
C        -0.79597450611980   -2.14518916941065   -2.91647425962175
C        -2.44126365180209   -1.75668707465953   -1.13189747541592
C        -3.05427196092166    0.70407128116812   -0.86324775419778
C        -3.32960938091653   -0.72945577623516   -0.38148134978347
C        -2.03545010468003    2.86725710074653   -0.32181769264693
C        -2.88779276972243    1.77461171221999    0.01235130938397
C        -1.38340110460925    3.28099103609701    0.88910082033234
C         0.66572520354054    3.45593113115663   -0.40494377304873
C        -0.03368211199458    3.57712119556824    0.84919400200923
C         2.44978354311527    1.87246090901659   -1.02204677313830
C         1.91691212012691    2.82680719232220   -0.13259900803969
C         2.90157174544670   -0.57609266772410   -1.28441347856616
C         3.04426076843101    0.65159291311813   -0.51928327132827
C         2.89501008879787   -1.79495751374366   -0.57589927915563
C         1.28385418955144   -2.77006906787045   -2.11688135381547
C        -0.11966677492044   -3.07617892171848   -2.07662022919461
C         2.03861266860633   -2.88201229196032   -0.96931136774174
C        -1.89227954781304   -2.82232554263692   -0.43390603499949
C        -0.69572614411169   -3.47525955643716   -0.88609889520727
C        -1.88781045676796   -2.90303946889286    1.01049390661950
C        -3.13126198121152   -0.81392970459836    1.11996109465434
C        -2.49168674385368   -1.90398322637896    1.75730426617231
C        -2.85836204249692    1.59781906219153    1.44121605713822
C        -1.91760613275907    2.52078732298365    1.99063883788743
C        -2.97190817062066    0.31565367438238    1.96195320658318
C        -1.09619927358938    2.13311925238127    3.05015536743304
C         0.82579379854969    3.12674012572673    1.90900315496394
C         2.03326094075747    2.66178427492420    1.28622323710836
C         0.30647157762381    2.43755996498777    3.00145116397859
C         3.22320866845552    0.56509833521295    0.87446192807150
C         2.70043115178648    1.55925671613949    1.77805386423873
C         2.99215328582301   -1.84983286267870    0.85205560197506
C         3.17594243231827   -0.68448375657759    1.56893587712627
C         1.48094466547872   -3.48093199206118    0.21589663277844
C         0.12100749921125   -3.77195397621440    0.25688807856336
C        -0.64011306422248   -3.45912155589604    1.43806139864283
C         2.11234655239465   -2.87470365364739    1.35405648594145
C        -0.00619218945190   -2.95798554360835    2.57598837265012
C         1.39740126528447   -2.65354314828322    2.52660925555341
C        -1.89181548677491   -1.45331627849096    2.99121630605143
C        -2.19216711525549   -0.05877926287738    3.11919871017504
C        -1.24548388875797    0.82113856969805    3.62623850028643
C        -0.65085450088519   -1.94424871548109    3.37000196796131
C         1.02611619691842    1.31491277993437    3.54906801377362
C         2.21850298498046    0.90214591040075    2.96601152776494
C         2.51614629078651   -0.49682234764023    2.83684864383424
C         1.61721366912108   -1.45068010651725    3.29168855182441
C         0.06486285070411    0.32569259899007    3.96848827105021
C         0.35495707458724   -1.02746310336732    3.84323168605180
H        -1.86511210518613    2.39054933320300   -4.68714733359543
H         0.44285021988126    2.88984895279810   -4.75772716407551
H        -4.38397455588845   -0.97176965016448   -0.61101425620070
69
 energy: -142.843796142466 gnorm: 0.006215956486 xtb: 6.4.1 (a3dbbd7)
C        -1.30676026263110    1.86864930028220   -3.90231020208159
C         0.20033457702135    2.19511512861899   -3.94962425212040
C         0.86856598607990    0.84347667455271   -4.07068901049582
C        -1.36695265852641    0.35861661962064   -3.99739909110674
C        -0.07890851564988   -0.19116186203086   -4.21341757660819
C        -2.18758357426731   -0.17779209382828   -3.02110964068513
C        -1.93399074276964    2.08093543710146   -2.55575697677941
C        -2.63109506676040    0.91669271145193   -2.16924633502895
C        -1.42480883198010    2.95532776983175   -1.58781506567798
C         0.77084057013141    2.67011749873134   -2.64341902226200
C         0.00420486057872    3.27340389676464   -1.63164630352324
C         1.89808940473546    0.70763018481230   -3.14670602039052
C         1.89409451617347    1.89409020404869   -2.31381541408431
C         2.26182357407226   -0.54964339927798   -2.58338494912772
C         0.21337320292568   -1.42964460985239   -3.64966421522609
C         1.46819341892238   -1.64751020432331   -2.98820113078013
C        -1.95514586260554   -1.46698369780130   -2.44707921348832
C        -0.79797031673226   -2.14032051952128   -2.91311649094935
C        -2.46145215491234   -1.75942426075250   -1.13491975040808
C        -3.07285961579707    0.69842064655295   -0.86523892396823
C        -3.34499443464252   -0.73225611666078   -0.38393354858359
C        -2.03256762275566    2.85626639201903   -0.32158399283696
C        -2.89350730026981    1.76824903800761    0.01106435714797
C        -1.38010421600627    3.27375367518402    0.88791214636898
C         0.66910240240129    3.45441774265183   -0.40496230867843
C        -0.03116638929925    3.57381015501867    0.84874008693586
C         2.45503314248093    1.87359972377778   -1.02230057382539
C         1.92123847472204    2.82722454138324   -0.13244241218340
C         2.90645552382309   -0.57484168648139   -1.28454038632229
C         3.04933317650570    0.65276448381637   -0.51902996722386
C         2.89858047922820   -1.79337836216265   -0.57557235426132
C         1.28519120991460   -2.76732518634888   -2.11584123275037
C        -0.12025244576479   -3.06969490440110   -2.07377520691164
C         2.04059682514335   -2.87951299406866   -0.96895753560121
C        -1.89993101239429   -2.81883948365709   -0.43422462864150
C        -0.69688509706331   -3.46510529852079   -0.88369992691971
C        -1.89047799628193   -2.90144772756421    1.01075051264034
C        -3.14182593295396   -0.81589253907851    1.11596888988547
C        -2.49887443932769   -1.90359858260599    1.75529402984530
C        -2.85999896432813    1.59518123788624    1.44112158412010
C        -1.91534407184727    2.51560041767584    1.98929902000528
C        -2.97794885811524    0.31282614334757    1.95966896569069
C        -1.09348312362979    2.13153029295294    3.04920597353486
C         0.82910316283951    3.12601342762175    1.90907989573453
C         2.03716741648799    2.66208296714719    1.28659309019837
C         0.30935843312751    2.43699142534380    3.00111846997574
C         3.22755366540217    0.56601030168732    0.87517854643896
C         2.70468714901229    1.56002277183819    1.77896641227691
C         2.99557907439805   -1.84846763846378    0.85256605131989
C         3.18009689164809   -0.68340069043563    1.56987613396588
C         1.48188877474214   -3.47706180145417    0.21630976982264
C         0.12120844670405   -3.76453876726381    0.25749365883256
C        -0.64030742995770   -3.45309075305974    1.43782923000579
C         2.11494888201022   -2.87249526341625    1.35451007584459
C        -0.00449674591630   -2.95521737731128    2.57569010115137
C         1.39966268277847   -2.65168234940455    2.52665757430953
C        -1.89145995003899   -1.45230689379514    2.98778110066428
C        -2.19148007634225   -0.05888991558126    3.11584637536239
C        -1.24341115075509    0.81981701093841    3.62440610390729
C        -0.64976189356206   -1.94184111463514    3.36866570752820
C         1.02948137572733    1.31525069816307    3.54998458910076
C         2.22248052431931    0.90305000803803    2.96721245301020
C         2.52008474177609   -0.49605854798241    2.83806394477171
C         1.62043165695517   -1.44957081101412    3.29283816328545
C         0.06739784657856    0.32614323707777    3.96902318452837
C         0.35736287122871   -1.02672115004636    3.84389339857073
H        -1.86318214411637    2.39043328709619   -4.68448882156100
H         0.44368721374173    2.88936690737054   -4.75722875262788
H        -4.39749443787734   -0.97524741509763   -0.61565849770002
69
 energy: -142.843849234209 gnorm: 0.002300415496 xtb: 6.4.1 (a3dbbd7)
C        -1.30678819833455    1.86755300476645   -3.90075266763762
C         0.20030683489341    2.19486238613540   -3.94891016197396
C         0.86889982443330    0.84373437508402   -4.07041871436757
C        -1.36684475822968    0.35787611235130   -3.99699977768954
C        -0.07842669629542   -0.19082245100352   -4.21328282000087
C        -2.18923016039602   -0.17841816065848   -3.02297765302386
C        -1.93372084436140    2.07891440397103   -2.55417428224955
C        -2.63328553251544    0.91513944034914   -2.16872330810062
C        -1.42341927810213    2.95298227263548   -1.58713889967197
C         0.77200391835152    2.67052134245266   -2.64350245576837
C         0.00545997483157    3.27306410649543   -1.63136464651446
C         1.89933851318255    0.70808356171596   -3.14705044180940
C         1.89576989800532    1.89466379947474   -2.31432330197896
C         2.26304271039414   -0.54922542179766   -2.58370850891436
C         0.21329516996596   -1.42875551610357   -3.64840895555519
C         1.46874243298714   -1.64705227258953   -2.98790221721761
C        -1.95820328353912   -1.46719598803804   -2.44669715734572
C        -0.79850355105956   -2.13815052686234   -2.91151359455387
C        -2.46679767159901   -1.75883862558597   -1.13494586490212
C        -3.07794006453751    0.69560809434471   -0.86529610257291
C        -3.35141427170674   -0.73309713826112   -0.38446446026071
C        -2.03064481337889    2.85170412951012   -0.32141409068437
C        -2.89396016787643    1.76526547399464    0.01044359663625
C        -1.37817904232024    3.27038548099505    0.88751428784258
C         0.67049045245404    3.45412445479924   -0.40488636055704
C        -0.03004599265788    3.57310186505041    0.84871518308898
C         2.45673654930282    1.87409730295076   -1.02257238864039
C         1.92294604745606    2.82765486292600   -0.13238821077560
C         2.90781747454913   -0.57459301789201   -1.28465736664940
C         3.05050410486578    0.65308891179609   -0.51899400758955
C         2.89984699229181   -1.79301272650694   -0.57550571397355
C         1.28611824463157   -2.76671763177551   -2.11568959597633
C        -0.12033994603555   -3.06731895939380   -2.07268266310356
C         2.04132797082621   -2.87882182407469   -0.96888563562768
C        -1.90141181509636   -2.81590910077714   -0.43391242694931
C        -0.69689811932206   -3.46041388876933   -0.88269630270228
C        -1.89121799675752   -2.90166093289190    1.01130063641301
C        -3.14471345178866   -0.81622184418614    1.11377878830913
C        -2.50230532616046   -1.90346675860861    1.75382097975960
C        -2.86045501055271    1.59501113891147    1.44150041542748
C        -1.91436664423682    2.51382400450008    1.98898777231495
C        -2.98074781407460    0.31191379444370    1.95801184346683
C        -1.09254763203690    2.13144071767112    3.04906488211015
C         0.83042107808220    3.12615975687441    1.90931166719890
C         2.03859775028434    2.66245920991447    1.28676667012600
C         0.31029046954049    2.43718917109612    3.00107930050914
C         3.22832611678541    0.56613850797358    0.87542332136070
C         2.70579631216973    1.56027284344872    1.77935912281583
C         2.99671371950426   -1.84831442239741    0.85272279699712
C         3.18112957681692   -0.68321132229090    1.57021310103101
C         1.48234269619043   -3.47609513503889    0.21645684201545
C         0.12139532928344   -3.76123428611852    0.25789377161230
C        -0.64044785573016   -3.45104907960907    1.43792961873208
C         2.11593495722818   -2.87206035270220    1.35472908266289
C        -0.00389909594606   -2.95474343406698    2.57572572276659
C         1.40033461910102   -2.65148765866260    2.52663290951522
C        -1.89088694409956   -1.45156643373592    2.98556586388171
C        -2.19072519916922   -0.05870265892744    3.11371420958320
C        -1.24290457904706    0.81947913458647    3.62365392637939
C        -0.64966434023909   -1.94105975591370    3.36801810777288
C         1.03026651208476    1.31553618191169    3.55045344653840
C         2.22334922232613    0.90333808295390    2.96769852857428
C         2.52087136393546   -0.49603801138176    2.83847642763692
C         1.62113674416670   -1.44949921963413    3.29326520328295
C         0.06778121731810    0.32631594841014    3.96905561202622
C         0.35766542882807   -1.02656523766993    3.84395505850365
H        -1.86376943436766    2.38987360923641   -4.68209895886721
H         0.44239549114172    2.88882175355612   -4.75716822978606
H        -4.40194136818007   -0.97696150284747   -0.61932088754001
69
 energy: -142.843855139808 gnorm: 0.000894257010 xtb: 6.4.1 (a3dbbd7)
C        -1.30691373014614    1.86739197229689   -3.90055195613637
C         0.20017689298851    2.19489462345782   -3.94891204303028
C         0.86872301604140    0.84379821723764   -4.07038243580788
C        -1.36691990341497    0.35772462188497   -3.99693612736844
C        -0.07846975722642   -0.19075721260777   -4.21352825276587
C        -2.18946990993643   -0.17856555965541   -3.02345276134104
C        -1.93349939193354    2.07861216773869   -2.55381935598396
C        -2.63314497925642    0.91493525769150   -2.16839525183267
C        -1.42314219022382    2.95286924033024   -1.58711895170378
C         0.77197103895041    2.67064655046935   -2.64359292812683
C         0.00565508850542    3.27327980210559   -1.63137544805471
C         1.89925575560846    0.70811288358978   -3.14708450882874
C         1.89578108129531    1.89472022205993   -2.31443688437076
C         2.26288190743780   -0.54923522108755   -2.58378929665147
C         0.21305423941610   -1.42869876459504   -3.64832498038780
C         1.46861969735972   -1.64715458275758   -2.98795424017001
C        -1.95840872464263   -1.46725808447835   -2.44640087339485
C        -0.79853742504927   -2.13783093196154   -2.91124818371875
C        -2.46638271220733   -1.75822282553024   -1.13436214318822
C        -3.07716350464660    0.69488497911325   -0.86487956590219
C        -3.35162386246297   -0.73299645289237   -0.38414418409016
C        -2.03017189316867    2.85119734341600   -0.32138826341121
C        -2.89316881820250    1.76481558096579    0.01034807042892
C        -1.37785651346157    3.27003996780109    0.88752672165612
C         0.67055951436093    3.45426390427410   -0.40486808604064
C        -0.02999886004025    3.57350350190527    0.84878986202730
C         2.45663716159940    1.87414179938173   -1.02262346293015
C         1.92298122082829    2.82779556229496   -0.13236731336059
C         2.90761805188064   -0.57466195141513   -1.28467332593108
C         3.05026533510221    0.65308954770154   -0.51901772835844
C         2.89976734839621   -1.79306470451776   -0.57551290687895
C         1.28629744797596   -2.76684445280185   -2.11583983264028
C        -0.12038605573295   -3.06727429302370   -2.07265405172734
C         2.04123006595285   -2.87885587851634   -0.96891704367191
C        -1.90105878159490   -2.81527056068130   -0.43366041000967
C        -0.69676357178180   -3.45979228931406   -0.88258995193721
C        -1.89100784684687   -2.90211216619666    1.01162283248199
C        -3.14402705250855   -0.81604581146829    1.11302048587018
C        -2.50265279087470   -1.90338177190236    1.75333758610638
C        -2.86024503069065    1.59535784706285    1.44176799289364
C        -1.91432355119464    2.51394457344242    1.98912957879710
C        -2.98084881650155    0.31186613677880    1.95743873374457
C        -1.09257113570036    2.13177378363502    3.04924824909314
C         0.83045367870971    3.12638458186835    1.90943057395035
C         2.03858139576429    2.66260658259740    1.28678957529731
C         0.31024644354249    2.43741460387332    3.00115372878592
C         3.22797154282870    0.56607861514163    0.87540544152442
C         2.70553986321683    1.56025801402776    1.77937050652324
C         2.99662014973650   -1.84843531304617    0.85271732837606
C         3.18084968399956   -0.68325073480988    1.57018630393462
C         1.48237849613117   -3.47637261937274    0.21646661675429
C         0.12143379597959   -3.76097450495842    0.25802387165233
C        -0.64048074188432   -3.45125603044912    1.43811059193588
C         2.11595158783145   -2.87220390350922    1.35478053279620
C        -0.00384804540374   -2.95511353414699    2.57589077984057
C         1.40027969191684   -2.65170940098965    2.52665697818988
C        -1.89062558643721   -1.45136720988787    2.98511142968408
C        -2.19039415191801   -0.05863156490628    3.11327497371850
C        -1.24302608293085    0.81955045303359    3.62371325903302
C        -0.64982179798024   -1.94113284239488    3.36805194462635
C         1.03009148175565    1.31562573444604    3.55051445072439
C         2.22308091195890    0.90334180873113    2.96770305943350
C         2.52056693810746   -0.49611854570777    2.83844160107409
C         1.62094742886665   -1.44960149638133    3.29326636337443
C         0.06753877275947    0.32632842839192    3.96895626655726
C         0.35739469131847   -1.02658628343446    3.84383037033227
H        -1.86427474385797    2.38988970013760   -4.68155575605461
H         0.44192693664555    2.88875994330303   -4.75737492901986
H        -4.40135157645090   -0.97720311227510   -0.62053336103139
69
 energy: -142.843856155332 gnorm: 0.000402828239 xtb: 6.4.1 (a3dbbd7)
C        -1.30704426261365    1.86741787214914   -3.90060618135848
C         0.20006144368167    2.19490208003413   -3.94897671865943
C         0.86853078478917    0.84376795311127   -4.07033632480648
C        -1.36700174908053    0.35769007315979   -3.99688784886363
C        -0.07855487576464   -0.19079177582775   -4.21376251433692
C        -2.18947878061482   -0.17860857606575   -3.02355715740670
C        -1.93336633566759    2.07861311426173   -2.55370924793138
C        -2.63283400921546    0.91504825946592   -2.16821609409144
C        -1.42311636375823    2.95312578297146   -1.58719637156909
C         0.77177965700296    2.67068966152243   -2.64365334069789
C         0.00565007568206    3.27351674061882   -1.63141770420563
C         1.89900093641356    0.70805059138747   -3.14700595100521
C         1.89553191151415    1.89466806384700   -2.31441365149870
C         2.26258194195410   -0.54930492072618   -2.58377505213500
C         0.21285158503687   -1.42880147977796   -3.64838540482118
C         1.46846187609004   -1.64731100880854   -2.98802541536478
C        -1.95815402991459   -1.46731313678426   -2.44617482672747
C        -0.79848911004681   -2.13789889615937   -2.91123672550440
C        -2.46542921314444   -1.75786186562966   -1.13388670001290
C        -3.07574765335023    0.69462017901472   -0.86447214445362
C        -3.35111942728004   -0.73274689709430   -0.38376446637017
C        -2.03007566509478    2.85149674325608   -0.32136302028935
C        -2.89245864427816    1.76495196535675    0.01035051177676
C        -1.37789825606819    3.27039017659555    0.88763800878741
C         0.67041852375749    3.45445325264485   -0.40485419586665
C        -0.03013151564891    3.57404968356010    0.84889160993750