72
 energy: -144.383335817390 gnorm: 0.146634315529 xtb: 6.4.1 (a3dbbd7)
C        -1.29875362383292    1.87432240035865   -3.88169665960090
C         0.20330644505254    2.23403793987488   -3.97839570502055
C         0.95703679768027    0.90406391834112   -4.30603615182108
C        -1.29904071420892    0.37395997667673   -3.93238177275387
C        -0.09395450930547   -0.15471285350794   -4.20461110457897
C        -2.20279203145850   -0.17091046160037   -2.96917302417847
C        -1.95124985275187    2.09063472859972   -2.54628164511212
C        -2.62861836203084    0.90804191697682   -2.15022109021489
C        -1.44878572581872    2.95404389767902   -1.56796827969336
C         0.73980675297022    2.64124643405946   -2.64025280855738
C        -0.01855302981804    3.25032708094038   -1.61915215958004
C         1.85196175665775    0.68064701827472   -3.10593714556714
C         1.83758616171873    1.85110301930861   -2.28838129164322
C         2.17003077323023   -0.52602007428995   -2.56142791390487
C         0.20392477775961   -1.56718809704592   -3.88367548457549
C         1.60017746775906   -1.79154138953682   -3.19986408392511
C        -1.94100223757426   -1.43735979283341   -2.39818362032943
C        -0.80188438700720   -2.11040069694730   -2.87543083675698
C        -2.46164990672697   -1.72239028502633   -1.07604841365152
C        -3.06147989279550    0.68422677636811   -0.81950981134356
C        -3.06633758528847   -0.65987158735254   -0.29422636654665
C        -2.06194798037333    2.87381315585428   -0.29815957104919
C        -2.92565809470771    1.78455722093984    0.04455191721310
C        -1.40091929741895    3.28874432167604    0.90508600069409
C         0.64733844422130    3.44848216822881   -0.39579555558651
C        -0.04672401683802    3.58203252512147    0.86007961493852
C         2.40663853273795    1.85568152484337   -0.99960328663362
C         1.90188120509454    2.82836117195038   -0.11975006731338
C         2.81942815239811   -0.57167547309767   -1.26310422838135
C         2.99234559658567    0.64406581356715   -0.49984434319614
C         2.87967814467687   -1.79271086488616   -0.57269844702290
C         1.27013924152118   -2.78689556869755   -2.12181831247986
C        -0.13475225585346   -3.02114450580020   -2.04372961758465
C         2.00659683389310   -2.88946749241028   -0.97669058758680
C        -1.92067089357105   -2.82464447713076   -0.39421759835728
C        -0.72236842150650   -3.45664814111276   -0.85588439318050
C        -1.91260272784698   -2.91082164334992    1.03758493299257
C        -3.12169888760307   -0.80167664391754    1.10695735323430
C        -2.51446194625716   -1.91369383107288    1.77794876062385
C        -2.87860396195774    1.60478645385345    1.46342486414362
C        -1.92735019563887    2.53343350158954    2.01203611837817
C        -2.99777783871253    0.33124759603094    1.98505938064855
C        -1.10557252974280    2.13648891700865    3.05794461435581
C         0.81394127015121    3.13130247532323    1.91819435896203
C         2.02695236299716    2.66779643541654    1.29798572345675
C         0.30184263018604    2.44337368507283    3.01311510035317
C         3.21065423630007    0.56526974752991    0.89046188103675
C         2.69408483410314    1.56646225466240    1.79268665727838
C         2.97695474512069   -1.84582153009241    0.84474968902629
C         3.16501641413106   -0.68059490958551    1.57542589195351
C         1.45222955452573   -3.47107179553829    0.21721741388356
C         0.09349914031215   -3.77571359734849    0.27363168204938
C        -0.65601931245400   -3.47414236283774    1.46237010094657
C         2.09077060710329   -2.86877614383266    1.34962384556496
C        -0.02050609061596   -2.95700046221889    2.58460500275828
C         1.38687970105500   -2.64986749644882    2.52853033100557
C        -1.90931494942857   -1.45157212254891    3.00017101457679
C        -2.20922699538204   -0.05241722843509    3.12887182915004
C        -1.25666048924994    0.82429925838762    3.63475221738483
C        -0.66477864000918   -1.94130563572872    3.37662543502072
C         1.01827700264960    1.32041539022560    3.55895063125693
C         2.21342689189153    0.90619864882397    2.97912350081115
C         2.50854561973968   -0.49404661953500    2.84487263041719
C         1.60693422302471   -1.44837529883644    3.29464446040341
C         0.05468539676159    0.32919964002427    3.97264954633998
C         0.34419604133209   -1.02360804027125    3.84486574022867
H        -1.87355176514778    2.34685743285934   -4.68229896534993
H         0.37554171096237    3.01215253877715   -4.72386883423764
H         1.51540281286516    0.92221734070674   -5.24454231377543
H         2.32515924959878   -2.19409835656264   -3.91585810553191
H         0.16260778459433   -2.18245064251578   -4.79370379554406
H         0.98130545405648    4.48779498652867   -0.53105420432790
72
 energy: -144.407770596994 gnorm: 0.076136682424 xtb: 6.4.1 (a3dbbd7)
C        -1.30353414928392    1.87068699953541   -3.88736952309924
C         0.19818917283024    2.23196811327229   -3.98488101625561
C         0.95654156368630    0.90385919536368   -4.30521637448669
C        -1.29982015449908    0.37005721715869   -3.93464740547849
C        -0.09443453813542   -0.15605836502485   -4.20504625131442
C        -2.20810841930803   -0.17590507464832   -2.97423262680649
C        -1.95944595089973    2.08624460237264   -2.55429532258985
C        -2.62942542679804    0.90196750924512   -2.15355551895920
C        -1.45405308712305    2.94641894222620   -1.57594703151265
C         0.72900741935976    2.64355619099003   -2.64860561363084
C        -0.03420244574361    3.24795861151986   -1.64798666987625
C         1.85042904479728    0.68510191134878   -3.10365427817601
C         1.83379056349721    1.84868643474153   -2.28731784303401
C         2.17099510110405   -0.52626961053031   -2.55765795891556
C         0.20485616818610   -1.56923048333310   -3.88644746189734
C         1.59879277432759   -1.78921551929613   -3.19749693810821
C        -1.94149303987295   -1.43823192489274   -2.39976588006263
C        -0.80141839173076   -2.11136325445802   -2.87626535844291
C        -2.46040093195073   -1.72216484820864   -1.07631047472411
C        -3.05861518368444    0.68077571421260   -0.82007793511891
C        -3.06535256140494   -0.66070083301071   -0.29479564210954
C        -2.06305851927411    2.87237278992050   -0.29859813057733
C        -2.92057996901487    1.78218806218795    0.04445469411660
C        -1.40345899602593    3.27895480368885    0.91047621433879
C         0.67511185765163    3.55835378829427   -0.41057239906681
C        -0.05469696025584    3.58003073204150    0.87737400385237
C         2.39950420469968    1.84133423202710   -0.99261416670949
C         1.91213997426020    2.81283563387145   -0.10956611762380
C         2.82283938575252   -0.57547516813677   -1.26445035305055
C         2.99587086221315    0.63583135978517   -0.49818970434785
C         2.87976174511858   -1.79886611069239   -0.57196956491967
C         1.26909025800998   -2.78633911988840   -2.12126821194743
C        -0.13495454621455   -3.02056346373280   -2.04410593830623
C         2.00709481553267   -2.89143096356929   -0.97538529826615
C        -1.91865080755648   -2.82442338047921   -0.39402049876029
C        -0.72276105485475   -3.45797152177219   -0.85560568438239
C        -1.91189328053925   -2.91073474530432    1.03871283453062
C        -3.12243143044753   -0.80268444866990    1.10897771246388
C        -2.51426020551045   -1.91388306906364    1.77894475008018
C        -2.87740901758321    1.60269602532632    1.46502836157630
C        -1.93162644820273    2.52992323540147    2.01783575291583
C        -2.99735702943836    0.32830453812640    1.98597494586105
C        -1.10554195609431    2.13388913739064    3.06450491835793
C         0.80881206271191    3.12335258463420    1.91742998726554
C         2.02360086074215    2.65709943332683    1.29554694287702
C         0.29855482260314    2.43831076019959    3.01976461599840
C         3.21354845240050    0.55960779812338    0.89392998011921
C         2.69992738950920    1.55608660580314    1.79492496963463
C         2.97488361931646   -1.85070506178912    0.84760300144233
C         3.16476918671144   -0.68767971252727    1.57935714435218
C         1.45239111113143   -3.47363190324212    0.21916466219535
C         0.09299321170170   -3.77528944300644    0.27381153165430
C        -0.65662837557395   -3.47391780843417    1.46362599019352
C         2.09054288046561   -2.87421957008557    1.35177275900401
C        -0.02100051276486   -2.95922923180225    2.58712586614995
C         1.38587621807633   -2.65400016671451    2.53226816720803
C        -1.90957649834320   -1.45345792273285    3.00248355298024
C        -2.20825137839566   -0.05483059704306    3.13068191650583
C        -1.25597737142276    0.82046266087382    3.63837251858947
C        -0.66529386282355   -1.94396603898795    3.37950368183563
C         1.01829599031147    1.31515907614347    3.55963608904278
C         2.21552957170540    0.89954277076918    2.98146300439756
C         2.51053266053802   -0.49975390410457    2.84887387623214
C         1.60629259493073   -1.45402213823661    3.29736786694392
C         0.05480803831966    0.32489839386174    3.97636832872202
C         0.34363673042057   -1.02776942349008    3.84774083673825
H        -1.87693010638327    2.34314844478484   -4.68849676473998
H         0.37220126260686    3.00957621257705   -4.73015456248862
H         1.51562521921316    0.92309373797317   -5.24345586953419
H         2.32624982433215   -2.19032753784868   -3.91228380477266
H         0.16506968602207   -2.18531357634814   -4.79641877735006
H         1.01600192084309    4.60634487249375   -0.54905186214061
72
 energy: -144.416717571444 gnorm: 0.018706304531 xtb: 6.4.1 (a3dbbd7)
C        -1.30894082966730    1.86504026780281   -3.89057959686219
C         0.19246245447057    2.22946504199525   -3.98316525304760
C         0.95352846002193    0.90390417088946   -4.30307870638124
C        -1.30237784071389    0.36442691467216   -3.93904726253825
C        -0.09509667125769   -0.15802942654641   -4.20501838302791
C        -2.20950109815505   -0.18242880075639   -2.97712410160822
C        -1.96046709057710    2.07882266871726   -2.55601571224383
C        -2.62938285548933    0.89586860787884   -2.15487675942647
C        -1.44869905771194    2.93945560377248   -1.57640303198505
C         0.71947130986075    2.65281317259985   -2.64796523007429
C        -0.04279406242061    3.24469612214305   -1.66165151933143
C         1.84262152526385    0.69462629957054   -3.09606514281824
C         1.83456758032830    1.85465751859973   -2.28955507678301
C         2.16753848987133   -0.52418347561562   -2.54971864947995
C         0.20717129300143   -1.56954446418385   -3.88267926646380
C         1.59851963816589   -1.78781916552286   -3.19259929013436
C        -1.94307372251109   -1.44360956405638   -2.40112849476231
C        -0.79985280881150   -2.11410444841363   -2.87415654202264
C        -2.46182962838673   -1.72582770946026   -1.07667669391989
C        -3.05754532347159    0.67634619483284   -0.82150547105725
C        -3.06494116312821   -0.66302804705259   -0.29640698943510
C        -2.06123393217393    2.87279670929718   -0.30142372115418
C        -2.91168939318064    1.78110855266760    0.04122671068625
C        -1.39452154153957    3.27379955452347    0.91026083671786
C         0.71047467599222    3.69309349243642   -0.42715848801353
C        -0.05631395247825    3.58322288401942    0.88480619564345
C         2.38541195062606    1.83822133430432   -0.98578655176193
C         1.91200421703818    2.80540868563310   -0.10379796646990
C         2.82022676839885   -0.57748570928134   -1.26489183792557
C         2.98497086525331    0.63191939868337   -0.49584698265673
C         2.88016236161222   -1.80621872692992   -0.57126765021831
C         1.26884040765083   -2.78746428747217   -2.11908040647722
C        -0.13358080139459   -3.02244399523144   -2.04195365122528
C         2.00859874643080   -2.89447501284098   -0.97235603468211
C        -1.91827116711393   -2.82730494223753   -0.39390680175507
C        -0.72330934748935   -3.46221352763181   -0.85420279905803
C        -1.91229801308618   -2.91290362260947    1.03921154225159
C        -3.12314076268192   -0.80483834799547    1.10970267153645
C        -2.51454812412869   -1.91537114530097    1.77853699144341
C        -2.87077527702760    1.60032997685653    1.46333721407396
C        -1.92628618575966    2.52490520679915    2.01518220801054
C        -2.99478166605494    0.32549591810478    1.98440800879079
C        -1.10160322228154    2.12955464436171    3.06654896283347
C         0.80132947734043    3.11539803936905    1.91049118170327
C         2.01357202973650    2.64509062410571    1.28511351176608
C         0.29642673828760    2.43125694308204    3.01951871609146
C         3.20746395619385    0.55551930345196    0.89567121429423
C         2.70012544031485    1.54601726588463    1.79305763957283
C         2.97252282408087   -1.85707835984012    0.85001816979832
C         3.16233212600075   -0.69628917272995    1.58283413252543
C         1.45225625662047   -3.47973864056406    0.22173447849237
C         0.09227269512674   -3.77872554803153    0.27424249062192
C        -0.65825097188717   -3.47642707170519    1.46445302709999
C         2.08963157777889   -2.88185808021417    1.35384544715596
C        -0.02291246391183   -2.96516350319249    2.58913066957878
C         1.38417425146045   -2.66106102184791    2.53554049854751
C        -1.91007310027663   -1.45649610025231    3.00345159253443
C        -2.20682043059914   -0.05787335268673    3.13098226182601
C        -1.25410626508252    0.81597456009062    3.64031184194501
C        -0.66678778862376   -1.94951230726692    3.38174989112113
C         1.01936067359796    1.30646869332740    3.55800783231572
C         2.21589132793528    0.89075846657330    2.98203099710282
C         2.51144460717616   -0.50850582206681    2.85176791714384
C         1.60554610512219   -1.46443520924308    3.30101963454896
C         0.05615963639552    0.31770595357935    3.97834070456570
C         0.34325022762265   -1.03605593750265    3.85054350821062
H        -1.88234315720057    2.33709675574457   -4.69185699393413
H         0.36542474328248    3.00562318156024   -4.73001697074739
H         1.51565443767113    0.92116536039204   -5.23986231891666
H         2.33118158278643   -2.18655458959771   -3.90502627190040
H         0.16703872202815   -2.18564736043211   -4.79253036502409
H         1.05003515421427    4.73371559849809   -0.57737507063377
72
 energy: -144.417195454519 gnorm: 0.009965633063 xtb: 6.4.1 (a3dbbd7)
C        -1.31056469624215    1.86307802521929   -3.89093321012268
C         0.18986035777917    2.23043106483248   -3.98237393291213
C         0.95148324901633    0.90476620232670   -4.29951637168825
C        -1.30381007779052    0.36219856855370   -3.94020585097408
C        -0.09507274481298   -0.15911285890421   -4.20354590493584
C        -2.20771390009314   -0.18477712838826   -2.97637924820815
C        -1.95615946165735    2.07739129608468   -2.55429783260322
C        -2.62577728317811    0.89459172018465   -2.15372719655391
C        -1.44317029085847    2.94383998253655   -1.57692376046068
C         0.72163219179550    2.66294636720765   -2.64899696316857
C        -0.03826001320043    3.25837390785869   -1.65982193689222
C         1.83866321241120    0.69791083017845   -3.09151101476547
C         1.83644745727681    1.86164114004006   -2.29193464250825
C         2.16243126558786   -0.52174477197964   -2.54506908981003
C         0.20697575370626   -1.57045051134729   -3.88012508357903
C         1.59661899884995   -1.78655687295255   -3.18889055306487
C        -1.94389630147695   -1.44731734187884   -2.40106384744273
C        -0.79980660912070   -2.11662298248564   -2.87267825504745
C        -2.46265366796932   -1.72973640547861   -1.07643165582124
C        -3.05347439568450    0.67423777928100   -0.82134910294767
C        -3.06343320670993   -0.66547316287614   -0.29646872327166
C        -2.05744840051864    2.87450611998362   -0.30402966173327
C        -2.90514355033756    1.78029838757397    0.03900855563715
C        -1.38863854989082    3.27999987350115    0.90689029809422
C         0.71434968117039    3.70677986294225   -0.42726135485073
C        -0.05138575226798    3.59785407136754    0.88072114622626
C         2.38494921524826    1.84872880785972   -0.98689038224106
C         1.91426441416387    2.82078947966135   -0.10730991186274
C         2.81280071958240   -0.57570550040234   -1.26208501567744
C         2.97549541624401    0.63563868552918   -0.49494308257478
C         2.87711926262733   -1.80690491712808   -0.57004099523615
C         1.26793225241188   -2.78896145517656   -2.11753504998053
C        -0.13384406759095   -3.02577628587415   -2.04067899223187
C         2.00745066310871   -2.89616232337570   -0.97076605232977
C        -1.91947164161205   -2.83134892614939   -0.39347396085918
C        -0.72426437371782   -3.46666037127276   -0.85349294575603
C        -1.91333239243361   -2.91673768808964    1.03963192376312
C        -3.12179925300667   -0.80709825140525    1.10917937050020
C        -2.51474454534062   -1.91833363876075    1.77853709572759
C        -2.86429352566576    1.59871443894334    1.46034774833493
C        -1.91888704911809    2.52328856439864    2.00949319360196
C        -2.99142850812005    0.32425135783702    1.98236340412261
C        -1.09867865119727    2.12702962276742    3.06307394127310
C         0.80205562270730    3.11884286041878    1.90876984102551
C         2.01267557477174    2.64742230097139    1.28264479326495
C         0.29825642942252    2.42948697616518    3.01499450745907
C         3.20051296931989    0.55501368650350    0.89477251410873
C         2.69540362811668    1.54556671985566    1.79102173446343
C         2.97019800315731   -1.85977893871685    0.85048120778573
C         3.15904350426286   -0.69866128067373    1.58249789219594
C         1.45129240077771   -3.48409037839361    0.22271706068650
C         0.09125341615717   -3.78350038896049    0.27495028850572
C        -0.65933339584913   -3.48085198238984    1.46531587816800
C         2.08857992638466   -2.88621805087587    1.35496768149241
C        -0.02421307597096   -2.97018155658169    2.59030997415304
C         1.38351340325419   -2.66603119853882    2.53702119511057
C        -1.91027219481490   -1.45943964042297    3.00353200977436
C        -2.20570552259627   -0.06014490690292    3.12973340790500
C        -1.25306691047843    0.81392718290704    3.63872528056492
C        -0.66775431060512   -1.95367412310627    3.38285999376212
C         1.01936800263303    1.30313655475296    3.55626320929653
C         2.21407656956023    0.88780795598457    2.98076883037853
C         2.50968356234256   -0.51204464891215    2.85121233237405
C         1.60493818206446   -1.46934738248046    3.30238671764755
C         0.05653762703217    0.31446071850584    3.97734445993722
C         0.34279391184665   -1.04027555327257    3.85152664633939
H        -1.88660614399847    2.33305522956836   -4.69166569805870
H         0.36023267564855    3.00405670097833   -4.73259089323746
H         1.51605863956157    0.92150198999900   -5.23453115321217
H         2.33334137181060   -2.18192509608717   -3.89887961503330
H         0.16760360890292   -2.18665054238843   -4.79010321198730
H         1.04972694169671    4.74578521985740   -0.58222133544696
72
 energy: -144.417316695392 gnorm: 0.003102207594 xtb: 6.4.1 (a3dbbd7)
C        -1.31110150284500    1.86266973295731   -3.89009392308251
C         0.18869865325417    2.23008746223780   -3.98172971347414
C         0.95082059821126    0.90474088460062   -4.29686363402140
C        -1.30560466769712    0.36149141650522   -3.94231830343834
C        -0.09528271471113   -0.15926424796916   -4.20330933016645
C        -2.20641477097493   -0.18572281557517   -2.97643045555826
C        -1.95344344182713    2.07546374946576   -2.55240629213441
C        -2.62384315451897    0.89376183971015   -2.15263564421729
C        -1.43888673820530    2.94446956207494   -1.57634618419057
C         0.72264961166800    2.66701469590245   -2.64853201104879
C        -0.03471914347716    3.26350872408645   -1.65699582278835
C         1.83676632321921    0.69894350311663   -3.08826445627581
C         1.83864990241758    1.86397079488747   -2.29388419116367
C         2.16031983037779   -0.52144017640519   -2.54221427016066
C         0.20654172317311   -1.57025819806115   -3.87849737811764
C         1.59500868531882   -1.78605003456888   -3.18783748587967
C        -1.94508252919963   -1.44911707990259   -2.40137041683640
C        -0.79997437729385   -2.11698151658427   -2.87159142756722
C        -2.46373455211719   -1.73170792607675   -1.07635059844901
C        -3.05203433740404    0.67243644847119   -0.82108907495918
C        -3.06359350459346   -0.66717651308617   -0.29621957764212
C        -2.05633694083881    2.87407057072501   -0.30603143637447
C        -2.90220183743460    1.77922281809069    0.03764463950490
C        -1.38434576693455    3.28094836631272    0.90447516951142
C         0.71775491519315    3.71667131416990   -0.42665801445954
C        -0.04848747649993    3.60513863293601    0.87713475646762
C         2.38397265076553    1.85412252020757   -0.98704658760747
C         1.91452250861311    2.82888241826343   -0.10950774163405
C         2.80983635012471   -0.57478650029849   -1.26144182402538
C         2.97075126592977    0.63756803166376   -0.49469069541745
C         2.87673693687063   -1.80755901368520   -0.56966764078981
C         1.26719288575508   -2.78910553019491   -2.11700401654875
C        -0.13409215661975   -3.02700153246047   -2.04004356418616
C         2.00708616642650   -2.89616177537113   -0.97016141008300
C        -1.92031805809511   -2.83310538136216   -0.39329266482504
C        -0.72490611798841   -3.46872695589561   -0.85324568772644
C        -1.91390905361532   -2.91836007349288    1.03982956573798
C        -3.12170330535086   -0.80844082202570    1.10914496431773
C        -2.51505841046028   -1.91986134563843    1.77882321363647
C        -2.86025034585664    1.59721929676267    1.45854879760183
C        -1.91450181897046    2.52162215349642    2.00602270579059
C        -2.98996737809903    0.32340922305418    1.98147307227615
C        -1.09764212744935    2.12556639107282    3.06156374274368
C         0.80165199360462    3.11958974916800    1.90768575669640
C         2.01105680726708    2.64738547914003    1.28068711471598
C         0.29884013484738    2.42825185889481    3.01189198555711
C         3.19603664652577    0.55499905107303    0.89380451184710
C         2.69193475429871    1.54516133369080    1.78942609301812
C         2.96917234328415   -1.86087480513082    0.85047236877428
C         3.15710867820909   -0.69981919169842    1.58238883546678
C         1.45108339005269   -3.48586495705758    0.22311376493307
C         0.09090842040716   -3.78531155280672    0.27504178038400
C        -0.65951202611694   -3.48222675774205    1.46566985495629
C         2.08833345727530   -2.88822901800795    1.35553618313624
C        -0.02470312540175   -2.97203818140567    2.59081344703733
C         1.38361642257356   -2.66779075470867    2.53781986425636
C        -1.91051177168702   -1.46087055329678    3.00385934627689
C        -2.20537360548919   -0.06138014679168    3.12917308336725
C        -1.25289622523272    0.81289930244716    3.63823327080899
C        -0.66816464940666   -1.95525876608240    3.38364731928161
C         1.01930018035801    1.30125192211149    3.55538623346645
C         2.21272583161250    0.88649568303359    2.98016344350128
C         2.50911381664275   -0.51345617512468    2.85057528891146
C         1.60494307273605   -1.47152465607578    3.30352756681452
C         0.05650787245232    0.31321813667377    3.97723631313337
C         0.34273528727990   -1.04198583155018    3.85242843324850
H        -1.88804311908455    2.33365209663857   -4.68951050154269
H         0.35843759123159    3.00257861341239   -4.73348439918378
H         1.51796579274384    0.92214583437476   -5.23029269152129
H         2.33448926513617   -2.17936782730207   -3.89617404673498
H         0.16597771580580   -2.18657773937125   -4.78848737824179
H         1.04890788831964    4.75382793188492   -0.58820135051089
72
 energy: -144.417326907792 gnorm: 0.001222726749 xtb: 6.4.1 (a3dbbd7)
C        -1.31100728962755    1.86284958991615   -3.89001781524770
C         0.18869838326906    2.23008612818708   -3.98128509634377
C         0.95056800397094    0.90477324183879   -4.29658904219415
C        -1.30610088800371    0.36153140316082   -3.94322141488121
C        -0.09529348172964   -0.15913217515278   -4.20337132263246
C        -2.20602473756740   -0.18570085103630   -2.97671196558175
C        -1.95299869299796    2.07491063694107   -2.55214652052294
C        -2.62362858403215    0.89370526632415   -2.15255917749178
C        -1.43826337611605    2.94387067577635   -1.57605959798965
C         0.72278747947835    2.66681265737181   -2.64795413238036
C        -0.03403555793317    3.26243941700503   -1.65593017718681
C         1.83678806155802    0.69889394151855   -3.08810465196272
C         1.83939110502268    1.86353073374848   -2.29428397518900
C         2.16077486420974   -0.52172575624861   -2.54231913059274
C         0.20657961823309   -1.57005447183628   -3.87816807576217
C         1.59485970264344   -1.78627300713766   -3.18816243824626
C        -1.94521239510809   -1.44909744337380   -2.40145663107809
C        -0.79984043536059   -2.11665654473393   -2.87123112227841
C        -2.46392085357457   -1.73165940675547   -1.07634110483500
C        -3.05228538965780    0.67221888012510   -0.82112799016459
C        -3.06391807535596   -0.66727493206835   -0.29613239179724
C        -2.05689204108906    2.87361958141405   -0.30637902557066
C        -2.90262472314900    1.77908571389168    0.03751005609505
C        -1.38389906661000    3.27982722662036    0.90424983026119
C         0.71807631408724    3.71672347211099   -0.42607023807696
C        -0.04846651547619    3.60438848374618    0.87629112168085
C         2.38374547181110    1.85401787981987   -0.98682052238182
C         1.91374003875055    2.82847970034138   -0.10963252163336
C         2.81021434973789   -0.57472302174386   -1.26196112477133
C         2.97106322129510    0.63756572590976   -0.49477514428369
C         2.87725110400982   -1.80765114506867   -0.56978361270281
C         1.26726098594053   -2.78914640124041   -2.11713250284642
C        -0.13397516515135   -3.02692798413846   -2.03989265751483
C         2.00729871619059   -2.89584863772301   -0.97026477197184
C        -1.92040950580563   -2.83294272782335   -0.39330831524573
C        -0.72494992239537   -3.46868811184854   -0.85321438718992
C        -1.91395699285724   -2.91807110258484    1.03979387647651
C        -3.12199720177867   -0.80835548579169    1.10919715995856
C        -2.51519353430363   -1.91971501092494    1.77890836843947
C        -2.86028948258176    1.59717160032929    1.45848102814784
C        -1.91436088222901    2.52132980565095    2.00583100736516
C        -2.99031064080999    0.32353419050898    1.98160468289562
C        -1.09792211622686    2.12559428965192    3.06181596157848
C         0.80136228508040    3.11894111802575    1.90775526912887
C         2.01067196548949    2.64669433903296    1.28054171406631
C         0.29875305602411    2.42826204262889    3.01171438141709
C         3.19596916863958    0.55504833400048    0.89359868856776
C         2.69182416170591    1.54516258189867    1.78929472560438
C         2.96935241076992   -1.86073083686621    0.85030820859236
C         3.15721453030139   -0.69982074330285    1.58250293808727
C         1.45114851808330   -3.48554147436409    0.22305802314279
C         0.09096545625449   -3.78496753355695    0.27496701455761
C        -0.65938986638919   -3.48174498699052    1.46563088511841
C         2.08839400353093   -2.88799546074913    1.35547750535550
C        -0.02469605833745   -2.97160454739892    2.59069951745679
C         1.38373703259027   -2.66728005281422    2.53773528820869
C        -1.91058602151866   -1.46063941469180    3.00389456609271
C        -2.20551654386585   -0.06121390193507    3.12917338199107
C        -1.25305466963881    0.81305169474944    3.63846021509304
C        -0.66814257801337   -1.95483079679124    3.38360200479998
C         1.01934500185532    1.30122269675776    3.55547007508900
C         2.21267648290210    0.88660741052224    2.98020464710011
C         2.50935958940838   -0.51328576600174    2.85037896379655
C         1.60502775660665   -1.47129302653178    3.30365770746624
C         0.05640971655244    0.31350702737464    3.97746300251511
C         0.34280020295856   -1.04168281234836    3.85251029949217
H        -1.88794787304312    2.33496482318583   -4.68877799893593
H         0.35888032231227    3.00273179908481   -4.73276878391112
H         1.51807469424129    0.92258726230673   -5.22986882540904
H         2.33428409229152   -2.17945083609876   -3.89663398621750
H         0.16511299083140   -2.18645155677627   -4.78815139746390
H         1.04816591818264    4.75348978347934   -0.58985188056004
72
 energy: -144.417328753733 gnorm: 0.000491729860 xtb: 6.4.1 (a3dbbd7)
C        -1.31096559035609    1.86314068543347   -3.89009327230965
C         0.18877248719193    2.22997300197180   -3.98100596908288
C         0.95055225154091    0.90474859956289   -4.29668215854195
C        -1.30639716833727    0.36173008227750   -3.94383525647789
C        -0.09518191622376   -0.15885060664382   -4.20319664843687
C        -2.20575006274404   -0.18551114946699   -2.97691506357913
C        -1.95300613417361    2.07468899879741   -2.55210929653112
C        -2.62370157829273    0.89381480877851   -2.15255047441752