72
 energy: -144.372560571032 gnorm: 0.152378293551 xtb: 6.4.1 (a3dbbd7)
C        -1.28969346841879    1.85881667588993   -3.89122839876583
C         0.20499154851788    2.23537721224324   -4.04448487654771
C         0.95553014186693    0.88702790706473   -4.29613562466671
C        -1.33690742867954    0.35870440765579   -3.96567758120160
C        -0.09041560779374   -0.18218816425010   -4.19534043109299
C        -2.20138117445694   -0.18644171655240   -3.00522825402877
C        -1.92781375563299    2.05831473745602   -2.54982503684593
C        -2.63355677094084    0.90504130194722   -2.16817425698721
C        -1.42383100430141    2.92413914843208   -1.56844391213055
C         0.85940800099237    2.87238358135073   -2.79179213151413
C        -0.02986532509025    3.24547474602075   -1.62327700708407
C         1.84421716437256    0.70884963488147   -3.09094467253141
C         1.83621863666151    1.81685527288575   -2.30871821347162
C         2.23598641759218   -0.56207393551241   -2.56147199159166
C         0.19204190447933   -1.41124262509952   -3.62944658386094
C         1.47103718645954   -1.66663919636974   -2.98156615615866
C        -1.97578835463420   -1.46128683263155   -2.44019328032618
C        -0.80669375115014   -2.12119724847481   -2.89867817966150
C        -2.47586128819567   -1.74075469480463   -1.10547504454791
C        -3.06555839556712    0.67118241530255   -0.84427209919544
C        -3.06963578786692   -0.67927944471835   -0.32190031452581
C        -2.06581984123522    2.84915065553253   -0.31193269134034
C        -2.92281563981664    1.76691284423814    0.02227572964957
C        -1.41627675428786    3.25901916782479    0.90103390674519
C         0.62561418086635    3.43867636612781   -0.41649552385651
C        -0.05876414657997    3.55522896751585    0.83171592490704
C         2.40832597204375    1.83134560879169   -1.00949711540124
C         1.91455459253917    2.80443254070657   -0.13370886288433
C         2.88374236996112   -0.59632193717379   -1.27172031785914
C         3.01704036833164    0.62566818721936   -0.50751345757118
C         2.89641032927707   -1.82162889278772   -0.56732359417950
C         1.28136570386285   -2.77434521014717   -2.11192011819258
C        -0.12967721907399   -3.06285922300980   -2.05991213058863
C         2.04255650027295   -2.90050755657690   -0.96165742131058
C        -1.91435450613505   -2.83912659053254   -0.41833432307811
C        -0.70488128932877   -3.47131399742308   -0.87890358959595
C        -1.89420244063812   -2.91446057607782    1.00894392225202
C        -3.10598757235951   -0.80692920974818    1.08704134359918
C        -2.49408368790936   -1.91898178521373    1.75357646904850
C        -2.85584664764691    1.59492456881566    1.45059336239963
C        -1.95662295293086    2.53474466473002    1.99627832657893
C        -2.99901097928711    0.31432684256830    1.96927026906349
C        -1.18625572363378    2.27337725659368    3.25496543836618
C         0.80347227621686    3.08265040838141    1.89440204257230
C         2.01694695080632    2.62964447424351    1.26707586608340
C         0.30498989441659    2.42535751032595    2.99379757836359
C         3.22792324578401    0.54385291002276    0.88394393065169
C         2.69980858498136    1.53025060509931    1.77410404465519
C         3.00065372604544   -1.87467318970762    0.86299901331745
C         3.18510961178540   -0.71245331186806    1.58035682367694
C         1.48087852513245   -3.50033535092839    0.22175760723956
C         0.11888759841828   -3.78531740472104    0.26289788095283
C        -0.63714833849580   -3.47969761775416    1.44231907707608
C         2.11237184195160   -2.89778485910173    1.36206619119613
C        -0.01065547557051   -2.97830786484485    2.57527788502469
C         1.39841080335254   -2.67569676380148    2.53224581498613
C        -1.89376648951186   -1.46193626093732    2.97798370471101
C        -2.19335688352918   -0.06534193948638    3.11413973332052
C        -1.26233216091994    0.80534247749697    3.64268773944624
C        -0.65593902845964   -1.96093539983541    3.36655052379279
C         1.00553397082662    1.29923106535084    3.51705510625219
C         2.21425588019591    0.88215703656420    2.95700521434340
C         2.51588925226058   -0.51805739000044    2.84141340289240
C         1.61158523093993   -1.46927021422565    3.29332642286740
C         0.04242639627796    0.31341177133095    3.94130022676223
C         0.34474997283318   -1.04587767511283    3.83309112127000
H        -1.88956319624205    2.35295294625503   -4.66177501359244
H         0.32230938927837    2.90594239156067   -4.89642658834406
H         1.52260235276527    0.87355057142923   -5.23002770679043
H         1.40757061506161    3.77706089822566   -3.08609741689544
H        -1.51870893107526    2.92206921598221    4.07665837312599
H         3.97705192110667   -2.36621565775713    0.98560638171340
72
 energy: -144.397725595920 gnorm: 0.079037368468 xtb: 6.4.1 (a3dbbd7)
C        -1.28972704510206    1.85898692068156   -3.89147899322623
C         0.20524052685585    2.23512856318521   -4.04364743709839
C         0.95530156926449    0.88694201334286   -4.29689586969192
C        -1.33726096160659    0.35871732790753   -3.96480363543771
C        -0.09141937121716   -0.18208452713937   -4.19434597483008
C        -2.20315102254821   -0.18688754578666   -3.00469233052110
C        -1.92809566569781    2.05888048477906   -2.55022722376914
C        -2.63333484263764    0.90472427577821   -2.16700446873744
C        -1.42512392345966    2.92413474758870   -1.56864787673076
C         0.85953967714751    2.87024747215616   -2.78944976245342
C        -0.02954697010455    3.24140128310754   -1.62073920268917
C         1.84380738403289    0.70774824780980   -3.09220418908600
C         1.83735720612699    1.81494161414619   -2.30689142144146
C         2.23355273746033   -0.56297314740303   -2.56672433743225
C         0.18913746855626   -1.41274840100697   -3.63066582044343
C         1.46850175841007   -1.67120340154377   -2.98850274283356
C        -1.97835139062421   -1.46145047189167   -2.44050023622712
C        -0.81066301372348   -2.12323790155514   -2.90100005772893
C        -2.47717375831132   -1.74080635037515   -1.10492256394903
C        -3.06349170626971    0.67213211846409   -0.84270629096326
C        -3.06873230771301   -0.67984966167722   -0.31966773715270
C        -2.06582968178802    2.84945433814064   -0.31193651247045
C        -2.92209436419803    1.76737941212245    0.02367724505236
C        -1.41910264857615    3.26215435158347    0.90244494644462
C         0.62311878985657    3.44013282389135   -0.41400789300908
C        -0.06393650776064    3.56360924994576    0.83293985995557
C         2.40758261478362    1.82889262920782   -1.00759112263908
C         1.91367218978104    2.80928019416736   -0.13022193084089
C         2.86820430631530   -0.59694647201790   -1.27396843065850
C         3.00781223376899    0.62617640247069   -0.50352143476550
C         2.88555299510544   -1.82255203650460   -0.58148542130350
C         1.27697426721059   -2.77492948580991   -2.12070233426560
C        -0.13481180725665   -3.06564186687219   -2.06468233816259
C         2.03510440526147   -2.89536983958739   -0.96446963500670
C        -1.91867463231948   -2.84112463117243   -0.41932265222405
C        -0.70879375775828   -3.47325510246959   -0.88248696199134
C        -1.90004443838810   -2.91855938666417    1.00602572368585
C        -3.10455415884288   -0.80726665115567    1.08772252496150
C        -2.49697988526489   -1.92131684556135    1.75255494663128
C        -2.85397854528446    1.59765049160850    1.45297910748670
C        -1.96083282683476    2.53920947537687    1.99757867621042
C        -2.99925765227772    0.31556256064686    1.97344017875865
C        -1.19094684418104    2.28130490334435    3.25962198566598
C         0.79731004293363    3.09009376907782    1.89391413510884
C         2.01249967288202    2.63971036892722    1.26760499279149
C         0.29911350684062    2.43277262341603    2.99433666712711
C         3.21535196318390    0.54815089090202    0.89343978443941
C         2.69566178047104    1.54248816649450    1.78227751259231
C         3.10356090889715   -1.92901534818781    0.87532201127460
C         3.20214504352318   -0.69288475306396    1.60174819896285
C         1.47221678757324   -3.49695081494301    0.21969593425638
C         0.11001091249989   -3.79019213958829    0.26000941765291
C        -0.64455134145452   -3.48606803623558    1.43879957958371
C         2.09554647032858   -2.90438479960645    1.35983003504313
C        -0.01870639959519   -2.98224819458117    2.57221479414030
C         1.38450541510790   -2.67255999722584    2.52300568448706
C        -1.89377442333691   -1.46136234059523    2.97353968086811
C        -2.19471126577421   -0.06262599790653    3.11051996702710
C        -1.26116570146108    0.81042558501364    3.64226580474478
C        -0.65780551191990   -1.95922746406662    3.36235039495411
C         1.00085980200840    1.30836888100361    3.51619877909353
C         2.21332490826890    0.89894455328168    2.96185144685905
C         2.51182752987580   -0.50568291055691    2.83710310858224
C         1.60291698350371   -1.46239629478203    3.28666216827853
C         0.03848292168900    0.31984541775813    3.93814414305912
C         0.34394666174707   -1.04479508325738    3.83081735317595
H        -1.88917403620961    2.35310971477198   -4.66255343984144
H         0.32281939082499    2.90631321228141   -4.89524595025549
H         1.52155673911353    0.87407439175081   -5.23141535200242
H         1.40660938174932    3.77612485841702   -3.08243510186798
H        -1.52308369600317    2.92842646264553    4.08250663507153
H         4.08755219368002   -2.43107363952685    0.98885774040680
72
 energy: -144.407016339614 gnorm: 0.018857664531 xtb: 6.4.1 (a3dbbd7)
C        -1.29124606695496    1.85992445365337   -3.89064701099609
C         0.20411119218178    2.23498201805101   -4.04161342910371
C         0.95336629512763    0.88641015370273   -4.29512788711519
C        -1.33941122636808    0.35947207984455   -3.96321825972962
C        -0.09422149957342   -0.18217140807847   -4.19295740898709
C        -2.20664727178725   -0.18658821080812   -3.00410156271926
C        -1.92973465214904    2.06060895634293   -2.54990526460612
C        -2.63501521092296    0.90545628030027   -2.16560484501134
C        -1.42799672636950    2.92489702427488   -1.56810527209854
C         0.85812617560115    2.86785724704856   -2.78585742731087
C        -0.02973163554160    3.23859218798845   -1.61753305555423
C         1.84023454068850    0.70520400234265   -3.08924350290293
C         1.83678988977433    1.81245564508915   -2.30300323223955
C         2.22674998916141   -0.56348526268705   -2.56201287111683
C         0.18448943641957   -1.41389363905421   -3.63125925036754
C         1.46355739975587   -1.67430199267590   -2.98901068115977
C        -1.98348702320695   -1.46142720373567   -2.44211874909066
C        -0.81613199100623   -2.12499978670750   -2.90293537756622
C        -2.48151858923015   -1.74133450510920   -1.10629751080837
C        -3.06356149885794    0.67483613070663   -0.84183829001446
C        -3.06983327962484   -0.68057735318633   -0.31836286873976
C        -2.06753875990492    2.85106490123382   -0.31140016245693
C        -2.92456071289561    1.76906122344697    0.02469951653781
C        -1.42274850881864    3.26836113659232    0.90307929967141
C         0.62128010029924    3.44139493572532   -0.41251681934985
C        -0.06830275329524    3.57175915129780    0.83479450635607
C         2.40749971706764    1.82469086629702   -1.00519808626302
C         1.91398553217138    2.81501745027387   -0.12794376516956
C         2.86165855304503   -0.60090683545791   -1.27008383276589
C         3.00746962316365    0.62813032869624   -0.50217759444090
C         2.88246646692401   -1.82148991193116   -0.58447584762694
C         1.27416774768965   -2.77175322156260   -2.12366849545582
C        -0.13953292022990   -3.06649951216741   -2.06736453892770
C         2.03149329742952   -2.88090781328555   -0.96036533498583
C        -1.92404642746148   -2.84205374587152   -0.42128068081112
C        -0.71087736720564   -3.47345727339477   -0.88544243877598
C        -1.90737853271007   -2.92246686675537    1.00175148638011
C        -3.10458982944366   -0.80892546646670    1.08534048984176
C        -2.50230579048427   -1.92212318445689    1.74970026069132
C        -2.85523479071302    1.60138682666592    1.45430560411191
C        -1.96490247903946    2.54338405596124    1.99638510029388
C        -2.99727298423093    0.31809888438110    1.97716552300153
C        -1.19449812967288    2.28659596611402    3.25921668274693
C         0.79322255538448    3.09932072517724    1.89384592265585
C         2.00694861672003    2.64467469066330    1.26470310720144
C         0.29542866924177    2.44171430637132    2.99606177941394
C         3.20153480773589    0.53881556499122    0.89789087423359
C         2.68673792178993    1.54390904796702    1.78339343324465
C         3.22342551959529   -1.99382553968240    0.89024099367536
C         3.19942153590735   -0.68773529258932    1.60958058570831
C         1.46807890865726   -3.48306167236955    0.22399783576413
C         0.10496949082022   -3.78855013161284    0.25837902315463
C        -0.65064418189589   -3.48761996976117    1.43345052871908
C         2.09029022173957   -2.90504043532445    1.35959447418303
C        -0.02233221548644   -2.97767532987031    2.56296571789843
C         1.37898188374368   -2.66759915949380    2.51097074154345
C        -1.89636967141190   -1.45946117737149    2.96889725488623
C        -2.20050915556609   -0.05926075638171    3.10823165825000
C        -1.26134665047007    0.81504657936570    3.64348330493781
C        -0.66089499631985   -1.95397116300341    3.35430972370724
C         0.99584694567877    1.31539167165501    3.51195533896565
C         2.20840895784817    0.90678350221631    2.95866083077655
C         2.50923079821451   -0.50398444209765    2.82495597187188
C         1.59676597319672   -1.45744850570651    3.28531943097863
C         0.03212464178626    0.32702510997157    3.93391374134566
C         0.34488253912180   -1.04212272257736    3.82483791162192
H        -1.88955669243871    2.35390286907081   -4.66270393433512
H         0.32320184199015    2.90749379553253   -4.89207395889534
H         1.51897905197328    0.87337826480394   -5.23006037494473
H         1.40467359568887    3.77468803359198   -3.07688962557776
H        -1.52982090567690    2.93207923124012    4.08114479746204
H         4.20259773476832   -2.49317655053793    0.99741227687462
72
 energy: -144.407484317931 gnorm: 0.010548111868 xtb: 6.4.1 (a3dbbd7)
C        -1.29234854725424    1.86057523134243   -3.88953836555807
C         0.20355334349653    2.23415950540280   -4.03883221847436
C         0.95210550245155    0.88521383417613   -4.29199684416838
C        -1.34139664133652    0.36018054223708   -3.96238057173912
C        -0.09622764698737   -0.18225699049097   -4.19196241047627
C        -2.20917875614405   -0.18571767438551   -3.00409136217137
C        -1.93200929408266    2.06185782716020   -2.54962587596413
C        -2.63782675576090    0.90673434334120   -2.16565596063254
C        -1.43079876642516    2.92610687068594   -1.56774576631071
C         0.85701213068845    2.86641424759606   -2.78298439976076
C        -0.03165997237723    3.23852431506604   -1.61628736404500
C         1.83850419867270    0.70279048284151   -3.08564890786151
C         1.83530439000667    1.81060906859824   -2.30036928288185
C         2.22604573431728   -0.56523290724273   -2.55737468552590
C         0.18265075637793   -1.41376288437664   -3.63064143625546
C         1.46201887443769   -1.67424631255743   -2.98627460040892
C        -1.98636216621396   -1.46101640762106   -2.44300498370401
C        -0.81811538349874   -2.12444215415246   -2.90274636501998
C        -2.48476803610719   -1.74095696619888   -1.10743824254650
C        -3.06643909689947    0.67695602367890   -0.84230453836676
C        -3.07242180850004   -0.67954584808932   -0.31913854004004
C        -2.07060632981619    2.85338692948475   -0.31131233163469
C        -2.92793752187583    1.77121120305832    0.02442596511122
C        -1.42519165629004    3.27159592241494    0.90272576252868
C         0.61986677945799    3.44111454764702   -0.41245887522437
C        -0.06976284618516    3.57302863857824    0.83531798717234
C         2.40671455428193    1.82232743464470   -1.00365595513055
C         1.91278660232772    2.81469445851666   -0.12803540258542
C         2.87050697875009   -0.60535973426214   -1.26846216081182
C         3.01011350923013    0.62686624222052   -0.50256970527321
C         2.89743339117002   -1.82726771464441   -0.58208868069655
C         1.27404979446747   -2.77036284127548   -2.12050510619828
C        -0.14038306754634   -3.06507361096831   -2.06647611308819
C         2.03537515593926   -2.87941470783989   -0.95881427451070
C        -1.92595112648383   -2.84119164243110   -0.42226956285552
C        -0.71085256164276   -3.47169851242986   -0.88547176332569
C        -1.90882315856579   -2.92171216212804    1.00031929633935
C        -3.10648416636849   -0.80835379206678    1.08365181014832
C        -2.50404718228038   -1.92045110766924    1.74783043331130
C        -2.85865277615903    1.60368033248249    1.45393270806618
C        -1.96692327421752    2.54537809715881    1.99554833261140
C        -2.99745186587434    0.32021115797394    1.97674508667941
C        -1.19654682298456    2.28841335848159    3.25799691561913
C         0.79234976965843    3.10087693843260    1.89358078397040
C         2.00534634794610    2.64280623558560    1.26357542515911
C         0.29423653493488    2.44341953121338    2.99600341792661
C         3.20376151221939    0.53295776059084    0.89662204913049
C         2.68462799679534    1.53981993119545    1.78030398028501
C         3.23550414444441   -2.00233814934262    0.89052362505205
C         3.19885857435635   -0.69517457301820    1.60529897806820
C         1.47197838151348   -3.48063743910346    0.22578130437453
C         0.10746223922807   -3.78438720208284    0.25754380576536
C        -0.64969214648015   -3.48400977005059    1.43082648175828
C         2.10325278885190   -2.90929153674080    1.36133865887343
C        -0.01895402015677   -2.97202848531092    2.55708418650074
C         1.38530897383708   -2.66832037066255    2.50945826035038
C        -1.89724437349639   -1.45769216026189    2.96712456618348
C        -2.20318031060062   -0.05785331338044    3.10754380339877
C        -1.26243251732258    0.81660888780436    3.64266143584588
C        -0.66033377816888   -1.95066315314719    3.34908432941291
C         0.99464434521476    1.31584621147734    3.50903028263903
C         2.20627913111493    0.90385685644400    2.95455160859500
C         2.51264916916612   -0.50810909079587    2.82214890669768
C         1.59813832224299   -1.45765259178876    3.28706555004488
C         0.03029009953273    0.32871062460864    3.93200345347523
C         0.34590392964947   -1.04012988299108    3.82147726973400
H        -1.88932748649311    2.35491853014422   -4.66238921373730
H         0.32429118385346    2.90728044939449   -4.88843573910588
H         1.51826943233729    0.87224646187424   -5.22644613247041
H         1.40434161538918    3.77310352904254   -3.07255698843758
H        -1.53490968684554    2.93426569445895    4.07889867435105
H         4.21310240022025   -2.49842731067107    1.00020207250417
72
 energy: -144.407632530918 gnorm: 0.002978248922 xtb: 6.4.1 (a3dbbd7)
C        -1.29242548408497    1.86078308003342   -3.88919503346440
C         0.20374328174606    2.23366338740781   -4.03808967793378
C         0.95153860188394    0.88429404986102   -4.29071186757649
C        -1.34247900144783    0.36046280815200   -3.96229645272541
C        -0.09735512421789   -0.18241373961263   -4.19211823115828
C        -2.21022368998844   -0.18547975075472   -3.00436358618763
C        -1.93265678312722    2.06213019343835   -2.54963045537706
C        -2.63909607678152    0.90711150327833   -2.16573091725790
C        -1.43219108136808    2.92631428481748   -1.56758688123636
C         0.85630014485082    2.86593950382235   -2.78214208317574
C        -0.03236585050900    3.23820501338422   -1.61561804178764
C         1.83764255071843    0.70171557336216   -3.08395117857693
C         1.83463917166994    1.81038023156935   -2.29959591323866
C         2.22530833549426   -0.56593621728209   -2.55489087847344
C         0.18144372146113   -1.41375691512721   -3.63120252514466
C         1.46092145776434   -1.67360279339682   -2.98477991349760
C        -1.98782382647427   -1.46107093549679   -2.44383665141613
C        -0.81913216338547   -2.12408135988756   -2.90332030764240
C        -2.48646145855987   -1.74100677566903   -1.10817951650054
C        -3.06776832263831    0.67806450256439   -0.84269270775408
C        -3.07352482268359   -0.67929158193107   -0.31931415469946
C        -2.07175760893649    2.85413894035631   -0.31113098690765
C        -2.92941690304057    1.77194302851966    0.02446602572727
C        -1.42577637042487    3.27289157301427    0.90260471871128
C         0.61948502687327    3.44090129304724   -0.41276815354930
C        -0.06971114775651    3.57296159685918    0.83602984412721
C         2.40716814523067    1.82223792311212   -1.00372421592686
C         1.91272909225759    2.81525224803501   -0.12850144691166
C         2.87389844098131   -0.60709448640337   -1.26713309312336
C         3.01124757402470    0.62776482028665   -0.50381780409137
C         2.90578440671466   -1.82920525539524   -0.57920039237452
C         1.27331670917769   -2.76844029769270   -2.11786149054645
C        -0.14111370976804   -3.06377517784793   -2.06580503726199
C         2.03610745103147   -2.87615382409498   -0.95726362290954
C        -1.92745626671765   -2.84084224698145   -0.42237607659405
C        -0.71084937475014   -3.47030073749069   -0.88537656886352
C        -1.91007369789150   -2.92160731802275    0.99981215404124
C        -3.10723318552235   -0.80876157034726    1.08269568682195
C        -2.50504724898194   -1.91949732316219    1.74705731971407
C        -2.86034698209535    1.60440211929535    1.45397751473961
C        -1.96634909527395    2.54516918724757    1.99498376709387
C        -2.99618704218962    0.32126114749244    1.97726748649050
C        -1.19676661787926    2.28818370409574    3.25764051200040
C         0.79247651012356    3.10132600170993    1.89357827915262
C         2.00474662354537    2.64149114335579    1.26257268003085
C         0.29434991522869    2.44366621960820    2.99651441228687
C         3.20413638720821    0.52883797348098    0.89490004192374
C         2.68234566249947    1.53652658689220    1.77792238363942
C         3.24206601560879   -2.00681372613018    0.89103237580750
C         3.19398205405881   -0.70061887620493    1.60028824965239
C         1.47308278608150   -3.47696325368962    0.22739058070418
C         0.10874121296517   -3.78092396494422    0.25711970538592
C        -0.64945499037723   -3.48199090930698    1.42970433779576
C         2.11113671792329   -2.90954683826968    1.36250374713856
C        -0.01691699926395   -2.96840227870118    2.55329821823581
C         1.38836688216923   -2.66785354422827    2.50833500204421
C        -1.89808459513143   -1.45735998505294    2.96728532879519
C        -2.20512262907166   -0.05778804674204    3.10822329808823
C        -1.26262258732554    0.81663056414300    3.64350581330119
C        -0.66000605133385   -1.94878283959008    3.34599373833638
C         0.99423565956081    1.31564307570140    3.50798598926985
C         2.20415247143389    0.90127003640613    2.95125005904706
C         2.51429806606756   -0.51177014083697    2.81976397035675
C         1.59811223934805   -1.45784194174779    3.29030301015538
C         0.02905479381878    0.32919988554436    3.93231879496050
C         0.34652754367496   -1.03949540961259    3.82112930269773
H        -1.88847897763878    2.35538741395728   -4.66257897207686
H         0.32523703459617    2.90654080984128   -4.88773714302137
H         1.51857582822344    0.87129377578604   -5.22459436443776
H         1.40394147347319    3.77270054485426   -3.07077727783908
H        -1.53780991265770    2.93476642665493    4.07712376780972
H         4.21864273094384   -2.49901285245761    1.00355198586290
72
 energy: -144.407643750489 gnorm: 0.001388391615 xtb: 6.4.1 (a3dbbd7)
C        -1.29250092518735    1.86076645566107   -3.88927837415061
C         0.20366752751982    2.23371197088508   -4.03822425696098
C         0.95161248909158    0.88438309409664   -4.29075603363916
C        -1.34240240654848    0.36043275285041   -3.96236201897200
C        -0.09720775097444   -0.18237988820049   -4.19227405526299
C        -2.20996571434712   -0.18558523132334   -3.00437188940146
C        -1.93242482543335    2.06203203828297   -2.54963862052453
C        -2.63892050391674    0.90698065013063   -2.16569333255258
C        -1.43202276349303    2.92618923146490   -1.56763876094201
C         0.85651782812232    2.86618043821644   -2.78256587680008
C        -0.03205406557130    3.23818752215208   -1.61571562525159
C         1.83782464503360    0.70187158210270   -3.08402627921386
C         1.83504259885333    1.81081566241195   -2.30006969926395
C         2.22528954586228   -0.56590767711929   -2.55502441138717
C         0.18153773129356   -1.41385648003284   -3.63156444387787
C         1.46099679323326   -1.67344984079208   -2.98492218579064
C        -1.98755188063214   -1.46118041881601   -2.44383966937125
C        -0.81894071097081   -2.12412333163508   -2.90356150422977
C        -2.48617518206009   -1.74109555970587   -1.10810954065876
C        -3.06755584138727    0.67803789081420   -0.84272485217370
C        -3.07316026151322   -0.67940853212917   -0.31913595869394
C        -2.07147516986110    2.85391802702236   -0.31115896827869
C        -2.92918870502888    1.77178592256491    0.02449278555426
C        -1.42539132579151    3.27259230133525    0.90251311153650
C         0.61984934888684    3.44090740718981   -0.41298717717318
C        -0.06929346851531    3.57249626556345    0.83611371440689
C         2.40773759350654    1.82276048492714   -1.00419242855065
C         1.91320345200039    2.81560366295654   -0.12870616228545
C         2.87333438019359   -0.60683739020473   -1.26712060502933
C         3.01104548428493    0.62834093560217   -0.50427841770559
C         2.90523778043088   -1.82854430684884   -0.57863411885866
C         1.27322144890172   -2.76825412189236   -2.11770550102405
C        -0.14107537245112   -3.06369039958222   -2.06574716592163
C         2.03545584808213   -2.87534932045696   -0.95712252286162
C        -1.92749206696185   -2.84096183446961   -0.42214208648092
C        -0.71079141328858   -3.47031935628571   -0.88535150066367
C        -1.91021577734189   -2.92191936351387    0.99996469578940
C        -3.10686031611238   -0.80910945348650    1.08274173057021
C        -2.50493906773883   -1.91961608849945    1.74720548446729
C        -2.86023278174935    1.60416568568586    1.45401720431435
C        -1.96569545211279    2.54466723450538    1.99480100932846
C        -2.99548745802539    0.32121814041418    1.97764634562066
C        -1.19635555265518    2.28778349966342    3.25755498311240
C         0.79278017983581    3.10095622430439    1.89345648899396
C         2.00513684701875    2.64154979168333    1.26242180715135
C         0.29471780889472    2.44317650255301    2.99653245056442
C         3.20342673311079    0.52866808546971    0.89454133007728
C         2.68213733990924    1.53636681514879    1.77789646326407
C         3.24172248884448   -2.00641141209473    0.89128119978804
C         3.19113877975461   -0.70104559901287    1.59890564813590
C         1.47246132114840   -3.47618159317307    0.22751838958699
C         0.10863596170502   -3.78086836013933    0.25712567720128
C        -0.64967721184731   -3.48235350216335    1.42995190748380
C         2.11070840114241   -2.90830636664611    1.36238774453157
C        -0.01703521720274   -2.96856842027706    2.55332438245804
C         1.38781273563835   -2.66764503150273    2.50821088240514
C        -1.89821596967559   -1.45775565983274    2.96790209854713
C        -2.20517758150995   -0.05807714411169    3.10858160791738
C        -1.26223358234322    0.81635517776730    3.64387189644408
C        -0.66011049932713   -1.94906259157773    3.34625726226632
C         0.99449232770896    1.31544709708506    3.50831470806499
C         2.20397740619965    0.90106670476373    2.95099637589541
C         2.51383172128249   -0.51219875622852    2.81919780983174
C         1.59755792172611   -1.45791495098901    3.29113250463611
C         0.02902712045775    0.32896140005084    3.93296409419662
C         0.34649215835080   -1.03992514982506    3.82206278438600
H        -1.88871486487749    2.35537942543857   -4.66254450877277
H         0.32491816694832    2.90640871124368   -4.88804454457892
H         1.51888260100450    0.87143304467570   -5.22452553168219
H         1.40378954120949    3.77314699139409   -3.07135758397743
H        -1.53772676608498    2.93462190850653    4.07667179977005
H         4.21844343648871   -2.49749434713923    1.00479431535174
72
 energy: -144.407646331466 gnorm: 0.000637604802 xtb: 6.4.1 (a3dbbd7)
C        -1.29236571837767    1.86072236544477   -3.88930613403844
C         0.20374948449697    2.23380274502344   -4.03859526098798
C         0.95167282226945    0.88443777332810   -4.29101794875676
C        -1.34220725563444    0.36036806228387   -3.96241149958069
C        -0.09700081893193   -0.18241234573646   -4.19243644554126
C        -2.20960154735333   -0.18566114333061   -3.00428328894932
C        -1.93204330469976    2.06194825255070   -2.54959750736823
C        -2.63858917462890    0.90686342691471   -2.16559023711708