74
 energy: -145.446634757671 gnorm: 0.157888029585 xtb: 6.4.1 (a3dbbd7)
C        -1.33889553088034    1.88409517284110   -3.95312703341324
C         0.18132470629385    2.20834026482916   -3.97820413064865
C         0.96382984933135    0.90449301714025   -4.36317165913643
C        -1.32030733026422    0.39281808209585   -3.91282349449094
C        -0.07404256601495   -0.14606615361102   -4.14645897954501
C        -2.18031498987178   -0.15028861644767   -2.94554918286218
C        -2.18780609523762    2.24617605460244   -2.70082607169158
C        -2.69366537406961    0.90127792482089   -2.17520068284909
C        -1.46089195510976    2.92464812359714   -1.56507655085828
C         0.70650192426104    2.51292442370433   -2.61880176458419
C        -0.05397009633190    3.13818063773699   -1.59659220847101
C         2.14254574383815    0.74816067420767   -3.33771710707308
C         1.83813787708275    1.80422423520492   -2.31684782672320
C         2.26836037405715   -0.57418668081466   -2.59061043564273
C         0.19782358261511   -1.38243217429812   -3.60494469674985
C         1.47549505966332   -1.64703728466070   -2.96533107431506
C        -1.96511719469719   -1.44868925856151   -2.41017354083077
C        -0.80149851842328   -2.09917783921631   -2.87686209700167
C        -2.47882857198212   -1.74212823737764   -1.09895612257504
C        -3.09947633733534    0.67871798972972   -0.85805084876756
C        -3.07815976008146   -0.67440949109195   -0.32277762093211
C        -2.08174023152517    2.87033182786339   -0.32707709128984
C        -2.98774165976221    1.78669454696494    0.02505825138774
C        -1.40663410565246    3.25778508190616    0.87914396561331
C         0.63425529129858    3.37089035463938   -0.39507474143571
C        -0.04580162253540    3.53399613761529    0.84889894104260
C         2.41121065650206    1.80102583386858   -1.02460506479555
C         1.89021893738912    2.74791077135745   -0.13001971525651
C         2.90434202163475   -0.61006179962281   -1.29703652146465
C         3.03745640611869    0.61418841503564   -0.51669019100512
C         2.88969641342095   -1.82354978234394   -0.57583317344693
C         1.27684401621039   -2.76962161952552   -2.10425557694168
C        -0.13107180483973   -3.05485442254388   -2.05351065913443
C         2.03818522978942   -2.90893424042279   -0.96269934195996
C        -1.92154951749282   -2.84656435013812   -0.41461079266550
C        -0.71029867185016   -3.47522835843638   -0.87521977413373
C        -1.90565192854511   -2.92158900425712    1.00983608388777
C        -3.12864546217744   -0.81700925399664    1.07579162641612
C        -2.51788973426548   -1.92812664831657    1.74885451352639
C        -2.90034274895072    1.59152976571698    1.42519899601218
C        -1.93181816765319    2.51149401576656    1.97502355762590
C        -3.01108025671779    0.31388408126942    1.95524025114929
C        -1.09032514475965    2.10748406279445    3.00688683678321
C         0.81160178660287    3.09823600811459    1.91381528808309
C         2.03641911995626    2.61559647246646    1.28411995199263
C         0.30132350995265    2.42939298439026    2.99554454094050
C         3.18929428195694    0.53888659029881    0.87961841724195
C         2.69720580911895    1.53210920428445    1.77958722329700
C         2.98254251294168   -1.87549551366473    0.85646075646234
C         3.14679342320186   -0.70965024334003    1.58047784039565
C         1.47561697882964   -3.50758416951611    0.22144424897322
C         0.11264335884618   -3.78838011509984    0.26412336867148
C        -0.64382218549227   -3.47562820159723    1.44387761234377
C         2.10643847608743   -2.89482775099040    1.35605548149665
C        -0.01663193455287   -2.95177088880393    2.56566054339952
C         1.39066630460288   -2.65157507456313    2.52467046427211
C        -1.91574902405593   -1.46013281003398    2.96883634467634
C        -2.21416043663093   -0.06827626779888    3.08911227929006
C        -1.23928541565362    0.79926771375785    3.58427660139364
C        -0.66426543700756   -1.93351438741471    3.35131286521723
C         1.08332812971385    1.42046888495938    3.81232851466204
C         2.43777439390225    0.95876799467342    3.15672024180233
C         2.51900074378651   -0.51743701343590    2.84737227866954
C         1.61815609886164   -1.45428083433862    3.28707444033364
C         0.05031874903374    0.31868539457799    3.95244431322584
C         0.33424949921221   -1.01926792992030    3.83194857509536
H        -1.81489647748631    2.27934045681915   -4.85427343363373
H         0.39243434124406    3.03565333854176   -4.66156760106610
H         1.34154929727650    0.92615785022043   -5.38657304968423
H         3.09633329683678    0.94309330841222   -3.84327944787953
H         1.31791907480873    1.83892192577954    4.79682281867642
H         3.24879868802320    1.24194120504304    3.83611193013125
H        -3.03455331897034    2.88351760293466   -2.98477023664389
H        -2.65787709828638   -3.62857215160828   -0.65185642951161
74
 energy: -145.473950367155 gnorm: 0.080079488160 xtb: 6.4.1 (a3dbbd7)
C        -1.33830806825476    1.89094693313624   -3.95674879474459
C         0.18190098102816    2.21149585256279   -3.97928336213890
C         0.96262743743952    0.90606222378742   -4.36269762934728
C        -1.31843131758627    0.39983806867383   -3.91482578451473
C        -0.07857292541968   -0.14054870653443   -4.14282465263570
C        -2.18109771421295   -0.13654977073591   -2.94386759021116
C        -2.18977045461767    2.25624140093431   -2.70520054309673
C        -2.69530743404526    0.91165954193345   -2.17835173672013
C        -1.46200559585025    2.92721263721815   -1.56504363261268
C         0.70610013008670    2.51406393543026   -2.61872981181775
C        -0.05308412499396    3.13896412146228   -1.59613468280288
C         2.14064175261969    0.74800113153224   -3.33721997659294
C         1.83768199440195    1.80508859221565   -2.31718175450655
C         2.26533077185614   -0.57438007170382   -2.58938603692195
C         0.19389779062600   -1.38434886181393   -3.60067315601947
C         1.47393098406387   -1.64768014552902   -2.96359597386234
C        -1.96388296992271   -1.43436654943087   -2.40484021820116
C        -0.79688224128167   -2.09428552496293   -2.87560870215033
C        -2.48253562823198   -1.71901892535308   -1.11015912475569
C        -3.09884120900905    0.68952100596490   -0.86238085532967
C        -3.06179419318095   -0.66210813864310   -0.32793892800675
C        -2.08092191802314    2.87526780184668   -0.32828607407468
C        -2.99142294800629    1.79303541042831    0.02616592488680
C        -1.40529605911775    3.26135637383526    0.87741010545353
C         0.63553763970729    3.37189756621642   -0.39578924728210
C        -0.04414795787081    3.53640804797510    0.84785151351499
C         2.41165519617470    1.80205759160810   -1.02534306375740
C         1.89176893241763    2.74821104581096   -0.13080672452299
C         2.90429595497683   -0.60970845764359   -1.29652013506091
C         3.03673114678879    0.61391651302406   -0.51725256955393
C         2.89547094109399   -1.82348270663972   -0.57418667154132
C         1.28528782895641   -2.77216091823707   -2.10188974735147
C        -0.11852623945331   -3.05086985537070   -2.04493097462304
C         2.04845694786939   -2.91038575949859   -0.95952546712072
C        -1.99971363995041   -2.93588939908272   -0.43610981232569
C        -0.69078713155015   -3.47851969599166   -0.87423746224814
C        -1.89983941667698   -2.92321229476307    1.03124860134831
C        -3.12155845278767   -0.81209261331594    1.07751309828629
C        -2.50555640159411   -1.92891455036228    1.75811709081665
C        -2.90179308499387    1.59339977065762    1.41804005574212
C        -1.93087535313634    2.51148492084005    1.97052329346127
C        -3.01134848531881    0.30869954679471    1.95032832757554
C        -1.09068330376528    2.10690613456318    3.00214551504884
C         0.81228247311551    3.09887787900318    1.91255927836773
C         2.03702285946322    2.61583943193947    1.28367464372755
C         0.30052463990774    2.42935428223409    2.99358804655983
C         3.18964993739846    0.53961791357732    0.87953614985393
C         2.69794112219199    1.53284808153496    1.77956712723442
C         2.98790264047273   -1.87393215283440    0.85826854737348
C         3.14854050605135   -0.70811327889461    1.58064180103036
C         1.48738533629860   -3.50551333508384    0.22448814293019
C         0.12072722426705   -3.77765337444048    0.26652703236801
C        -0.63681780898084   -3.46654022103926    1.44783369145264
C         2.11394804370971   -2.89430188278800    1.36070335295857
C        -0.00849305994785   -2.94922060917817    2.57449492770031
C         1.39816471864727   -2.65135251293170    2.52933642233585
C        -1.91122936484564   -1.46325566853686    2.97741243737788
C        -2.21167944346822   -0.07142487306552    3.08660614692063
C        -1.23886927285461    0.79673537116636    3.58025972578447
C        -0.65769854279054   -1.93596027194804    3.36094378699119
C         1.08237674498107    1.42087052462336    3.81170367061492
C         2.43766637118936    0.95985097675536    3.15690816081561
C         2.52024403727912   -0.51580622924726    2.84875544291254
C         1.62270286806709   -1.45282306299778    3.29081748880456
C         0.05042325520183    0.31844683686427    3.95225097528919
C         0.33793878701799   -1.01924412047782    3.83666769057228
H        -1.81451947035801    2.28487243536073   -4.85800507914685
H         0.39554488559324    3.03857168899808   -4.66210589286597
H         1.34103745262185    0.92592631757604   -5.38623243519458
H         3.09547860930893    0.94157565337709   -3.84202500415729
H         1.31657123788006    1.83944080020576    4.79631734827443
H         3.24848492143208    1.24281514760493    3.83656686687198
H        -3.03485663170015    2.89344584110729   -2.99149456469482
H        -2.74489797926497   -3.72220094853081   -0.67564456566785
74
 energy: -145.483076179538 gnorm: 0.015846976935 xtb: 6.4.1 (a3dbbd7)
C        -1.33602724857166    1.89727775648978   -3.95881052950703
C         0.18417219168918    2.21634768621687   -3.98070460500769
C         0.96243970757267    0.90782644419099   -4.36163945626116
C        -1.31406967405675    0.40537026295044   -3.91188083937144
C        -0.08186639628706   -0.13519235032166   -4.13729237293061
C        -2.17701047880782   -0.13010939280536   -2.93603731459347
C        -2.18912689516432    2.26348195416319   -2.70716210838918
C        -2.68856838665377    0.91624877319774   -2.17683877258823
C        -1.46274094657084    2.93371320766503   -1.56542904347821
C         0.70639721192578    2.51834472074622   -2.61916534504273
C        -0.05151710402659    3.14459211411843   -1.59700437021787
C         2.13890829445404    0.74900128706974   -3.33556077272496
C         1.83715727486551    1.80752792172090   -2.31691432688641
C         2.26190412950132   -0.57376297970164   -2.58736704709193
C         0.18679596539316   -1.38580051437018   -3.59182662927768
C         1.47174031908464   -1.64664030854171   -2.95868796224800
C        -1.96220716328649   -1.42961803255891   -2.39239486543370
C        -0.79644953996518   -2.09441205064325   -2.87852088468314
C        -2.47310038756980   -1.70596471459718   -1.10911121750210
C        -3.08993039903637    0.69056610856031   -0.86188852341118
C        -3.04634818650138   -0.66394340115277   -0.33284590226407
C        -2.07966472710851    2.88257124977586   -0.33023221557708
C        -2.98946936121957    1.79420206282218    0.02793886905526
C        -1.40373033537470    3.26504528003859    0.87576497634671
C         0.63664603718137    3.37526172449836   -0.39682584368711
C        -0.04233368252636    3.53993042534782    0.84686148999684
C         2.41103020971062    1.80415767625083   -1.02560395706837
C         1.89316613832291    2.75027846571493   -0.13158151898112
C         2.90599582241035   -0.60804333663934   -1.29410594156022
C         3.03668807543968    0.61469635611995   -0.51706457363280
C         2.90282704556000   -1.82205858496948   -0.57227135992232
C         1.28399925645522   -2.76905193186737   -2.09413250949508
C        -0.11782698695796   -3.04902054021364   -2.03313266622845
C         2.05375918896089   -2.90759490484520   -0.95498731271228
C        -2.08668989587666   -3.03705967445613   -0.45910798661652
C        -0.68691989080064   -3.48220650682431   -0.87272162744878
C        -1.90049966487511   -2.92988771096865    1.04032132856683
C        -3.12153883656028   -0.81154904774694    1.07948438539352
C        -2.49616971464214   -1.93617134599616    1.75826972186134
C        -2.90069780390085    1.59364846267002    1.41100590664228
C        -1.92890243801692    2.51081373271507    1.96647751186904
C        -3.00728157256123    0.29985000226814    1.94111932249677
C        -1.08979296726907    2.10643864500438    2.99739843206125
C         0.81350438676860    3.10126449992733    1.91117352349285
C         2.03817828385732    2.61848051222564    1.28321439577653
C         0.30047440196994    2.42990903693026    2.99116093392482
C         3.19143916982820    0.54250446960460    0.88022509326028
C         2.69969922673035    1.53616929475420    1.77965267650981
C         2.99498650431596   -1.87056411480844    0.86121975420402
C         3.15311696267852   -0.70431716394010    1.58166647768788
C         1.49264029857410   -3.49844093125266    0.22610122037273
C         0.12027869434853   -3.75967014891804    0.26383723401307
C        -0.63623029598279   -3.45199327257142    1.44528187770268
C         2.12005394132126   -2.89061221314211    1.36404312379206
C        -0.00248046951455   -2.94391080182947    2.57781102300222
C         1.40501900639489   -2.64831820075206    2.53214946946173
C        -1.90321187053493   -1.46502396869733    2.97554311745188
C        -2.20617149414550   -0.07529388705509    3.08388826122890
C        -1.23704872187645    0.79376698130527    3.57589468027342
C        -0.64961452084700   -1.93639471224819    3.36528645808734
C         1.08288942912776    1.42279133118213    3.81039396279119
C         2.43959353239018    0.96343740009527    3.15710694208750
C         2.52434369439397   -0.51194646509304    2.85105524524289
C         1.63001091210973   -1.44993385678442    3.29470197976678
C         0.05311511734446    0.31877712928505    3.95170835796566
C         0.34357775103856   -1.01815168443816    3.84162029882230
H        -1.81298854692242    2.28985030012738   -4.86028190746699
H         0.40121450810770    3.04314016175935   -4.66288511251974
H         1.34103157338597    0.92478743089061   -5.38536800031056
H         3.09504737403700    0.93998924144758   -3.83923203693920
H         1.31589103537050    1.84191295546842    4.79501908645455
H         3.24928707042922    1.24751254351704    3.83749741394855
H        -3.03240615348985    2.90137566699733   -2.99538175580920
H        -2.83655772640814   -3.80524266230953   -0.70720134364712
74
 energy: -145.483462366914 gnorm: 0.008093320796 xtb: 6.4.1 (a3dbbd7)
C        -1.33458403555162    1.89873247049904   -3.95794770119726
C         0.18588637358886    2.21803356379913   -3.98060530263301
C         0.96360761257664    0.90835294628878   -4.36011637241504
C        -1.31284145707530    0.40643631666195   -3.90970274521377
C        -0.08112087191672   -0.13432321873539   -4.13571748822916
C        -2.17480944583349   -0.13184071341905   -2.93341213641052
C        -2.18738615383344    2.26446982260075   -2.70633155565709
C        -2.68432620602810    0.91575160360809   -2.17500055516003
C        -1.46091678894240    2.93652077481815   -1.56571297547574
C         0.70815159873876    2.52193938869931   -2.61939715085755
C        -0.04960735380278    3.14923800596119   -1.59771215506408
C         2.13896558004117    0.75024584400338   -3.33348522713506
C         1.83814139146480    1.81015260300399   -2.31606752892668
C         2.25866921866014   -0.57201200091781   -2.58451183995203
C         0.18399534139251   -1.38551427461158   -3.58940711262361
C         1.46820941548791   -1.64465699346473   -2.95414856083527
C        -1.96610560448605   -1.43488779728129   -2.39202616380038
C        -0.80013904906810   -2.09769685556637   -2.88109294507452
C        -2.47913797937432   -1.71790130802579   -1.10837174494207
C        -3.08489550262477    0.68634906536663   -0.86031921652914
C        -3.04802790900056   -0.67154534211917   -0.33403711679935
C        -2.07785794751149    2.88355165352200   -0.33094680004875
C        -2.98571528240054    1.79168638731304    0.02735141748241
C        -1.40261679558633    3.26584545102104    0.87539074543563
C         0.63810757828176    3.37919796252944   -0.39696717943207
C        -0.04132459014174    3.54257486504185    0.84682776466294
C         2.41187080347860    1.80712415576460   -1.02493441810081
C         1.89467886147664    2.75393661916683   -0.13131978893403
C         2.90553125734292   -0.60555232695044   -1.29190159937686
C         3.03765031837403    0.61733779668756   -0.51621475916983
C         2.90304677773490   -1.81974008190018   -0.57146193193475
C         1.27687725743055   -2.76567816455817   -2.08910640640677
C        -0.12523292644267   -3.05367207151105   -2.03280146010392
C         2.04989704105613   -2.90387739398791   -0.95292455522900
C        -2.09407195059594   -3.04953963715262   -0.45939836509410
C        -0.69774920702794   -3.49245515382634   -0.87420991654686
C        -1.90995766205595   -2.94253153680342    1.03740782864063
C        -3.12417570791310   -0.81555975931441    1.07948203676031
C        -2.50041952680401   -1.94362987776073    1.75612630297479
C        -2.89796183909640    1.59186755426646    1.41011468093508
C        -1.92707486134712    2.50993805803068    1.96545447523024
C        -3.00441414091223    0.29687113042327    1.93800792773114
C        -1.08792005074377    2.10591619941034    2.99580778856989
C         0.81469316984999    3.10393349180439    1.91105602600834
C         2.03972562309624    2.62180439693509    1.28352555764326
C         0.30170846705871    2.43086634893508    2.99014282458530
C         3.19347090248956    0.54549279384138    0.88102583161040
C         2.70156560195073    1.53946868972744    1.78008174421046
C         2.99678141341474   -1.86833037978891    0.86199342253065
C         3.15601452754119   -0.70159882884100    1.58234720872084
C         1.48868963978533   -3.49467330624520    0.22666964457399
C         0.11594023031080   -3.75853019513451    0.26222641911017
C        -0.63946542590340   -3.45220538999425    1.44375899758108
C         2.12001446931063   -2.88759487986062    1.36360894952792
C        -0.00191378113980   -2.94260259028989    2.57475911207843
C         1.40605603764018   -2.64593502547138    2.53134403691209
C        -1.90009243507261   -1.46657255768004    2.96989999962510
C        -2.20246561998330   -0.07743358932965    3.08092152424556
C        -1.23459246888474    0.79251116710033    3.57289361231392
C        -0.64728634295957   -1.93607414335809    3.36294391984271
C         1.08443907623887    1.42467668931173    3.80981063454689
C         2.44204434828499    0.96653219595693    3.15754502517073
C         2.52741456793098   -0.50939686281407    2.85204627481681
C         1.63309013041662   -1.44832505680284    3.29512082246182
C         0.05580114647315    0.31932319071171    3.95042404405710
C         0.34604584209913   -1.01743598611933    3.84166080518835
H        -1.81103119706338    2.29154756038421   -4.85973383737989
H         0.40424329121805    3.04406043349328   -4.66353554170979
H         1.34237944367307    0.92370206949692   -5.38367720101209
H         3.09601135861848    0.93912873805664   -3.83604369999974
H         1.31601833579446    1.84494129849139    4.79427732481741
H         3.25087222510871    1.25277402669251    3.83819191641011
H        -3.03060264011200    2.90269787047761   -2.99488994497891
H        -2.84663625905488   -3.81124803749463   -0.71236165354521
74
 energy: -145.483548592423 gnorm: 0.002602460063 xtb: 6.4.1 (a3dbbd7)
C        -1.33465943746750    1.89836557745949   -3.95766387880067
C         0.18593493776596    2.21785353489740   -3.98059287137514
C         0.96455489558431    0.90842476029150   -4.35980119345219
C        -1.31223528635753    0.40622631412155   -3.90920542476620
C        -0.08030490665290   -0.13413694399620   -4.13605544877268
C        -2.17327093734072   -0.13320391509090   -2.93187279513354
C        -2.18622041150238    2.26402451812337   -2.70560360820287
C        -2.68211044279930    0.91524740647669   -2.17411033040323
C        -1.45985796092626    2.93709447628539   -1.56550983052292
C         0.70872070444748    2.52303001495614   -2.61965203613191
C        -0.04851782709474    3.15109787488900   -1.59800189637498
C         2.13914136164205    0.75055175317734   -3.33288339558801
C         1.83842020244857    1.81080891017989   -2.31566045430433
C         2.25740805420578   -0.57128340749644   -2.58367426264327
C         0.18269388997117   -1.38577077235492   -3.58948193425381
C         1.46636817216028   -1.64313562804469   -2.95164438543138
C        -1.96697936897506   -1.43731566404665   -2.39139963858059
C        -0.80156465535841   -2.09931433487735   -2.88425403672633
C        -2.47941486488710   -1.72279816283367   -1.10688479170914
C        -3.08271501874062    0.68425314720591   -0.85929963652697
C        -3.04767616908860   -0.67518080846622   -0.33449669251605
C        -2.07690848312205    2.88388575767411   -0.33120138118494
C        -2.98410462001699    1.79012912249944    0.02723933240524
C        -1.40225573066714    3.26605092206022    0.87545995021040
C         0.63871616404920    3.38059724341009   -0.39682027635471
C        -0.04092429982535    3.54354074723554    0.84710343799263
C         2.41206297206525    1.80816269365417   -1.02461145977507
C         1.89531012039512    2.75514656474547   -0.13093227200972
C         2.90556965514916   -0.60431403535840   -1.29070362867057
C         3.03826791916226    0.61826817412162   -0.51580899658879
C         2.90396178716675   -1.81840363755580   -0.57125402922709
C         1.27281525207412   -2.76293756879629   -2.08577189938054
C        -0.12889538329687   -3.05480790352757   -2.03228334215484
C         2.04803567750415   -2.90144482952188   -0.95202574357368
C        -2.09729026841252   -3.05648655285698   -0.45944396459461
C        -0.70352634267137   -3.49592736356715   -0.87488938272338
C        -1.91457437408198   -2.94777442906996    1.03494920416838
C        -3.12642462259970   -0.81626489617369    1.08008505603534
C        -2.50169698236163   -1.94617920949330    1.75432023584003
C        -2.89675958496007    1.59147148504860    1.41019680186209
C        -1.92638551448472    2.50979003732140    1.96549028093843
C        -3.00343372515580    0.29586820902343    1.93642621688001
C        -1.08717461927537    2.10582109548059    2.99552837953984
C         0.81518352404912    3.10486423167661    1.91136057701843
C         2.04022143312994    2.62256445029656    1.28400474491771
C         0.30216442018506    2.43101919477250    2.99008838677344
C         3.19445659346168    0.54634362130990    0.88157506462918
C         2.70219017062667    1.54020215452275    1.78056171551106
C         2.99835251756864   -1.86762843392653    0.86229942011272
C         3.15781730912723   -0.70077831793269    1.58285667163633
C         1.48666978120218   -3.49180029268732    0.22694005938299
C         0.11401572093523   -3.75556983399448    0.26100837324155
C        -0.64084352440125   -3.45014252993395    1.44257217546356
C         2.12006168368590   -2.88576877693223    1.36337294004223
C        -0.00156442859758   -2.94125463260830    2.57292280405003
C         1.40651934956000   -2.64448472216245    2.53080526644230
C        -1.89808801153140   -1.46690048556885    2.96639825631458
C        -2.20021275826685   -0.07829028534683    3.07925953020013
C        -1.23360566719670    0.79197633304840    3.57160439468205
C        -0.64632628526599   -1.93564357010946    3.36197709313037
C         1.08512041039105    1.42540349039708    3.81004293667376
C         2.44318195864130    0.96744256604034    3.15821735474459
C         2.52911838881279   -0.50871392210058    2.85293582988729
C         1.63454799413679   -1.44771143082074    3.29576962489553
C         0.05705073443799    0.31963571401992    3.95009881051969
C         0.34714431962544   -1.01690654375667    3.84232602856496
H        -1.81111900819362    2.29084910479371   -4.85959553715361
H         0.40404901708425    3.04340172921822   -4.66418918717827
H         1.34317855201190    0.92364838519622   -5.38333800401247
H         3.09682544468369    0.93869928287656   -3.83438422654900
H         1.31610599731032    1.84609418021217    4.79446123939543
H         3.25149765908306    1.25491760573581    3.83895548188481
H        -3.03052473845893    2.90111847528792   -2.99349124688148
H        -2.85345922636647   -3.81065715596061   -0.71802656268038
74
 energy: -145.483556551592 gnorm: 0.001087914170 xtb: 6.4.1 (a3dbbd7)
C        -1.33454971929288    1.89795755650177   -3.95736257577975
C         0.18599741957482    2.21785812624715   -3.98064314269730
C         0.96451893317552    0.90834538948082   -4.35995594899043
C        -1.31219595446846    0.40583720566673   -3.90924977137022
C        -0.08019565039988   -0.13439901437426   -4.13659050560030
C        -2.17300005236692   -0.13364823283406   -2.93160387917241
C        -2.18607201186007    2.26350698797401   -2.70543204238191
C        -2.68174034709664    0.91496494446198   -2.17394882413742
C        -1.45979948099321    2.93673891088891   -1.56540811792108
C         0.70871055798297    2.52290552341197   -2.61971602219883
C        -0.04844649361914    3.15094852743906   -1.59801112391146
C         2.13908749813581    0.75041756560350   -3.33313009246652
C         1.83837064384002    1.81062153403109   -2.31572362100590
C         2.25734093955442   -0.57143036655335   -2.58405679640951
C         0.18258570718094   -1.38621274519896   -3.59021351312839
C         1.46619837670562   -1.64300899019660   -2.95158068133724
C        -1.96662323367535   -1.43748487645413   -2.39111576486722
C        -0.80151775709451   -2.09960797506664   -2.88513663702121
C        -2.47822889626082   -1.72265384244143   -1.10621163753072
C        -3.08256552001641    0.68403032615885   -0.85908859780505
C        -3.04717637761262   -0.67538789893239   -0.33439845216793
C        -2.07694290173669    2.88378986760852   -0.33121797174729
C        -2.98413336905605    1.78982357012428    0.02732001200013
C        -1.40240687191630    3.26594833514624    0.87549636764798
C         0.63861679960583    3.38039185335476   -0.39678106367023
C        -0.04104842521337    3.54340996140560    0.84713688836667
C         2.41193904065568    1.80803500180979   -1.02469503604182
C         1.89521277151023    2.75493325711632   -0.13092028995581
C         2.90556785151617   -0.60437537073423   -1.29066123411741
C         3.03820453620547    0.61807647375188   -0.51591619179231
C         2.90427986864518   -1.81836652423792   -0.57136110794709
C         1.27245757383227   -2.76258424415306   -2.08529817527818
C        -0.12892248698437   -3.05442002405238   -2.03204832444681
C         2.04810837233350   -2.90137496126837   -0.95211161660400
C        -2.09672843831979   -3.05682114357194   -0.45912826994381
C        -0.70377048269686   -3.49490196188875   -0.87461031752908
C        -1.91451626449625   -2.94725847547617    1.03444295777644
C        -3.12701066478519   -0.81587828023899    1.08046955740789
C        -2.50139837296214   -1.94579456210471    1.75406760623821
C        -2.89692562132191    1.59165300220202    1.41050078830700
C        -1.92655987901499    2.50989840548699    1.96565376435945
C        -3.00383782100521    0.29601011184674    1.93650313755329
C        -1.08729608820217    2.10587315269225    2.99569326974097
C         0.81507401361976    3.10472960915646    1.91139084551663
C         2.04007954256622    2.62230896967346    1.28402671640039
C         0.30204720409767    2.43092413169977    2.99019629363568
C         3.19434808477602    0.54613086609386    0.88154944400644
C         2.70206573116609    1.53998245634121    1.78052293900378
C         2.99861754411179   -1.86781758679824    0.86225639192298
C         3.15788568761172   -0.70092487556308    1.58286028248262
C         1.48669748513668   -3.49152058737848    0.22704211344184
C         0.11419439617399   -3.75447389084288    0.26094296850889
C        -0.64069779717102   -3.44917192385573    1.44251267827128
C         2.12016479809745   -2.88570652437843    1.36343986972790
C        -0.00148820949831   -2.94113787462256    2.57290922810789
C         1.40653723522975   -2.64444737903548    2.53081881613895
C        -1.89790541090176   -1.46681912544415    2.96607585726731
C        -2.20019124046154   -0.07829059274924    3.07932759485617
C        -1.23385373792707    0.79199434704836    3.57173291119073
C        -0.64644339752699   -1.93562782634559    3.36215785627096
C         1.08499925713861    1.42525715915820    3.81007740509366
C         2.44312379064315    0.96729321604484    3.15818840321297
C         2.52911257459483   -0.50888640383389    2.85301337519432
C         1.63449040131476   -1.44776509177765    3.29591000622823
C         0.05696181652611    0.31959818061635    3.95013808275026
C         0.34705945745533   -1.01686839744393    3.84258189868273
H        -1.81099765814979    2.29065284556008   -4.85916763947199
H         0.40381707937528    3.04354300778891   -4.66419718655833
H         1.34315938926015    0.92394624711728   -5.38347658799379
H         3.09676747264163    0.93883520042989   -3.83453625971431
H         1.31621680977175    1.84588007575395    4.79445570098479