74
 energy: -145.419597954350 gnorm: 0.147400772353 xtb: 6.4.1 (a3dbbd7)
C        -1.34303251468895    1.90318463857212   -3.93969491972263
C         0.17651357535908    2.22813125583761   -3.96893482428361
C         0.95937133320056    0.92376310043256   -4.35390957284836
C        -1.31763804145298    0.41263874128158   -3.89036007263625
C        -0.07568214122528   -0.12599208748487   -4.13270379138622
C        -2.17902843941667   -0.12452255395917   -2.92004125603810
C        -2.19402990078027    2.27005287283632   -2.68751560810806
C        -2.69790654000379    0.92593231444252   -2.15676937491965
C        -1.46649002437643    2.94732546510019   -1.55104669272279
C         0.69719758229773    2.52923690446702   -2.60753443904780
C        -0.06036510545934    3.16302713062696   -1.58865056094488
C         2.12455978979724    0.75289540913742   -3.31601387153338
C         1.82060967197943    1.80981911980968   -2.29750018401715
C         2.23993430687218   -0.57837117922956   -2.58054780261886
C         0.20991917482487   -1.36084008342113   -3.58432568021865
C         1.48670211842454   -1.64384927167342   -2.97342220223481
C        -1.95266781830262   -1.41440840843200   -2.37515637729500
C        -0.77695963319709   -2.06061283435954   -2.82611003168481
C        -2.46950066353844   -1.70786885191214   -1.07442460491554
C        -3.09913877471070    0.70288571694971   -0.83491079754612
C        -3.07661474772348   -0.64794907642118   -0.29860312797145
C        -2.08035018108558    2.89017871223936   -0.30860048747345
C        -2.98616393843861    1.80749972153611    0.04843162989854
C        -1.40096872257477    3.27725100375949    0.89395834843518
C         0.63313711011801    3.40540756787270   -0.39273887773979
C        -0.04633647116704    3.56823231348941    0.85422235394994
C         2.39450590141163    1.81266379555922   -1.00841319567411
C         1.88883378109539    2.77797325373398   -0.12822768591444
C         2.87427374605406   -0.61154618463251   -1.26144750722515
C         3.02266439700635    0.61548059782451   -0.49891008984947
C         2.86161593106641   -1.80991703670135   -0.55781179324046
C         1.37391550623470   -2.98604052340688   -2.28241284044560
C        -0.11460559665325   -3.01927283403405   -2.02399505279269
C         2.23553874641020   -3.11625251537768   -1.01411002233920
C        -1.89932586240368   -2.81052111469622   -0.39787517287536
C        -0.69539566057749   -3.43327808773663   -0.86616282375077
C        -1.89056172430034   -2.89617002392925    1.02560005283560
C        -3.12165354464197   -0.79543143717457    1.10060403757206
C        -2.50846962652191   -1.90802831114861    1.76827038532391
C        -2.89640487370179    1.61088044670192    1.44887248698288
C        -1.93158207191289    2.53005818943878    2.00065913018544
C        -3.00766189989324    0.33163479181465    1.98149955487355
C        -1.11099065821469    2.13575756200188    3.04681221833870
C         0.81744446357385    3.12136969079862    1.91315822365790
C         2.02427589196448    2.64686100997125    1.29096707349353
C         0.29916343069190    2.43927684939133    3.00581619456530
C         3.20942982163590    0.54909360162074    0.89123790397326
C         2.69277559750123    1.55098635089745    1.79287098769278
C         2.95130272761085   -1.84959817391130    0.85770312972906
C         3.15684271347711   -0.69320799871719    1.58838461932436
C         1.47394545098546   -3.50668832117898    0.24337112018185
C         0.12682457088485   -3.77021745558622    0.28918385295512
C        -0.63853780856747   -3.46224192247470    1.45948052807638
C         2.08047354742698   -2.87898066017766    1.36730086198074
C        -0.02241648636264   -2.95820432561795    2.60072114683694
C         1.37650257963659   -2.65386309317857    2.54895386549048
C        -1.91201253905219   -1.44793477292610    2.99528341193327
C        -2.21584718173037   -0.04893823084702    3.12051254236773
C        -1.26358586286656    0.82734535446506    3.63345511599475
C        -0.67297769861510   -1.93992559777549    3.38598032960747
C         1.01172111563668    1.31834346348175    3.55865105731327
C         2.20903205987305    0.90028852800448    2.98215040715583
C         2.50261158333748   -0.50008511279461    2.85745575286195
C         1.59742254669781   -1.44847106874116    3.31227742856158
C         0.04441608723162    0.33295130014719    3.97655339304141
C         0.33529940588552   -1.02295956713039    3.85775236560320
H        -1.82227167780495    2.29064312779328   -4.84240260734624
H         0.38811499405409    3.05653184774714   -4.65065713028226
H         1.34585574405032    0.94678401921061   -5.37365383536327
H         3.03148656549902   -3.84744214328437   -1.19665727988934
H         1.65173359720458   -3.77374251494462   -2.99229573196477
H         3.08570811311265    0.94042966888166   -3.81034728905431
H        -3.03896199496442    2.90770896479605   -2.97525460475639
H         2.80716615693637   -3.64301287659504    1.68062597039176
74
 energy: -145.445077028204 gnorm: 0.077808098130 xtb: 6.4.1 (a3dbbd7)
C        -1.34386773150662    1.90394263098674   -3.94069919613388
C         0.17540307612328    2.22869970700206   -3.96988975049703
C         0.95879882599593    0.92475539228914   -4.35497864527515
C        -1.31827924835354    0.41311827512851   -3.89181127144657
C        -0.07617486442910   -0.12474535548152   -4.13317985633040
C        -2.17806822596389   -0.12280568653256   -2.91933315913617
C        -2.19627985352380    2.27212435476280   -2.68915130903951
C        -2.69904768540900    0.92733087585145   -2.15657507907744
C        -1.46708222812757    2.94597166329740   -1.55159977726072
C         0.69638961067576    2.52923484546085   -2.60855468687381
C        -0.06165046347216    3.16080817157329   -1.58840890330183
C         2.12568861941601    0.75567467422313   -3.31929777992498
C         1.82082418940997    1.81207507045248   -2.30053377972829
C         2.24143146201672   -0.57552318215166   -2.58451252879412
C         0.20980183826714   -1.36120228573109   -3.58870544350853
C         1.48535524763272   -1.64142963845988   -2.97580819615665
C        -1.95185926531130   -1.41279969810687   -2.37612974210757
C        -0.77768018773660   -2.06021437617090   -2.83083818786143
C        -2.46684033437424   -1.70525728145451   -1.07492585262528
C        -3.09885239728212    0.70436104128597   -0.83500308610089
C        -3.07381202500882   -0.64569615671515   -0.29828881656425
C        -2.08033319588336    2.88815050675060   -0.30763261618039
C        -2.98903686230689    1.80970733209613    0.04937833830644
C        -1.40128887515197    3.27771072317277    0.89387674924585
C         0.63299628972348    3.40518401761183   -0.39295788559787
C        -0.04639694268506    3.56900315754572    0.85433788909309
C         2.39608117888171    1.81628316612651   -1.01179409849457
C         1.88861274422963    2.77928461667307   -0.12947568936130
C         2.87261785985525   -0.60486761614001   -1.26790816089696
C         3.02280042878983    0.62031717044667   -0.50493266876775
C         2.85162098094197   -1.80436290727495   -0.55981493534277
C         1.37121110322154   -2.98529245039048   -2.28812719977871
C        -0.11768487663368   -3.02158890864158   -2.03278527642334
C         2.23363794402009   -3.11534675815383   -1.02026669550694
C        -1.89725854946699   -2.80876324225568   -0.39915097322230
C        -0.69980838297734   -3.43475462487035   -0.87533848400639
C        -1.88876796334566   -2.89337592601911    1.02583228663393
C        -3.12107167179551   -0.79358451338323    1.10220392634632
C        -2.51240863445763   -1.90495164446379    1.77083061318625
C        -2.89839001057240    1.61287042334880    1.44881137943621
C        -1.93229123736051    2.53147840246002    2.00078678672824
C        -3.01163678916804    0.33487473698597    1.98367240578325
C        -1.11283177566149    2.13888874012072    3.04765639610371
C         0.81664203347664    3.12323011021221    1.91319968017013
C         2.02295507713421    2.64725476293380    1.29010128551458
C         0.29788468653769    2.44126776301581    3.00670945172380
C         3.20682595734539    0.55402363131802    0.88697949692185
C         2.69061699836414    1.55187994814487    1.79177043390342
C         2.94494585741229   -1.83706282209180    0.84740083738359
C         3.14376012832417   -0.68678421036449    1.57979539383398
C         1.46634403463386   -3.51258223433319    0.22674161993630
C         0.12617294604281   -3.75561178092357    0.27895347786002
C        -0.64009371570656   -3.45121008830266    1.45923312118507
C         2.15637497341322   -2.96459177459415    1.40263257339037
C        -0.02792477869190   -2.94308200381329    2.60481778742844
C         1.36899244501812   -2.65812113041230    2.58166146598880
C        -1.91999779657210   -1.44259796531724    2.99872329035713
C        -2.22193466218702   -0.04330141362940    3.12242251902958
C        -1.26812580125538    0.83240762885123    3.63671157325987
C        -0.68333528207326   -1.93181662729623    3.39609741989618
C         1.00810275153423    1.32119898285822    3.56058546052248
C         2.20626251877906    0.90013449446813    2.98176601886205
C         2.49645621222257   -0.49734435887716    2.85763813653942
C         1.58471332206928   -1.44469657586342    3.31745549353794
C         0.03757276282920    0.33906599243958    3.98151941161016
C         0.32431083388913   -1.01755269243885    3.86751558046626
H        -1.82310624045888    2.29153471749421   -4.84335491483420
H         0.38781704202219    3.05732269781944   -4.65124709160380
H         1.34498488651568    0.94757473656305   -5.37486706245324
H         3.02876605933364   -3.84820529521619   -1.20660505971494
H         1.65210053868215   -3.77251067389073   -2.99685081616588
H         3.08654978502169    0.94341292235022   -3.81412413960213
H        -3.04035234470396    2.91013105758660   -2.97835597669314
H         2.89385265994571   -3.73451709088600    1.71462415272097
74
 energy: -145.455010798261 gnorm: 0.019842112666 xtb: 6.4.1 (a3dbbd7)
C        -1.34496848839792    1.90661754335541   -3.94298233804448
C         0.17397665829182    2.23211300887642   -3.97214519397499
C         0.95720067156079    0.92828569613827   -4.35786790352134
C        -1.31951333223995    0.41590079877993   -3.89435681189304
C        -0.07734142870903   -0.12105887980180   -4.13512634995553
C        -2.17907625269260   -0.12080296206225   -2.92160933810670
C        -2.19562243676268    2.27348281046354   -2.69004391344644
C        -2.69962251681874    0.92879031517287   -2.15860774127733
C        -1.46730027673474    2.94910453022851   -1.55366497490436
C         0.69535746501235    2.53317946122127   -2.61119126996518
C        -0.06269134502472    3.16362136876962   -1.59033005850772
C         2.12321221374055    0.75793393419530   -3.32153570738255
C         1.82017176682196    1.81621167270345   -2.30392341675688
C         2.23856761048970   -0.57375004985911   -2.58654101763256
C         0.20874103769566   -1.35862599683535   -3.59279101826655
C         1.48328451894705   -1.64006588044698   -2.98080576445895
C        -1.95354795594041   -1.41086139325845   -2.37881953286332
C        -0.78016415518160   -2.05942435577534   -2.83627262387474
C        -2.46855624230997   -1.70206127852363   -1.07701489548685
C        -3.09967534318872    0.70585233228598   -0.83689176218835
C        -3.07714263123488   -0.64313310513867   -0.30050853097061
C        -2.08108249756786    2.89080199699051   -0.30915101899112
C        -2.98861818677812    1.81203726900681    0.04713668915408
C        -1.40305389042389    3.28007141588303    0.89225506519500
C         0.63203462620177    3.40633853626019   -0.39417304158464
C        -0.04755499334181    3.56990067315130    0.85366697074829
C         2.39516617979925    1.81997444927806   -1.01536668180973
C         1.88733036183403    2.78114254524088   -0.13123969112238
C         2.85698705536981   -0.60262074010922   -1.26692448921539
C         3.01270737387650    0.61928880868967   -0.50879790437903
C         2.82320947963380   -1.80361173783673   -0.54935011681599
C         1.37013709228435   -2.98455212677508   -2.29327446258356
C        -0.11854590245851   -3.01763569590708   -2.03852311570407
C         2.22925704931503   -3.12023962251949   -1.02163848510831
C        -1.89322342423065   -2.80124066787907   -0.39923689466029
C        -0.69601374143024   -3.42181667753502   -0.87527871099270
C        -1.88053743557007   -2.88541489154063    1.02755335279739
C        -3.12311523955299   -0.79077656902027    1.10156522755907
C        -2.51496284160787   -1.89861217359824    1.77170394967103
C        -2.90019018730913    1.61591635540606    1.44748615411161
C        -1.93463995983040    2.53464601716591    1.99960751632443
C        -3.01503971724840    0.33925664199148    1.98308128990419
C        -1.11589166916144    2.14213604775801    3.04697300314736
C         0.81496842208195    3.12594680571495    1.91250448311315
C         2.02059899836148    2.64777441326653    1.28924373231889
C         0.29612464593605    2.44255634148126    3.00644035165653
C         3.19136359692156    0.54997735522918    0.88427254144094
C         2.68466547183691    1.55039250703890    1.79023939579769
C         2.92972875755200   -1.83709262733519    0.84439151416609
C         3.12453329453350   -0.69161160980080    1.57342906869018
C         1.46732234410183   -3.51805880646279    0.22367400185434
C         0.13820954762537   -3.73404807977631    0.27704906477469
C        -0.63903620768623   -3.44261282189831    1.46273824645715
C         2.25122292890764   -3.07028690354985    1.44652662549186
C        -0.02297610869651   -2.92840266467386    2.60267635979693
C         1.36667845985949   -2.65685061346896    2.59625737756539
C        -1.92588898647472   -1.43662220508719    3.00053237610593
C        -2.22855975442317   -0.03801584559462    3.12476253478645
C        -1.27332349084877    0.83695651269079    3.63813374427780
C        -0.68832903760942   -1.92298569498450    3.39672992426879
C         1.00490707807062    1.32486514206324    3.56282272063632
C         2.20206004480634    0.89627285398540    2.98116367819266
C         2.49580471836638   -0.49772144049914    2.86259386652131
C         1.57884705571326   -1.44842640712652    3.31457042538855
C         0.03305110336803    0.34315219591942    3.98166972490474
C         0.31841979617238   -1.01213653940614    3.86753187009839
H        -1.82474353215021    2.29397760362721   -4.84542017464496
H         0.38643502720949    3.06068826623448   -4.65331148577762
H         1.34291553988955    0.95005175874806   -5.37799734214294
H         3.03404638373281   -3.84283694427179   -1.20918843402765
H         1.65125372331951   -3.77089146563619   -3.00280988320223
H         3.08443287872564    0.94474420347899   -3.81585440186990
H        -3.04009177074960    2.91094481305790   -2.97811502821205
H         2.98841501255351   -3.83186137649401    1.75632633992036
74
 energy: -145.455644746207 gnorm: 0.010865349794 xtb: 6.4.1 (a3dbbd7)
C        -1.34606427639689    1.90899351216553   -3.94466068200522
C         0.17286796376127    2.23476032130736   -3.97448192742570
C         0.95605138298826    0.93027549620718   -4.35912984138599
C        -1.31988062990104    0.41803747014131   -3.89637237177440
C        -0.07809170547636   -0.11969763209865   -4.13738177280663
C        -2.17968080070339   -0.11888424715245   -2.92360394466081
C        -2.19592553328844    2.27577442902149   -2.69128007357651
C        -2.69931917376463    0.93091319159035   -2.16058928019899
C        -1.46823896953807    2.95272820010833   -1.55520135199009
C         0.69390166946987    2.53652950481847   -2.61343353728213
C        -0.06359106457138    3.16774980127061   -1.59250312947580
C         2.12045691476458    0.75769893232383   -3.32101679703355
C         1.81738177156513    1.81718604743234   -2.30479426331674
C         2.23393830146266   -0.57473461423476   -2.58496110961576
C         0.20834176690660   -1.35808142823027   -3.59489031547700
C         1.48219084057949   -1.64204572528744   -2.98336551716493
C        -1.95302068224617   -1.40877244483543   -2.37984890405923
C        -0.78048598706401   -2.05908868257972   -2.83745277874291
C        -2.46637074595664   -1.69832735831569   -1.07709308363567
C        -3.10035169662715    0.70853154740104   -0.83832988262740
C        -3.07736860630271   -0.64000139200731   -0.30168763169840
C        -2.08232668523835    2.89510077761446   -0.31074979215563
C        -2.98799788835036    1.81434428844829    0.04519001245279
C        -1.40474949178749    3.28372409781339    0.89136453245458
C         0.63041817996639    3.40832496472960   -0.39524977062163
C        -0.04897888255715    3.57195655075034    0.85304721090936
C         2.38980085551584    1.81841754695312   -1.01553306342533
C         1.88434205305507    2.78071125524539   -0.13181147666527
C         2.84545778529705   -0.60751721846055   -1.26250527774027
C         3.00077381369532    0.61364062059776   -0.50714012544151
C         2.81584219044044   -1.80964253284746   -0.54293369415924
C         1.37147484776562   -2.98603996613955   -2.29288693940454
C        -0.11651844682431   -3.01504309737392   -2.03792332043725
C         2.23152685847512   -3.12721099098785   -1.02063724391190
C        -1.88734010406203   -2.79444763149945   -0.39777883079907
C        -0.68808141752857   -3.41217382182525   -0.86994778049630
C        -1.87551275539213   -2.88046592016024    1.02853773542472
C        -3.12298685883552   -0.78794637390110    1.10020895199120
C        -2.51343839273074   -1.89532286265349    1.77070214718833
C        -2.90098038669584    1.61859218198687    1.44654070321234
C        -1.93602077370504    2.53759216663012    1.99875541914625
C        -3.01565097998974    0.34176489325815    1.98172593663608
C        -1.11720412775997    2.14388740159844    3.04621721339069
C         0.81336712154041    3.12730474454695    1.91191753812887
C         2.01748120986768    2.64630494592420    1.28874022310461
C         0.29503894957402    2.44344100351702    3.00599827319899
C         3.17886030474486    0.54205621162562    0.88481830388009
C         2.67854671222009    1.54662371540608    1.78943564484995
C         2.93347706439932   -1.85141976869193    0.85051867367697
C         3.12212787707369   -0.69969143863786    1.57667655950222
C         1.47989516963546   -3.53307590365787    0.23178204276561
C         0.14686154779286   -3.73429040667554    0.28176710577635
C        -0.63615640477113   -3.44226337625765    1.46477578870169
C         2.26201300675897   -3.08312614013462    1.45111903474014
C        -0.01702820580474   -2.92991173917584    2.60282527375213
C         1.37355356855125   -2.66125990015737    2.59468396136920
C        -1.92467819537076   -1.43456714928502    2.99992401172510
C        -2.22965946081768   -0.03643745599530    3.12497364053794
C        -1.27451688124503    0.83838670889823    3.63729718553654
C        -0.68569065031723   -1.92192333657482    3.39320849785464
C         1.00385631945081    1.32617001271329    3.56344477337563
C         2.19955952668177    0.89412741519680    2.98195319662120
C         2.49782387019970   -0.49978296633835    2.86659544269594
C         1.58286584269321   -1.45426559554705    3.31530312007399
C         0.03284147319159    0.34301445914062    3.98022886077010
C         0.32028580485955   -1.01177538939063    3.86480933697650
H        -1.82648471598524    2.29695148364352   -4.84660482289220
H         0.38453363723003    3.06322989163455   -4.65619856762374
H         1.34230122347365    0.95278639491488   -5.37905034016711
H         3.04335014671087   -3.83956834697624   -1.21583526007903
H         1.65020263345715   -3.77164923442373   -3.00441826735660
H         3.08227395092126    0.94371512845634   -3.81464354477490
H        -3.04134635292915    2.91288580669888   -2.97834930876031
H         2.99855878393198   -3.83964288216016    1.76581693095952
74
 energy: -145.455851663120 gnorm: 0.003244482920 xtb: 6.4.1 (a3dbbd7)
C        -1.34559257082566    1.90950891966272   -3.94522390640869
C         0.17344724793554    2.23531303339819   -3.97570731079676
C         0.95613484091759    0.92994515505883   -4.35929903155553
C        -1.31955022634606    0.41848009304073   -3.89738860640340
C        -0.07835076229480   -0.12008483979452   -4.13878102777596
C        -2.18055256858079   -0.11839356238734   -2.92503797280618
C        -2.19469429768304    2.27573440893687   -2.69135456640092
C        -2.69860472581441    0.93126890744142   -2.16164028998378
C        -1.46770659476764    2.95404205272855   -1.55553908328901
C         0.69397322568169    2.53938647876600   -2.61489512498272
C        -0.06315123808387    3.17098608902435   -1.59382078771942
C         2.11923702313319    0.75768549554680   -3.31955397696749
C         1.81659675888582    1.81861663578675   -2.30490147950934
C         2.23046615139842   -0.57513690814032   -2.58325409561850
C         0.20817099890173   -1.35888249567085   -3.59593668170128
C         1.48175268510783   -1.64441401093207   -2.98522446130831
C        -1.95356713036656   -1.40813478590342   -2.38056519386546
C        -0.78188797777200   -2.05954935762714   -2.83837100020121
C        -2.46638887534638   -1.69654128281959   -1.07734225305745
C        -3.10090852431635    0.70947746130025   -0.83878017241333
C        -3.07878659722203   -0.63877631393365   -0.30225623148788
C        -2.08234383642536    2.89732453622788   -0.31136440695469
C        -2.98621387349091    1.81452475382195    0.04410587495890
C        -1.40542419848065    3.28588407244271    0.89141639695448
C         0.62981221207071    3.41048187643090   -0.39549836905311
C        -0.04956353435273    3.57361157237133    0.85329488548433
C         2.38684487276027    1.81895022422303   -1.01534326360920
C         1.88279293082493    2.78142482740248   -0.13157413684431
C         2.83829706177097   -0.60876585179884   -1.26020600245822
C         2.99356426622745    0.61124096539435   -0.50625559148341
C         2.80731836257053   -1.81043199294737   -0.53822465754863
C         1.37016305429836   -2.98797182187832   -2.29243900132279
C        -0.11714530739887   -3.01435660509816   -2.03791693365861
C         2.23249530348082   -3.12880826293655   -1.02151599255824
C        -1.88462930862704   -2.78987963498946   -0.39670453745575
C        -0.68353487680948   -3.40398262348756   -0.86599319836388
C        -1.87413908760596   -2.87795611192211    1.02938772128222
C        -3.12392453037741   -0.78690197662610    1.09943803044719
C        -2.51380103497743   -1.89422563466893    1.77022877501075
C        -2.90050502696598    1.61916765095153    1.44645993795133
C        -1.93610880336683    2.53860504764962    1.99861148938334
C        -3.01583124026337    0.34227431909130    1.98083539506462
C        -1.11706129372318    2.14404553674438    3.04594340510748
C         0.81282854666084    3.12891110663091    1.91221778500268
C         2.01583671028475    2.64638451446559    1.28905149549039
C         0.29513304419101    2.44400438262066    3.00637306050222
C         3.16936293818026    0.53754108905479    0.88471618616114
C         2.67385019436497    1.54456530314675    1.78890880994501
C         2.93077375623921   -1.85956522927645    0.85430380271689
C         3.11750601628393   -0.70368174107046    1.57811333282113
C         1.48762665063827   -3.54189451030307    0.23650418459981
C         0.15216023583145   -3.73022094063619    0.28441589959271
C        -0.63623969731230   -3.44225360479250    1.46556962504367
C         2.26899977498331   -3.09090802390680    1.45262532179370
C        -0.01305110765002   -2.93053366608909    2.60099207521229
C         1.37775751898499   -2.66228656661322    2.58960027927101
C        -1.92432738131061   -1.43425075428124    2.99986405933897
C        -2.22981977401424   -0.03667954904106    3.12543802649129
C        -1.27442220504097    0.83808156403837    3.63614851387864
C        -0.68374089816771   -1.92125569785110    3.38933945782224
C         1.00416235297491    1.32760099802839    3.56459021453666
C         2.19877281753604    0.89364414323653    2.98325693666165
C         2.50014965902150   -0.49967993037354    2.86971907975612
C         1.58638992552585   -1.45881257973451    3.31394030133973
C         0.03376694375702    0.34210214550767    3.97902073959475
C         0.32190869321352   -1.01164340361149    3.86129959865757
H        -1.82646457979258    2.29794044449972   -4.84677072272186
H         0.38444237595527    3.06259711760288   -4.65906917838974
H         1.34395428048336    0.95276807931522   -5.37862253437545
H         3.05055993525530   -3.83177780664280   -1.22300393961213
H         1.64729521760953   -3.77433416822219   -3.00403486615175
H         3.08166589661220    0.94160508507301   -3.81280122742964
H        -3.04075264116242    2.91275259025402   -2.97759137405492
H         3.00552085631609   -3.84136827984923    1.77270015093857
74
 energy: -145.455869169312 gnorm: 0.001585403687 xtb: 6.4.1 (a3dbbd7)
C        -1.34552777345260    1.90942516188262   -3.94494013973994
C         0.17346556676532    2.23548420025722   -3.97569173404203
C         0.95621278128124    0.93014287789408   -4.35908534096930
C        -1.31927947295533    0.41839764227995   -3.89739684065422
C        -0.07819740782688   -0.12005148853458   -4.13884134987450
C        -2.18063690027151   -0.11864209218097   -2.92524652778279
C        -2.19425012773928    2.27531652541049   -2.69086403697672
C        -2.69821810504074    0.93082498356617   -2.16167404926066
C        -1.46716551230727    2.95380077871516   -1.55524449796312
C         0.69427898023609    2.53978031771099   -2.61510121539814
C        -0.06261148325046    3.17135280772596   -1.59389807849921
C         2.11904937982151    0.75730884387593   -3.31923980178269
C         1.81683917283671    1.81868356764592   -2.30493749773482
C         2.23023523691123   -0.57541889638979   -2.58312448104323
C         0.20853350441892   -1.35897467909094   -3.59605916893970
C         1.48211762820575   -1.64513314442503   -2.98598866843230
C        -1.95356309236067   -1.40848463459327   -2.38079636760430
C        -0.78194633467988   -2.05966474961142   -2.83866622434561
C        -2.46668522159385   -1.69705088686426   -1.07761733296772
C        -3.10075005789558    0.70905366189843   -0.83865329454178
C        -3.07909312375496   -0.63930021766511   -0.30234095668276
C        -2.08193686808732    2.89722285800580   -0.31126662651337
C        -2.98528272387791    1.81380898258127    0.04395666804017
C        -1.40508385074245    3.28578907605523    0.89159858083918
C         0.63015589211833    3.41078358805320   -0.39541238164767
C        -0.04924628807302    3.57369215792573    0.85347936107083
C         2.38706352242390    1.81952554968372   -1.01549672354674
C         1.88315419290749    2.78177927867122   -0.13149936545705
C         2.83771521001155   -0.60836763912063   -1.26052498799140
C         2.99349451505040    0.61153855602641   -0.50648184741016
C         2.80451588566149   -1.80939542550985   -0.53762739976096
C         1.36993190565131   -2.98841419919483   -2.29235517501801
C        -0.11732727445499   -3.01441732565215   -2.03809249378737
C         2.23211983604795   -3.12829347238485   -1.02156581826438
C        -1.88502144543877   -2.79018660098552   -0.39681296829731
C        -0.68324618961749   -3.40292868654578   -0.86567376196184
C        -1.87514377913646   -2.87866655229708    1.02944353601107
C        -3.12425831160844   -0.78738194971660    1.09931110164203
C        -2.51445763487587   -1.89496046090532    1.77023344699466
C        -2.89976878644516    1.61856410334030    1.44648339216825
C        -1.93561697125180    2.53817998963355    1.99859005202001
C        -3.01553950273848    0.34169681727884    1.98051342930972
C        -1.11647502988833    2.14353851400752    3.04580314209333
C         0.81326192027799    3.12916611286786    1.91235660900512
C         2.01634977431314    2.64686596092822    1.28921856545216
C         0.29564323523230    2.44391830096936    3.00654405831166
C         3.16873694322982    0.53764905348422    0.88434304312382
C         2.67395422623826    1.54475492718620    1.78885004401762
C         2.92720734391403   -1.85912365015687    0.85443521722271
C         3.11600960521018   -0.70317614458794    1.57784810565889
C         1.48752766449388   -3.54256552439394    0.23698020558711
C         0.15208767906849   -3.72846223191878    0.28449682065582
C        -0.63717123937239   -3.44259893420438    1.46552721604696
C         2.26891150989307   -3.09085623768702    1.45252233482087
C        -0.01327198507468   -2.93032814907261    2.60038322039307
C         1.37743044487789   -2.66131654675149    2.58784952927390
C        -1.92465937663245   -1.43481279455774    3.00009315417090
C        -2.22947192697513   -0.03730483197907    3.12540324516451
C        -1.27394526572689    0.83750434207405    3.63555366804925
C        -0.68381507482783   -1.92133731734480    3.38893941595016
C         1.00480027480925    1.32792440080486    3.56482224377043
C         2.19945731067299    0.89407641061493    2.98358142908885
C         2.50072670844090   -0.49906476734995    2.86994342542915
C         1.58660389336165   -1.45920698479752    3.31308274584217
C         0.03430064571951    0.34172067865831    3.97886888480858
C         0.32195337101888   -1.01168665646851    3.86071062477363
H        -1.82668276523515    2.29806175293764   -4.84623370900333
H         0.38421382585244    3.06241060510015   -4.65952852584082
H         1.34444431304276    0.95320846071227   -5.37822971169741
H         3.05138719211281   -3.82952256146602   -1.22284814982300
H         1.64670838381853   -3.77560983804977   -3.00320183946019