74
 energy: -145.418723040270 gnorm: 0.147858298096 xtb: 6.4.1 (a3dbbd7)
C        -1.33469039144477    1.89039653338816   -3.95858210987111
C         0.18536785426824    2.21492524606409   -3.98335871369286
C         0.96908029733373    0.91131686039250   -4.36470536915086
C        -1.31552606778288    0.39880073543115   -3.91771872922199
C        -0.06840656341455   -0.13934784929669   -4.14862325506467
C        -2.17143330940875   -0.14338472426553   -2.94587791072653
C        -2.18411699573361    2.25358338722471   -2.70597319512726
C        -2.68566166996787    0.90769236625152   -2.17689629756794
C        -1.45750733192527    2.93547114914013   -1.57255428960587
C         0.70841064515301    2.52341214674933   -2.62424822394586
C        -0.05136496097370    3.15686253202104   -1.60858291207486
C         2.14541557003939    0.75678598697607   -3.33657019425611
C         1.83990183896976    1.81351481911530   -2.31657674326968
C         2.27172145915568   -0.56487578881757   -2.58939761431746
C         0.20473367683968   -1.37656876738497   -3.61026282966258
C         1.48092842974682   -1.63898502066446   -2.96750772823763
C        -1.95652064702438   -1.44318305941201   -2.41337327418596
C        -0.79490525934615   -2.09539886834045   -2.88328426591388
C        -2.46581598125615   -1.73768328593754   -1.10112936931012
C        -3.08338775758130    0.68482903979581   -0.85619822565958
C        -3.05497996901895   -0.66712283656924   -0.31970221527315
C        -2.07364635607346    2.87801802577015   -0.33098930171806
C        -2.97698336451407    1.79317443206988    0.02384101584726
C        -1.39602639436799    3.26717084277333    0.87274125925520
C         0.63985858267122    3.40416185482186   -0.41141695297938
C        -0.04217218978453    3.56102939838406    0.83360715831370
C         2.41387577604608    1.81840497534192   -1.02570038107444
C         1.89834461400239    2.77947426948586   -0.14537071568209
C         2.90677711745297   -0.60005147959275   -1.29670817333496
C         3.04604942019907    0.62350923682353   -0.51362767300229
C         2.89560352165128   -1.81790696139014   -0.57969122985721
C         1.28319185033457   -2.76399751603761   -2.11084993499157
C        -0.12538720054272   -3.05312344334474   -2.06301846887854
C         2.04344710032208   -2.90391134432900   -0.96888575531794
C        -1.91449916108394   -2.84811569213935   -0.42331298038302
C        -0.70533565338750   -3.47839627816475   -0.88655387705182
C        -1.89196039538675   -2.92322895473164    1.00218161940998
C        -3.08837161846909   -0.80739907523309    1.07946648488901
C        -2.48091639170358   -1.91911382486826    1.74838404140897
C        -2.88467065896561    1.59973824418066    1.42528041998880
C        -1.92562298140147    2.51514380854813    1.97438285074771
C        -2.97666750450959    0.32024654330454    1.96059136605140
C        -1.09981852537311    2.10031473380448    3.01566224005612
C         0.82215939508646    3.10678821666859    1.88971672839327
C         2.02622459624369    2.64153103387069    1.27204156776291
C         0.30649239603003    2.40365633829783    2.97462279330136
C         3.20730130498290    0.54009622918424    0.87611817123704
C         2.67864196731406    1.53382147668017    1.77653222080364
C         2.98967722804512   -1.87298329713123    0.85081559756853
C         3.15561524557767   -0.71074840157955    1.57542528330852
C         1.47974183903981   -3.50407773294016    0.21249335103498
C         0.11882388848896   -3.79138146967835    0.25329577844411
C        -0.63973538899417   -3.47886002837760    1.43162491753238
C         2.10682705823772   -2.88835140356107    1.34865271189481
C        -0.01823119729867   -2.94929837670761    2.55953418074775
C         1.38678962034056   -2.64709901409050    2.51690026265078
C        -1.87740643597881   -1.46700984093103    2.96996102112282
C        -2.18683638507889   -0.04967783047758    3.09911430912159
C        -1.25635107512371    0.81525373317489    3.61747385625063
C        -0.66028011340835   -1.95678949482553    3.36249311612750
C         1.01509808360321    1.30322474274292    3.54222721895792
C         2.18774711026412    0.88998428018143    2.96148757556254
C         2.48924514998700   -0.52834508182385    2.83525511258888
C         1.60725537872652   -1.46946888906944    3.29461458926396
C         0.04888660778577    0.37633426271403    4.26099077603402
C         0.37540735429479   -1.14896652012186    4.12394865019590
H        -1.81100147209742    2.28515618481715   -4.85974331463201
H         0.39714769651673    3.04137452642104   -4.66764156870142
H         0.03079511276382    0.62289360139576    5.32840538926952
H         0.49437170937247   -1.56167180140305    5.13183095311451
H         1.34907882202603    0.93142050162242   -5.38730371196768
H         3.09987969576705    0.95283733441394   -3.84057200057692
H        -3.03206750308696    2.88814436381371   -2.99231455359234
H         0.38726351696720    3.14944737145687    3.77915480688573
74
 energy: -145.444480516304 gnorm: 0.078378669225 xtb: 6.4.1 (a3dbbd7)
C        -1.33553936709206    1.89001834008692   -3.96052065731434
C         0.18436473396508    2.21382154788385   -3.98727524343761
C         0.96837790183694    0.91027875748255   -4.36746036237642
C        -1.31622076139033    0.39771549655403   -3.92024571607284
C        -0.06932464942867   -0.13993810387320   -4.14996513595747
C        -2.16977087762510   -0.14296314814309   -2.94580796881125
C        -2.18545666035367    2.25390950865967   -2.70769233783017
C        -2.68858360509607    0.90708038192951   -2.17836816331922
C        -1.45727155558670    2.93369440221579   -1.57582772278054
C         0.70838759940675    2.52187901962467   -2.62986307989228
C        -0.05139775995194    3.15511897848840   -1.61551488203248
C         2.14572948842641    0.75547720482595   -3.34093654728742
C         1.84101090113504    1.81272697203442   -2.32321107578316
C         2.27201078385836   -0.56510348247017   -2.59163605864769
C         0.20532743805656   -1.37817387443155   -3.61352960973289
C         1.47972212336092   -1.63847030764006   -2.96865559092365
C        -1.95402634649695   -1.44270023921594   -2.41368712301545
C        -0.79303616510746   -2.09525010906814   -2.88432639544769
C        -2.46403353341123   -1.73852123851135   -1.10225699975329
C        -3.08495883935588    0.68374588749481   -0.85885603825487
C        -3.05458250345118   -0.66881840982203   -0.32131753397933
C        -2.07187885490950    2.87265547890637   -0.33031342171561
C        -2.98099354571055    1.79165447577356    0.02229496701686
C        -1.39405266686344    3.26337803623306    0.86955056006775
C         0.64475987656596    3.40527625541657   -0.42323505639791
C        -0.03550199559696    3.55867453217408    0.82379835693497
C         2.41745423649829    1.81805010368338   -1.03438985648891
C         1.90217547104591    2.78158531826352   -0.15939625783547
C         2.90724845759637   -0.59943672065906   -1.29947748178736
C         3.04703577616978    0.62275839894076   -0.51962977608528
C         2.89558215455651   -1.81920660620182   -0.58051333427974
C         1.28267011372650   -2.76407253368064   -2.11097274847141
C        -0.12393515541309   -3.05394904049863   -2.06378227180234
C         2.04407174821786   -2.90343867248660   -0.96869644909124
C        -1.91377715300429   -2.85038735651658   -0.42484211222375
C        -0.70497385553433   -3.47983790116676   -0.88713810160892
C        -1.89274862571751   -2.92607242228512    1.00073709604086
C        -3.09074093862465   -0.81229064561260    1.07729461391687
C        -2.48357027876769   -1.92390587243964    1.74640952140255
C        -2.88838043379235    1.59329341406179    1.42092105800788
C        -1.92313571633628    2.50069718244027    1.96764123190100
C        -2.98197822993605    0.31378332888650    1.95970042542254
C        -1.10869121356933    2.08737123962935    3.01122379470524
C         0.83583080458417    3.13517687574096    1.87550128677861
C         2.02151960199249    2.63966616337018    1.25830127780448
C         0.31812399301455    2.48639050944103    3.06269925497752
C         3.20336881297794    0.53972629175962    0.87504002155859
C         2.67311834263383    1.53015857079095    1.76822302015291
C         2.98742697748381   -1.87415316391184    0.85045528623772
C         3.15198186778603   -0.71256300506580    1.57548090704883
C         1.48010067187883   -3.50484626619377    0.21267803870609
C         0.11896886755549   -3.79217018185551    0.25274955390715
C        -0.64009261383704   -3.48004905798038    1.43082294263399
C         2.10655263307385   -2.89067023015443    1.34883725678861
C        -0.01925979146529   -2.95199553234103    2.55930957273936
C         1.38611706013384   -2.65171675724863    2.51792471886859
C        -1.87987990587809   -1.47097643900526    2.96795858495635
C        -2.19207226267478   -0.05554506875570    3.09440250082175
C        -1.25646535970597    0.81106066520673    3.61174873838518
C        -0.66199515226330   -1.95947994248745    3.36159063688539
C         1.02114832756648    1.28590826779691    3.54705385702406
C         2.17719813831561    0.87641711177659    2.95555907695006
C         2.49093737087095   -0.53762143682071    2.83767611295531
C         1.60811716152609   -1.47816856058817    3.29825185599388
C         0.04754622420330    0.37048070406769    4.26218766009353
C         0.37514213846931   -1.15529759080559    4.12477992477401
H        -1.81225052656590    2.28588319375283   -4.86097295146050
H         0.39698801011742    3.04129654871893   -4.67010242319508
H         0.03272998198211    0.61283146997742    5.33162260218990
H         0.49201618937518   -1.56480908821571    5.13374824252225
H         1.34843888213245    0.93057682085541   -5.38994748362841
H         3.10041990368436    0.95208754532227   -3.84421516864310
H        -3.03258205335310    2.88951832287923   -2.99418025875708
H         0.39831184822434    3.23419309508214    3.88063017421761
74
 energy: -145.454774557768 gnorm: 0.021893497132 xtb: 6.4.1 (a3dbbd7)
C        -1.33588927100626    1.88813512014963   -3.96216873077276
C         0.18425417724150    2.21226351413198   -3.99118128782212
C         0.96679850231369    0.90813322341752   -4.37278862708646
C        -1.31770833949939    0.39580280602957   -3.92365307385254
C        -0.07113053079543   -0.14139032410655   -4.15352458722083
C        -2.17162852333125   -0.14560315513793   -2.94962222929366
C        -2.18090752573820    2.24866144006126   -2.70481040628466
C        -2.69247163726588    0.90246694522492   -2.18155280517443
C        -1.45491106809117    2.93312726657324   -1.57582956113500
C         0.70908594292006    2.52302885867640   -2.63508678708850
C        -0.04920700817711    3.15690715034001   -1.62012869737158
C         2.14345534501923    0.75361704915037   -3.34522499281335
C         1.84175136514791    1.81246521277045   -2.32872326871929
C         2.27028340354314   -0.56647830906233   -2.59464946988763
C         0.20443705026126   -1.37941011616429   -3.61681523030889
C         1.47924264001827   -1.63921365857937   -2.97121985812576
C        -1.95439258547758   -1.44479802519489   -2.41634082381796
C        -0.79248876086622   -2.09580910722834   -2.88683636565704
C        -2.46405962833004   -1.74143560933204   -1.10509512145471
C        -3.08710592916074    0.67981873363441   -0.86210144940856
C        -3.05756483244788   -0.67416472821762   -0.32411331220121
C        -2.06575037869349    2.87304717298415   -0.32872251405890
C        -2.97620278164643    1.78702787778791    0.01993058542273
C        -1.39312109824375    3.27005215703562    0.86944232953677
C         0.64564794960691    3.40118592292777   -0.42793412422003
C        -0.02906219805469    3.55340170161590    0.82661737511027
C         2.41690755464685    1.81610994494279   -1.04055850856725
C         1.90048772126369    2.77741131595982   -0.16587075481630
C         2.90681492796085   -0.60007994632378   -1.30112850695678
C         3.04572217635637    0.61897932583098   -0.52553735972068
C         2.89723727320072   -1.82316640202690   -0.58289640983017
C         1.28281260171126   -2.76557455955203   -2.11352146171157
C        -0.12157940386767   -3.05445444214028   -2.06595978165465
C         2.04539026629112   -2.90356533291148   -0.97047773354255
C        -1.91244096775469   -2.85414483854072   -0.42820993725461
C        -0.70411386890523   -3.48215793576324   -0.88967059072198
C        -1.89310014021977   -2.93159334254545    0.99757252611338
C        -3.09364592049128   -0.81959562293732    1.07428685026868
C        -2.48498591904936   -1.93117196158968    1.74334692728152
C        -2.87587713267991    1.58570995957176    1.41386650981183
C        -1.90775223198414    2.48945421060761    1.96256988976801
C        -2.97730005851288    0.30570337477676    1.95606389827221
C        -1.10200183758310    2.08078747513428    3.00563331897019
C         0.84013009919283    3.14892418821614    1.86935477836385
C         2.00820301541996    2.63591219351573    1.25442513742877
C         0.33175144186944    2.59075985379403    3.17282394534238
C         3.19286632408776    0.54070699939713    0.87428152656294
C         2.66746284052263    1.53037979724359    1.76151548658616
C         2.98584681373393   -1.87691968161955    0.84927019791091
C         3.14398803756163   -0.71431791393108    1.57370006581559
C         1.48067152974586   -3.50666574170649    0.21107838460132
C         0.11963697686948   -3.79488213414929    0.24994983813571
C        -0.64014236417119   -3.48468904240423    1.42787344191490
C         2.10663810830685   -2.89437582338438    1.34748969163146
C        -0.02050796781893   -2.95794390333494    2.55746208420901
C         1.38508781140745   -2.65816446107213    2.51816230768425
C        -1.88076817386187   -1.47588637724123    2.96449181482519
C        -2.18813898481205   -0.06015069353861    3.08428482245294
C        -1.23985392109176    0.81080676739576    3.59049088141980
C        -0.66345111998228   -1.96521068282749    3.35988299006205
C         1.02222643427207    1.28353166720681    3.55032869093174
C         2.15454862528604    0.87243423972583    2.94876208826749
C         2.47859362741906   -0.54073707781403    2.83109913900080
C         1.60294056565275   -1.48556086153229    3.29737130689780
C         0.05184015725038    0.36850043160569    4.26201443453908
C         0.37176872528617   -1.16122097753286    4.12495723839846
H        -1.81440206536742    2.28555458124198   -4.86114324553258
H         0.39545810734233    3.03940015173047   -4.67479096146098
H         0.02463181220269    0.61233132084570    5.33138000549557
H         0.48726931513283   -1.57065451359750    5.13393731923239
H         1.34670868720891    0.92782969266892   -5.39534740652725
H         3.09860421978074    0.94865177201055   -3.84819117672003
H        -3.02830620611210    2.88525594461475   -2.98815680405261
H         0.40964186817542    3.33032735456785    3.98991146984579
74
 energy: -145.455533027001 gnorm: 0.012862784269 xtb: 6.4.1 (a3dbbd7)
C        -1.33674788069765    1.88597283346193   -3.96097672756641
C         0.18322687121495    2.21155362578767   -3.99226120933389
C         0.96529427564089    0.90702185712293   -4.37397946845409
C        -1.31876141847491    0.39356319558836   -3.92559460851606
C        -0.07216393984925   -0.14352583515381   -4.15659895272546
C        -2.17348108548657   -0.14944372246970   -2.95328732805060
C        -2.17820687269860    2.24493844476301   -2.70149921928681
C        -2.69140399608226    0.89871084852914   -2.18260034867374
C        -1.45224333609669    2.93243060171129   -1.57384724671262
C         0.70946044894906    2.52501204244099   -2.63640554340122
C        -0.04657015657882    3.15941662075941   -1.61935923913367
C         2.14183877903251    0.75262510591253   -3.34620025185880
C         1.84142964010008    1.81295850384009   -2.32956495958399
C         2.26788963806049   -0.56782998004499   -2.59622565245968
C         0.20349559609863   -1.38143747741047   -3.61951717195390
C         1.47932670292663   -1.64138589135263   -2.97369193242323
C        -1.95582417918780   -1.44891133336583   -2.42019997814572
C        -0.79262946089335   -2.09870447365633   -2.89006795771549
C        -2.46447430364482   -1.74532316101530   -1.10851135553293
C        -3.08419713948556    0.67734393133136   -0.86299261685350
C        -3.05620158656444   -0.67762603450523   -0.32681482351634
C        -2.06165285486160    2.87654061157146   -0.32800196239460
C        -2.96776024294465    1.78469795431854    0.01918634457735
C        -1.39264646452716    3.27847839880910    0.87184863929047
C         0.64504593540375    3.40133507978226   -0.42409104542844
C        -0.02688589010359    3.55803057641065    0.83441806110728
C         2.41328366128782    1.81606180207592   -1.04001899168473
C         1.89820244406205    2.77614903908333   -0.16190582821406
C         2.90428905036963   -0.60095746968258   -1.30135313545962
C         3.04180720432267    0.61740718895556   -0.52621218138958
C         2.89673158009135   -1.82487706139020   -0.58460203087675
C         1.28352748077183   -2.76824301632197   -2.11649736111158
C        -0.12062818078659   -3.05671320620174   -2.06856819229826
C         2.04558697381178   -2.90516131649307   -0.97262643475671
C        -1.91182178287473   -2.85773843829547   -0.43108466955191
C        -0.70339323409059   -3.48544732136973   -0.89251630167797
C        -1.89299677758170   -2.93557241191288    0.99498544781080
C        -3.09064837107366   -0.82201829618794    1.07145260692450
C        -2.48365242236006   -1.93410832564406    1.74092618331937
C        -2.86103170596894    1.58457842411269    1.41076926884640
C        -1.90000086231445    2.49527889311967    1.96512679756794
C        -2.96617477581983    0.30431892437084    1.95156553970136
C        -1.09446869661810    2.09252528955682    3.01454838702756
C         0.83887391667620    3.15142627188330    1.87841495504126
C         2.00542677564438    2.63882179430879    1.26054575726076
C         0.33364674672299    2.60304338277863    3.18703290850315
C         3.18622651197738    0.54147154158019    0.87352363895329
C         2.66562817280233    1.53237747382104    1.76258609448987
C         2.98294279484593   -1.87728895529316    0.84806947474613
C         3.13605984431162   -0.71340370103573    1.57180136736083
C         1.48068238879012   -3.50892428571680    0.20912690921728
C         0.12001512911052   -3.79841644210152    0.24753760200650
C        -0.64005139027740   -3.48877608187867    1.42575326965537
C         2.10549413267208   -2.89601108706104    1.34596892224686
C        -0.02114097033660   -2.96146778271588    2.55616906008773
C         1.38408731198739   -2.66033545436919    2.51747557917552
C        -1.87844413560179   -1.47631888695466    2.96101256591086
C        -2.18004157809062   -0.05883424327109    3.07956362669483
C        -1.23152598470727    0.81544869578459    3.58508817965984
C        -0.66315821388817   -1.96702407683850    3.35808183445916
C         1.02425913887360    1.29923182352843    3.56485054635342
C         2.14948367778844    0.87901570378657    2.95216491946973
C         2.46722730459968   -0.53707438370749    2.82625472629327
C         1.59882368058722   -1.48577159795224    3.29562899161415
C         0.05317014303494    0.37189674739712    4.26568480821804
C         0.36936735163266   -1.15963981181764    4.12379198823280
H        -1.81768873899787    2.28533711114998   -4.85778297226607
H         0.39189509211695    3.03694015930858   -4.67884782277089
H         0.01186301997036    0.60903938199059    5.33603453189900
H         0.48312710632899   -1.57173328469939    5.13207324250650
H         1.34495975178475    0.92673468239447   -5.39669731827831
H         3.09669269218811    0.94560390631473   -3.85071390463093
H        -3.02661415786707    2.88216731640138   -2.98095827806011
H         0.40981748098135    3.34395647411867    3.99965758178563
74
 energy: -145.455823403377 gnorm: 0.003886608782 xtb: 6.4.1 (a3dbbd7)
C        -1.33740981398426    1.88516083861230   -3.95881317667361
C         0.18246113545526    2.21192609142020   -3.99186488918297
C         0.96444228519855    0.90718356575218   -4.37264800244601
C        -1.31977094275384    0.39266536369805   -3.92597976980326
C        -0.07292758336075   -0.14431080128088   -4.15767353386608
C        -2.17625243500625   -0.15237219273818   -2.95640633528560
C        -2.17612314624316    2.24112261340003   -2.69786800872189
C        -2.69179342980494    0.89573666176440   -2.18290234288128
C        -1.45056177686139    2.93176767993263   -1.57171780873891
C         0.71011167259441    2.52769691646259   -2.63673227117386
C        -0.04387310919702    3.16255634668491   -1.61874821332269
C         2.14084186191687    0.75175198057755   -3.34510502692285
C         1.84194285799260    1.81390565428829   -2.32931855992918
C         2.26582264380550   -0.56891852178002   -2.59618607376138
C         0.20229384198349   -1.38210286707829   -3.62004465573716
C         1.47961053426365   -1.64292191741648   -2.97435613189353
C        -1.95784074172306   -1.45162317479181   -2.42250894617757
C        -0.79282205670009   -2.09991686686200   -2.89115867351474
C        -2.46576584254605   -1.74798654289736   -1.11059043677954
C        -3.08386750880556    0.67558546576040   -0.86381293487166
C        -3.05623383187166   -0.68023485102053   -0.32862764955332
C        -2.06068223345457    2.88215346587941   -0.32879551084613
C        -2.96171863872191    1.78292153137919    0.01795147296417
C        -1.39479862334293    3.28755069051045    0.87266285077863
C         0.64435957069638    3.40028460199269   -0.42089876796518
C        -0.02568116444493    3.56094599304722    0.84118798311157
C         2.41144155628139    1.81653636257705   -1.03986165127167
C         1.89647330507920    2.77439172459749   -0.15906510630079
C         2.90361496056563   -0.60202850759779   -1.30057406464553
C         3.04071865299693    0.61565873396440   -0.52721177277059
C         2.89766831805829   -1.82700635550280   -0.58563570928049
C         1.28401726268746   -2.77027387899554   -2.11776313846763
C        -0.12001584294250   -3.05734987752342   -2.06883060801846
C         2.04603214127278   -2.90646291336469   -0.97343332102568
C        -1.91162739808872   -2.85961970131951   -0.43186259874991
C        -0.70310171168016   -3.48702272240245   -0.89309602013340
C        -1.89345326063293   -2.93836352240064    0.99434782052198
C        -3.08939888220934   -0.82436425671708    1.06929542582205
C        -2.48395034459729   -1.93651301934288    1.74024825701875
C        -2.84870075706036    1.58314822755364    1.40626126828075
C        -1.89291068885694    2.49887511117317    1.96371960210624
C        -2.95749604298037    0.30288540109099    1.94695019033651
C        -1.08572910642489    2.09945823155954    3.01665243785547
C         0.83626378646421    3.14919702605235    1.88421231247800
C         2.00299472127844    2.63979775753975    1.26496561132061
C         0.33483920156109    2.61096301048075    3.19632856853630
C         3.18361189205193    0.54160488537708    0.87177628236055
C         2.66578175616339    1.53302324143697    1.76158983237789
C         2.98217856387193   -1.87827980352823    0.84736954491055
C         3.13074949053996   -0.71293407775318    1.56940046053300
C         1.48078684191297   -3.51063339503767    0.20855547014023
C         0.12020591852264   -3.80052554332688    0.24714712543906
C        -0.63996958069935   -3.49123286696896    1.42562642412744
C         2.10526643371487   -2.89727916684573    1.34518122456016
C        -0.02098613257112   -2.96353915774668    2.55630547427812
C         1.38427233495817   -2.66197663901292    2.51731746630606
C        -1.87699708280727   -1.47647765111350    2.95882225914642
C        -2.17474123201258   -0.05804991378777    3.07461428007508
C        -1.22427804479403    0.81834764920080    3.57536553526721
C        -0.66263842171283   -1.96725960487920    3.35739539187193
C         1.02545462069511    1.31032365223984    3.57344803400845
C         2.14320363607449    0.88260099690276    2.95050552434949
C         2.45844752062828   -0.53427110272069    2.82073873909259
C         1.59823144969508   -1.48618158310974    3.29457165453284
C         0.05237481939670    0.37289894383456    4.26621283803080
C         0.37011753651289   -1.15848701172776    4.12245403351152
H        -1.82037343688985    2.28655539865919   -4.85364633408311
H         0.38881504098585    3.03529204539030   -4.68144467654070
H        -0.00255085427233    0.60469797802626    5.33696080373153
H         0.48306550445859   -1.57149175971777    5.13070967473271
H         1.34466406098782    0.92761145901557   -5.39519435671467
H         3.09548876647183    0.94290371668975   -3.85071279373520
H        -3.02517180527931    2.87978800627796   -2.97321230399476
H         0.40842066767885    3.35395415958205    4.00349563653248
74
 energy: -145.455844072336 gnorm: 0.001805893850 xtb: 6.4.1 (a3dbbd7)
C        -1.33739650008028    1.88515057752278   -3.95814527147260
C         0.18251670627179    2.21184984978412   -3.99114534446154
C         0.96436688283692    0.90718567786126   -4.37235908093957
C        -1.31985356792776    0.39267397943677   -3.92583599448204
C        -0.07302004134856   -0.14434099561994   -4.15769570985594
C        -2.17667423119897   -0.15251810543822   -2.95676266950410
C        -2.17572895621344    2.24075562890624   -2.69715595216693
C        -2.69193668958887    0.89567048160784   -2.18271359350096
C        -1.45070910542913    2.93187992904886   -1.57094397888818
C         0.71004303142011    2.52807755527788   -2.63622878841213
C        -0.04341333548574    3.16322353288945   -1.61851857686989
C         2.14044979308510    0.75183712061663   -3.34447978851090
C         1.84211059326665    1.81407305108857   -2.32874345447889
C         2.26535819002636   -0.56870931792755   -2.59572059416402
C         0.20203853522888   -1.38195761680570   -3.61973691828392
C         1.47972899916036   -1.64279011196097   -2.97404438982428
C        -1.95813874665825   -1.45152571551093   -2.42242390938026
C        -0.79273854132982   -2.09956867768458   -2.89081040184346
C        -2.46602651414634   -1.74782595448401   -1.11054993230820
C        -3.08453479883880    0.67570101780641   -0.86391509416036
C        -3.05657553395779   -0.68026435248221   -0.32855699404414
C        -2.06170524958151    2.88385160078867   -0.32906676281292
C        -2.96197947603010    1.78288101208037    0.01788863711329
C        -1.39588089565724    3.28878724900439    0.87271878671618
C         0.64442753949739    3.40000916944884   -0.42061105013720
C        -0.02563133949336    3.56050856962712    0.84181839315814
C         2.41176341412943    1.81697617604878   -1.03989884262897
C         1.89668888343159    2.77443993160337   -0.15904599951409
C         2.90389178453251   -0.60193044489092   -1.30010505423824
C         3.04143570886267    0.61547414295673   -0.52719019497777
C         2.89810130602568   -1.82715910313997   -0.58548699175666
C         1.28405787327511   -2.77021259586191   -2.11753636409963
C        -0.11992824666118   -3.05696188663055   -2.06841551969181
C         2.04618070869858   -2.90629520294678   -0.97321111146466
C        -1.91161850515735   -2.85934640690298   -0.43161003611811
C        -0.70314986482822   -3.48673526145731   -0.89282714037803
C        -1.89361672293521   -2.93844706937807    0.99452307106088
C        -3.08965912475967   -0.82470562930338    1.06931391067065
C        -2.48439894783788   -1.93688913006902    1.74061696688828
C        -2.84802504495719    1.58265364553530    1.40539734938236
C        -1.89210830489890    2.49825195900899    1.96230873628058
C        -2.95726363782553    0.30239385611342    1.94666080863362
C        -1.08350636091181    2.09785970407642    3.01413100697528
C         0.83554247202174    3.14719988079360    1.88385441300463
C         2.00303427759634    2.63937826213366    1.26495325899000
C         0.33506145129085    2.61072371917264    3.19590472074492
C         3.18482015310605    0.54148737313141    0.87154358695543
C         2.66656860462947    1.53281222350163    1.76110555988899
C         2.98265229801086   -1.87847307781802    0.84762737138644
C         3.13107542253915   -0.71297217186188    1.56930099799415
C         1.48079532046365   -3.51046038268087    0.20876932764264
C         0.12020030680563   -3.80030026546979    0.24738447941436
C        -0.64003398155994   -3.49125223806724    1.42584276333752
C         2.10524200208958   -2.89720295974922    1.34537971561432
C        -0.02106100035978   -2.96367171744723    2.55654137204852
C         1.38411412527444   -2.66206036341627    2.51739895130452
C        -1.87729980690257   -1.47699442617225    2.95916480960169
C        -2.17494795941750   -0.05855556937906    3.07431957937311
C        -1.22300426786442    0.81769953742461    3.57263072151331
C        -0.66289501517658   -1.96744869649157    3.35784989580947
C         1.02614145746782    1.31070589366478    3.57312249296156
C         2.14239928254899    0.88225052647129    2.94902056302908
C         2.45770386803867   -0.53409444025486    2.81999093390403
C         1.59812325717943   -1.48606149488459    3.29448051966871
C         0.05237548714793    0.37284681999965    4.26563671220408
C         0.37016141494700   -1.15828198765667    4.12243081014383
H        -1.82036188154318    2.28697518571298   -4.85276357267671
H         0.38854089588831    3.03492950960737   -4.68104644767360
H        -0.00418160621280    0.60560007635900    5.33580263455128
H         0.48364861321628   -1.57088867773892    5.13080163416197
H         1.34475354579733    0.92790901034418   -5.39488506415965