74
 energy: -145.433864682425 gnorm: 0.135465277713 xtb: 6.4.1 (a3dbbd7)
C        -1.32403734361574    1.88625445254555   -3.92475816737996
C         0.18988604428911    2.24632528296339   -4.02564480517410
C         0.94604165894163    0.89375802280426   -4.27066934862108
C        -1.31760482434854    0.39082358137319   -3.88485078298871
C        -0.08856736586755   -0.17326761416616   -4.14831660538559
C        -2.17447046186770   -0.14706511059152   -2.91987127677137
C        -2.16868516112793    2.24967589087121   -2.67635685439405
C        -2.68983850828097    0.91034059948542   -2.14964690720132
C        -1.41454451212565    2.90132275318603   -1.54807555753189
C         0.84454456649956    2.87367371763107   -2.77401570518263
C        -0.05232484297884    3.18897047001197   -1.59809784825992
C         1.80327969032496    0.69232889314418   -3.04570562650499
C         1.81582597498586    1.82297014333770   -2.28265421857538
C         2.19874125666001   -0.55229934675945   -2.50656237015981
C         0.20038735270972   -1.41077749462826   -3.61207834349913
C         1.59814067655709   -1.79631599309864   -3.17026752767524
C        -1.94974207215351   -1.43562312487015   -2.37915005783119
C        -0.77274702449863   -2.07784352998079   -2.83883022159012
C        -2.47183876018082   -1.73076992392490   -1.07243076958825
C        -3.08990597148625    0.68580305518524   -0.83731313546344
C        -3.07307614069530   -0.66702455213903   -0.29774826489270
C        -2.05950707156032    2.85596737419510   -0.30153113610898
C        -2.97084694522948    1.79342313072210    0.04839917815763
C        -1.40295732810055    3.26525412467542    0.89491377938588
C         0.63162353130091    3.43837835132880   -0.40014853949383
C        -0.04582803222592    3.55790505216064    0.84360777901290
C         2.38211484863899    1.82418080982571   -0.99842183395230
C         1.91741478904397    2.82313647580984   -0.11668288677882
C         2.82037332049043   -0.59188637341394   -1.26905894324761
C         2.96491489432578    0.61059458489098   -0.49924131217699
C         3.14256217033067   -1.94463539076599   -0.62129648138313
C         1.29995499662448   -2.81019800476002   -2.09849187263161
C        -0.10500871991639   -3.03175247204731   -2.01291626687291
C         2.04532238133652   -2.92975421868332   -0.96356708671249
C        -1.92502235148274   -2.83945893923607   -0.39007978820206
C        -0.70869642085489   -3.46212381430872   -0.84822378428728
C        -1.91705591762000   -2.92066896289410    1.03199103000562
C        -3.12503493172549   -0.80853672144545    1.10063031305739
C        -2.52315387774310   -1.91984244342304    1.77272792195632
C        -2.89788552606002    1.60182752489594    1.45455404233917
C        -1.93500399378153    2.52551917993110    2.00503941567348
C        -3.00932777132277    0.32612027403506    1.98388463751870
C        -1.10596120456678    2.12565479490205    3.04185695320374
C         0.82124646957884    3.11201028346946    1.90400118679873
C         2.03733104814547    2.65341129438920    1.27659578157749
C         0.30451704553165    2.42606807667557    2.98797794496494
C         3.21782827138421    0.54687443459189    0.89231021683310
C         2.70388152171207    1.53043657426152    1.77366761398003
C         3.01689800526001   -1.89253909425729    0.88534408944296
C         3.16792001911472   -0.72677012987750    1.58752356773881
C         1.46025157424931   -3.46239887994001    0.22399127283495
C         0.10189391288349   -3.77592104822542    0.28277383343141
C        -0.65750051043997   -3.47850577310975    1.46539861825016
C         2.09333000965892   -2.86623916858382    1.36340595058188
C        -0.03114182702615   -2.96584009354024    2.58964718702757
C         1.37671737668720   -2.66221589105320    2.54444422583272
C        -1.91941877438951   -1.45730303213953    2.99574591162444
C        -2.21785591529351   -0.05646021774703    3.12057592719404
C        -1.25769674532142    0.81739731229428    3.62605033722493
C        -0.67898101936140   -1.94918417523374    3.38199823334163
C         1.01911282432141    1.29709263715631    3.54003854343078
C         2.20972164079051    0.87834962910826    2.96418241351697
C         2.49996263602222   -0.52375668675058    2.84187368485138
C         1.59452243745090   -1.46994661231848    3.30954173181282
C         0.04886694852606    0.31861543934334    3.96469274436216
C         0.33259725473792   -1.03894853720746    3.85468170567981
H        -1.82870470538579    2.26536428018834   -4.81832543080971
H         0.33200928751453    2.91713419022388   -4.87428782090396
H         1.52710630119466    0.88400375442454   -5.19467631064298
H         2.23965314253124   -2.16665123335946   -3.97469138248636
H         4.13981863380603   -2.26827891987376   -0.94198204094089
H         1.37415463871966    3.79504770518936   -3.04675785086301
H        -3.00465578709975    2.90413898839033   -2.95186308023690
H         3.63250113297219    1.98157275318908    2.15332767988867
74
 energy: -145.453910528950 gnorm: 0.072935920587 xtb: 6.4.1 (a3dbbd7)
C        -1.32394529074479    1.88495030696147   -3.92440590139464
C         0.19043938553128    2.24417109758101   -4.02452725858758
C         0.94656789089968    0.89199529129882   -4.27153247776178
C        -1.31788853861824    0.38952337396890   -3.88309910565808
C        -0.08910655198650   -0.17551980293533   -4.14799785049037
C        -2.17479895082634   -0.14830875620126   -2.91926959255410
C        -2.17294114716642    2.25035911921750   -2.67933176165777
C        -2.69204817483670    0.91022768044182   -2.14963015906705
C        -1.41714057148659    2.89770600920903   -1.55028467970550
C         0.84368122332570    2.87049688226047   -2.77155140472054
C        -0.05723190503775    3.18527714031682   -1.59899002633628
C         1.80425161621786    0.68857969995956   -3.04839699060354
C         1.81598655747533    1.82073567270296   -2.27908478792310
C         2.19294386797672   -0.55485651485866   -2.51144849768865
C         0.19777547543119   -1.41575143125725   -3.61713083717374
C         1.59573121438292   -1.79921586856980   -3.17474734546963
C        -1.94990570641017   -1.43659387022140   -2.37935262732610
C        -0.77369008023215   -2.07977956915210   -2.84074863174134
C        -2.47029220563158   -1.73103789400254   -1.07184029123038
C        -3.08958354530220    0.68635016170228   -0.83787141689716
C        -3.07027761632246   -0.66597968216912   -0.29734797496383
C        -2.06303623997678    2.85208496026178   -0.30184677315771
C        -2.97653070037468    1.79625134527596    0.04800224026001
C        -1.40794900578699    3.26754577691222    0.89447303363217
C         0.62559868336256    3.44574079872982   -0.40096274482640
C        -0.05389110075413    3.56540608680432    0.84132169325873
C         2.38194782180345    1.82038751420061   -1.00004174974846
C         1.90290323332021    2.82658021535327   -0.11514910533521
C         2.81609946945928   -0.59739983592974   -1.27312575012075
C         2.95724191102230    0.60222060496387   -0.50439974787694
C         3.14372800006910   -1.94961227274775   -0.62681839366110
C         1.29895227952970   -2.81299549647187   -2.10215387670862
C        -0.10600949160805   -3.03424206319670   -2.01515642033251
C         2.04546758423087   -2.93364761608175   -0.96854788715025
C        -1.92462504514911   -2.84026932110494   -0.38929082139251
C        -0.70815299061201   -3.46439130175877   -0.85023970005706
C        -1.91737836462773   -2.92219910597308    1.03144716821866
C        -3.12338181014816   -0.80800013073687    1.10099274035703
C        -2.52589227790094   -1.91998566686187    1.77389389227052
C        -2.90085003642680    1.60320287975666    1.45339271257320
C        -1.93677721805614    2.52611587920726    2.00400832499303
C        -3.01144291753658    0.32851084255106    1.98447613795005
C        -1.10847656962911    2.12498711371425    3.04368309315195
C         0.81207782959441    3.11551032956515    1.90113165402544
C         2.02842346702698    2.67791086306093    1.27368545028900
C         0.29856648659344    2.42338444183588    2.98840952404446
C         3.22828659616965    0.52899764422886    0.88453273069659
C         2.78718044889959    1.57388554487662    1.81278520045281
C         3.01890373772738   -1.90183259170478    0.88008429025689
C         3.16151666956520   -0.72507636518519    1.58031997992121
C         1.45973117428797   -3.46363755151604    0.21980960085774
C         0.10268656710490   -3.77597452938635    0.27942487953335
C        -0.65881509067245   -3.47747453274279    1.46355275812180
C         2.09361838015961   -2.86486810119590    1.35904700409853
C        -0.03243796162271   -2.96546761801800    2.58832398358386
C         1.37516410635087   -2.66276829131036    2.54429926513300
C        -1.92286097386480   -1.45803377616493    2.99383016630807
C        -2.22127137911821   -0.05497349238498    3.11949677284386
C        -1.26238665104332    0.81748443657465    3.62869298507855
C        -0.68245442114888   -1.95103400990108    3.38226075909861
C         1.00728666922525    1.29028588482346    3.54239323077462
C         2.19838159813977    0.86906935118184    2.97565178478193
C         2.48847561832469   -0.52199474735997    2.83770995503619
C         1.58691385037764   -1.47308011001915    3.30989438511248
C         0.04042059665078    0.31482353159449    3.97162061286950
C         0.32632739933132   -1.04364535601171    3.85967261308436
H        -1.82698226030360    2.26377195898307   -4.81901752874660
H         0.33287849576129    2.91609988825347   -4.87254409671419
H         1.52658653079345    0.88342809947571   -5.19641414635928
H         2.23999297468196   -2.16749325008607   -3.97768558584179
H         4.14173352448848   -2.27072193638620   -0.94891545979408
H         1.37307681112266    3.79246556888785   -3.04358944403147
H        -3.00744128549150    2.90559392971668   -2.95772070561259
H         3.72869025015716    2.02266690164708    2.19199614288097
74
 energy: -145.462636405215 gnorm: 0.021798871050 xtb: 6.4.1 (a3dbbd7)
C        -1.32465323398132    1.88351140748621   -3.92492269072987
C         0.19003745297392    2.24297745221927   -4.02228570025415
C         0.94671853124425    0.89159618248404   -4.27056637996576
C        -1.31791603778437    0.38860061156545   -3.88236080701485
C        -0.08915753853117   -0.17658884079437   -4.14784083151134
C        -2.17538155854873   -0.14968059594804   -2.92007692042050
C        -2.17606594882274    2.24923611641729   -2.68113204644888
C        -2.69613820124491    0.90893363523902   -2.15105436464351
C        -1.42291805684109    2.89726957895067   -1.55130280190861
C         0.84163521356009    2.86582151210370   -2.76663601736963
C        -0.06209585008739    3.18038765323264   -1.59671915524381
C         1.80370109562889    0.68454368193529   -3.04823120776617
C         1.81607125222380    1.81872896098377   -2.27138089680532
C         2.18490653181000   -0.55724195555908   -2.51242001269309
C         0.19615594711972   -1.41891514536111   -3.62120428664762
C         1.59429436185117   -1.80308657742347   -3.17864116056178
C        -1.95043905936613   -1.43752463964535   -2.38083354465044
C        -0.77505068502378   -2.08106248026740   -2.84352398817688
C        -2.47087524783683   -1.73238984572462   -1.07302009484947
C        -3.09246517495330    0.68447438719337   -0.83953708995236
C        -3.07168586155338   -0.66755076581628   -0.29860884483878
C        -2.06999060796789    2.84975073367501   -0.30296644984257
C        -2.98496364617324    1.79594130296092    0.04672660902828
C        -1.41453989836731    3.26700863632705    0.89328070781409
C         0.62013298891954    3.44206668309456   -0.39860743492637
C        -0.06109876410249    3.56468021243965    0.83973309091499
C         2.38590263082781    1.81749463431183   -1.00016222349902
C         1.89413277701610    2.81934367028271   -0.10407066591506
C         2.80637398878600   -0.60064726657078   -1.26987032869006
C         2.94716892358858    0.59696054631338   -0.50022943602119
C         3.13958485741443   -1.95370100161105   -0.63038571335289
C         1.29675160691854   -2.81759691562952   -2.10644119694661
C        -0.10841010941158   -3.03683858653479   -2.01837229684429
C         2.04361502088001   -2.93984663708125   -0.97316271015933
C        -1.92672235688764   -2.84186301996629   -0.39070602794405
C        -0.71000718180505   -3.46689651955513   -0.85340949559861
C        -1.91829295180598   -2.92401119057273    1.02931153374102
C        -3.12493769626128   -0.81028337856375    1.09953748020916
C        -2.52855097688222   -1.92085323432108    1.77335065496556
C        -2.90642458259440    1.60144016033068    1.45149761037770
C        -1.94176713691856    2.52526836524589    2.00119397668418
C        -3.01504518681134    0.32739767364961    1.98420015280696
C        -1.10917187498876    2.12371296994542    3.04035348381853
C         0.80958980976381    3.11081378782657    1.89633328855898
C         2.02187836377341    2.68403581402577    1.27109001907683
C         0.29562616061170    2.42396556271690    2.98633642711014
C         3.23192769042234    0.51713383031276    0.88209613462803
C         2.90161461621895    1.63211408925778    1.86446712943490
C         3.01708091775226   -1.90751791576725    0.87579870880070
C         3.14956808079924   -0.71454953861542    1.56967810794643
C         1.45644735759513   -3.46600959537673    0.21599769155017
C         0.10057203079359   -3.77717253657231    0.27579931687634
C        -0.66256670315518   -3.47825241011097    1.46141553020150
C         2.09076584194865   -2.86009989966936    1.35394330296499
C        -0.03496481917666   -2.96597639048745    2.58638898896251
C         1.37095655753500   -2.66098628652900    2.54282240238543
C        -1.92646606545831   -1.45994780484300    2.99174219573478
C        -2.22476614199105   -0.05510769448946    3.11742496853475
C        -1.26521132988347    0.81728525659934    3.62649724003951
C        -0.68610984150759   -1.95291390067156    3.38217830450394
C         1.00563993898806    1.28727161035102    3.53693060029227
C         2.19286117180183    0.86700175282809    2.97901717670884
C         2.47547150575873   -0.51170632893762    2.83024439996902
C         1.57943357430197   -1.47128325227200    3.30648442056566
C         0.03742795627699    0.31478369751943    3.96691393093787
C         0.32165967020972   -1.04510925134893    3.85806033372849
H        -1.82551330014174    2.26096292261943   -4.82143007896733
H         0.33353278157879    2.91658196312391   -4.86897142423976
H         1.52535861976110    0.88355796388727   -5.19640920166768
H         2.24103177249636   -2.17001980301505   -3.98028799214214
H         4.13834367005552   -2.26976635187873   -0.95610394942101
H         1.37104856454574    3.78820336582917   -3.03703844628678
H        -3.00934139006264    2.90403384596722   -2.96258281370877
H         3.84302710329581    2.07502769473204    2.23876801788430
74
 energy: -145.463212534367 gnorm: 0.014175522386 xtb: 6.4.1 (a3dbbd7)
C        -1.32488962645389    1.88256055084152   -3.92479303781340
C         0.19005043329414    2.24168625883860   -4.01983069482436
C         0.94626032990729    0.89054716494603   -4.26850911136992
C        -1.31896594736267    0.38775398865464   -3.88368545439925
C        -0.09004977744834   -0.17715307107320   -4.14809048151279
C        -2.17705524861169   -0.15040639261000   -2.92144653937030
C        -2.17750961804646    2.24784543725933   -2.68174887498342
C        -2.69875239385447    0.90772614443438   -2.15284863247061
C        -1.42526695442105    2.89559653188932   -1.55069483245875
C         0.84106595408610    2.86331932431816   -2.76380930760878
C        -0.06223170252082    3.17485818827485   -1.59350931569268
C         1.80267108564279    0.68352117247458   -3.04562366289903
C         1.81704793209346    1.81796523597612   -2.26897574496083
C         2.18321141606303   -0.55773252763423   -2.50870501272116
C         0.19520617986323   -1.41905939258431   -3.62094907699968
C         1.59324348273566   -1.80353065763949   -3.17759535711548
C        -1.95263542457085   -1.43870680228527   -2.38265914011536
C        -0.77728735768843   -2.08234623365267   -2.84513228245284
C        -2.47389709959510   -1.73373199021624   -1.07502732385620
C        -3.09653165386451    0.68309195995378   -0.84094528184064
C        -3.07549655868119   -0.66918224950203   -0.30052306287781
C        -2.07256190414776    2.84925212974005   -0.30378333114606
C        -2.98836102502308    1.79372144781450    0.04563059868492
C        -1.41593694453448    3.26363259577536    0.89254742095230
C         0.61976166427607    3.43217547926029   -0.39580547734179
C        -0.06057930343181    3.55795761182450    0.84072414077983
C         2.38944809206695    1.81843974352232   -0.99868275556193
C         1.90102445583413    2.81593283650360   -0.09780775020907
C         2.80455623766608   -0.59868892126112   -1.26545925493076
C         2.95366797316132    0.60048990243751   -0.49519765034328
C         3.13573865691608   -1.95290833035703   -0.63041683790333
C         1.29438548176877   -2.81961412187011   -2.10779657963460
C        -0.11086963553864   -3.03856672073206   -2.02024096581446
C         2.04092551967018   -2.94068188901606   -0.97388982937008
C        -1.92969194473359   -2.84325652066324   -0.39317640084054
C        -0.71314232907327   -3.46826523622727   -0.85508396408289
C        -1.92028374984097   -2.92475645709647    1.02756947014035
C        -3.12812089189420   -0.81167690499964    1.09768535626420
C        -2.52959222819202   -1.92164433445129    1.77114299720368
C        -2.90892813322538    1.59989132369879    1.45075699847982
C        -1.94485693694517    2.52449598646386    2.00066094062517
C        -3.01690956370571    0.32548509394982    1.98261383141645
C        -1.10891630652427    2.12393970287567    3.03745748766721
C         0.81407661100055    3.10855418764563    1.89736317377684
C         2.03029042767049    2.68101988232431    1.27534620072935
C         0.29665100727632    2.42714406523591    2.98694492758323
C         3.24208732466228    0.52603865014911    0.88650127298513
C         2.91728661527260    1.64017156868004    1.87247591861297
C         3.01403142776677   -1.90346986779562    0.87511795135346
C         3.15030794828674   -0.70981374679566    1.56857383345726
C         1.45399647438876   -3.46658651787386    0.21489740606607
C         0.09773752546056   -3.77849974752789    0.27466786122090
C        -0.66452770432298   -3.47939634741076    1.45988950516012
C         2.08755394548919   -2.85731442487060    1.35160389461052
C        -0.03598841170702   -2.96556029549985    2.58429262087516
C         1.36867438286494   -2.65828592355533    2.53935272622481
C        -1.92690120955992   -1.46022472370913    2.99036922149825
C        -2.22464250297366   -0.05594550971671    3.11549425758245
C        -1.26360236646390    0.81703767153179    3.62179196770709
C        -0.68653512976424   -1.95223425893755    3.38009621115298
C         1.01293819040619    1.29132911260136    3.53630209947765
C         2.20411599270853    0.87588192468847    2.98195001390115
C         2.47755569086192   -0.50645435222628    2.82923067280006
C         1.57954335279989   -1.46652894354294    3.30145237853809
C         0.04097243831623    0.31720121480006    3.95944501313776
C         0.32262343313342   -1.04241467651367    3.85252472838899
H        -1.82423920052657    2.26059654623711   -4.82184308904348
H         0.33482657708830    2.91656525038460   -4.86504578049805
H         1.52551666784284    0.88250376695717   -5.19390427679369
H         2.24003148369715   -2.16988341446627   -3.97949003490010
H         4.13341701377862   -2.26891198598821   -0.95938798448525
H         1.36901650933316    3.78689773815742   -3.03215069947079
H        -3.01089735062694    2.90227898544202   -2.96445339068011
H         3.85348012084233    2.08524948219264    2.24835239146986
74
 energy: -145.463477007133 gnorm: 0.004422378375 xtb: 6.4.1 (a3dbbd7)
C        -1.32506881665087    1.88299645998320   -3.92518365367959
C         0.19015470088866    2.24150711389852   -4.01949407163825
C         0.94584054080993    0.89050202512406   -4.26796690055460
C        -1.31965199080965    0.38804804063974   -3.88502321917095
C        -0.09055102705168   -0.17670522328621   -4.14829698210412
C        -2.17737598347356   -0.14968766702344   -2.92150447335382
C        -2.17817980445604    2.24773342804798   -2.68228275859799
C        -2.69973284259028    0.90772863693862   -2.15375420114888
C        -1.42740851872196    2.89554311631106   -1.55031727670680
C         0.84062959710035    2.86214888128777   -2.76324881575669
C        -0.06164697100017    3.17043770400607   -1.59150356516997
C         1.80233078841682    0.68306508981419   -3.04535476950078
C         1.81870468195073    1.81814190980084   -2.26987983860020
C         2.18329898114538   -0.55790654499374   -2.50688719692321
C         0.19536445021097   -1.41754365540182   -3.61937056430623
C         1.59306869569847   -1.80370293587558   -3.17608617448467
C        -1.95328868930006   -1.43855995938660   -2.38300929654252
C        -0.77814771219785   -2.08236331732748   -2.84506233647984
C        -2.47536774694441   -1.73409569033585   -1.07567223355429
C        -3.09923956024479    0.68270168505487   -0.84108690709796
C        -3.07788884799385   -0.66989651501186   -0.30126733009830
C        -2.07414609602298    2.85000811623112   -0.30476689889969
C        -2.99119653570675    1.79190729348926    0.04528886147128
C        -1.41754435727951    3.26074592078278    0.89167761983052
C         0.61815852924364    3.42052159955498   -0.39409672495140
C        -0.06011653582269    3.54924816153481    0.84070250753065
C         2.39091467935844    1.81861666710503   -1.00005650018121
C         1.90769952043729    2.81013744536844   -0.09257410297695
C         2.80268147973067   -0.59780868918470   -1.26284319663285
C         2.95568659684628    0.60223458650724   -0.49077544720242
C         3.13277574976200   -1.95170266005495   -0.62924241533027
C         1.29327029300690   -2.82083408289064   -2.10794685333075
C        -0.11192623526664   -3.03935338619364   -2.02075503792347
C         2.03923167578285   -2.94105017708033   -0.97305842856418
C        -1.93120965054773   -2.84394635253291   -0.39463877109254
C        -0.71514172754218   -3.46887875734893   -0.85539780884600
C        -1.92150642639132   -2.92533902607434    1.02720910119365
C        -3.13044988796920   -0.81253798293836    1.09691706644658
C        -2.52984928558052   -1.92257524740400    1.76971025221333
C        -2.91128907580159    1.59894422515557    1.45077049553370
C        -1.94825785512029    2.52438010370912    2.00060293833087
C        -3.01832174872910    0.32381469518163    1.98171429227242
C        -1.10925692148988    2.12425375168145    3.03489892794502
C         0.81752574771422    3.10392340333766    1.89716836833732
C         2.03706371636857    2.67371661160431    1.27732293523407
C         0.29628514645894    2.43029768354551    2.98729427308342
C         3.24826516040800    0.53441129876167    0.88967811989470
C         2.93059458242410    1.64687217223628    1.87931876333637
C         3.01038623351431   -1.89986227983794    0.87537960975392
C         3.14881701529952   -0.70658732767807    1.56714545634102
C         1.45276479205557   -3.46771261528459    0.21497928804893
C         0.09572455771875   -3.78006998751749    0.27505829363200
C        -0.66559716005186   -3.48135592460270    1.45957036302982
C         2.08460564413217   -2.85595992891594    1.35081990548759
C        -0.03660704774566   -2.96640171727001    2.58402477578028
C         1.36645779972872   -2.65721840461393    2.53695361733011
C        -1.92667956110762   -1.46049525243584    2.99012185104578
C        -2.22429031658481   -0.05705839961763    3.11465471631260
C        -1.26180051953409    0.81654803088888    3.61725317168272
C        -0.68704574931759   -1.95270230599073    3.37931123019189
C         1.01832835954662    1.29297906695039    3.53342393757738
C         2.21222705283423    0.88330221753143    2.98149173504779
C         2.47764350604620   -0.50314126700368    2.82752287832270
C         1.57918712421032   -1.46282777970329    3.29709006221362
C         0.04406205100578    0.31834803352276    3.95275661476200
C         0.32344977093357   -1.04085867530205    3.84840867301603
H        -1.82349722578755    2.26188019075161   -4.82237433170292
H         0.33568011459641    2.91695210296490   -4.86400168129731
H         1.52553905693842    0.88198554103326   -5.19306141844829
H         2.23945877998520   -2.16905366687721   -3.97867297428411
H         4.12974829855218   -2.26815314322685   -0.96007874660191
H         1.36559654413020    3.78778789937500   -3.02993583441635
H        -3.01208788993509    2.90159645678156   -2.96521767879243
H         3.86048622589649    2.09490154818288    2.25761392384516
74
 energy: -145.463495332963 gnorm: 0.002022101123 xtb: 6.4.1 (a3dbbd7)
C        -1.32513125216685    1.88328366336186   -3.92542296876939
C         0.19024293760724    2.24160364572926   -4.01985217052211
C         0.94585873488335    0.89055816857712   -4.26825511847206
C        -1.31977527961615    0.38824693482891   -3.88531495374449
C        -0.09058478018043   -0.17652107750921   -4.14820867766311
C        -2.17708191607441   -0.14918735390801   -2.92105213132045
C        -2.17792559492239    2.24803685666587   -2.68227207778452
C        -2.69937243076383    0.90802137737933   -2.15367802888183
C        -1.42735407655548    2.89585978532800   -1.55031054005181
C         0.84108911511366    2.86273258118464   -2.76404704003487
C        -0.06100003766714    3.17058644524087   -1.59184023743294
C         1.80272707265530    0.68340840961871   -3.04585283232349
C         1.81964712452968    1.81890872423570   -2.27106720062288
C         2.18371774922052   -0.55761717876724   -2.50681591777241
C         0.19557625245075   -1.41699617181305   -3.61873530273458
C         1.59322573728549   -1.80340480390155   -3.17574420715727
C        -1.95300518960221   -1.43814870372854   -2.38253410404552
C        -0.77795183635455   -2.08196140406093   -2.84443702912732
C        -2.47517443384807   -1.73380634611734   -1.07532935135516
C        -3.09903920201236    0.68301601900134   -0.84068598144262
C        -3.07772079108232   -0.66962823151029   -0.30102492455937
C        -2.07377032206767    2.85047133080627   -0.30493870561005
C        -2.99130953368797    1.79178712162322    0.04544314822756
C        -1.41784498501289    3.26087551668364    0.89157488041691
C         0.61760333935531    3.41956204900963   -0.39443837921781
C        -0.06008394884405    3.54810484556779    0.84030879892142
C         2.39078459884783    1.81884442006414   -1.00110686179223
C         1.90819615561651    2.80917712571635   -0.09255252591771
C         2.80254499639442   -0.59793948104409   -1.26286673142749
C         2.95464363186478    0.60203085872969   -0.49039734697291
C         3.13261670734072   -1.95166944203186   -0.62896393196572
C         1.29346139531004   -2.82069300218242   -2.10778809144564
C        -0.11166837010815   -3.03901105836541   -2.02036637202538
C         2.03932336105362   -2.94119052400961   -0.97280223712794
C        -1.93088634537480   -2.84370943334411   -0.39448006049029
C        -0.71503095449799   -3.46850682543559   -0.85497285189929
C        -1.92130748669643   -2.92520089899401    1.02764305734588
C        -3.13026583019176   -0.81226897729141    1.09718803048299
C        -2.52942153961543   -1.92260000413354    1.76978258838063
C        -2.91134228056322    1.59911850568945    1.45092447201834
C        -1.94862822934066    2.52462917445525    2.00079176926015
C        -3.01816136109182    0.32377168170192    1.98172481365725
C        -1.10953080978130    2.12437380673068    3.03499827166304
C         0.81710146779302    3.10258309119150    1.89651948901862
C         2.03664216906710    2.67146381829957    1.27646241118371
C         0.29565164694619    2.43043694601244    2.98719454680682
C         3.24723273313643    0.53507409569386    0.88948765265895
C         2.93083979800072    1.64712300578392    1.87966943602695
C         3.01019655568148   -1.89952618034345    0.87551525377397
C         3.14811589596910   -0.70694407020597    1.56683172509002
C         1.45312784552338   -3.46801536857301    0.21518132896516
C         0.09577685527306   -3.78021642322394    0.27555799985085
C        -0.66522798818634   -3.48173494213845    1.45983547247968
C         2.08468262592798   -2.85652809497411    1.35114103100435
C        -0.03633340288708   -2.96693350180766    2.58461372981898
C         1.36657423709370   -2.65778581882340    2.53703536212702
C        -1.92624282015545   -1.46040614975583    2.99046160894039
C        -2.22413964640393   -0.05720694436763    3.11502259752624
C        -1.26170059311086    0.81650459005379    3.61718822726648
C        -0.68695068525195   -1.95321069950736    3.37967674121993
C         1.01789865631091    1.29200840433250    3.53253358653426
C         2.21113719729326    0.88308884205439    2.97998179204906
C         2.47709445958549   -0.50375923651875    2.82706819599121
C         1.57933705281754   -1.46301567848877    3.29719207902207
C         0.04405850114978    0.31794697878358    3.95269974891014
C         0.32361435379448   -1.04122208410359    3.84867665810906
H        -1.82379347458594    2.26248108582659   -4.82235292290020
H         0.33568674754801    2.91659743888176   -4.86474474799018
H         1.52530259187591    0.88191515346179   -5.19355992804900
H         2.23914879200901   -2.16880326607810   -3.97870352104229
H         4.12968843973997   -2.26836870160762   -0.95925440663980