62
 energy: -137.539699374688 gnorm: 0.000217620102 xtb: 6.4.1 (a3dbbd7)
C        -1.30327416405707   -0.00153357697831    3.50986412738078
C        -0.37255272334143   -1.18029810448549    3.29252995478378
C         0.98097184568245   -0.72119102753793    3.26877834400279
C         0.96416793625297    0.72178746908291    3.25908959755175
C        -0.38055620033661    1.17527600972192    3.29278880181838
C         2.34370561226656   -2.59034460580204    0.57450048803828
C         3.15229446084644   -1.41693634603487    0.57391048770929
C         2.90653428651290   -0.69568854114126    1.80193844429865
C         1.95792581970613   -1.41326477226603    2.57015776547977
C         1.69509333217564   -2.75933087183007    1.93323494174047
C         3.17279374289540    1.42121073068674    0.57921715919987
C         2.33099682798376    2.59336436303174    0.57811931972555
C         1.57171834933699    2.59115188284796    1.80235332144308
C         1.94197234832010    1.42512443750800    2.55061863004934
C         2.92390171859437    0.70349944120655    1.80158227518780
C        -0.36486632559921    3.45794669878416    0.57821091957119
C        -1.73881955277356    3.01170067974780    0.58145382420843
C        -1.98282840836544    2.30750203127917    1.80774631576305
C        -0.74658773733098    2.28348174057784    2.55650003314965
C         0.24535586671451    3.00552838148510    1.79687222047621
C        -3.40763029401497    0.73296871744450    0.56839161845132
C        -3.41201626721311   -0.70332150737317    0.56887953666347
C        -2.78835057816157   -1.13369205417734    1.80599107671119
C        -2.44402697299937    0.01194818517184    2.55614536287236
C        -2.78474396479033    1.16453629813625    1.80323543088554
C        -1.74190019676714   -2.97423254314784    0.59594661084209
C        -0.35517058340228   -3.41380763560943    0.60496074627276
C         0.23978428377901   -3.02348983061510    1.81347856732688
C        -0.73209227052321   -2.28158788622491    2.55515306439679
C        -1.98547707049150   -2.27821571694038    1.80402768185103
C        -0.24341122940398   -3.00670526688357   -1.80066458401315
C         0.74756412473234   -2.28023732319563   -2.56812174581679
C         1.97458735400821   -2.28210695611210   -1.82020025683592
C         1.74346372886993   -3.00127781768718   -0.59465243291514
C         0.36375406696258   -3.45589397659518   -0.60261429576809
C         2.79438536948082   -1.15805801771635   -1.82848580504199
C         2.41597691095520    0.00514634441774   -2.58675975127374
C         2.79162729124040    1.17269532428042   -1.82801425304497
C         3.39952039901720    0.72571826421812   -0.60048854400439
C         3.39809365883539   -0.71612129405627   -0.60426732599344
C         1.97204087352683    2.29346035158553   -1.82637633905138
C         0.74510874481068    2.29422064656101   -2.58445692072148
C        -0.24436922116417    3.01988626403131   -1.83113329110746
C         0.36641807025904    3.46168991730776   -0.60314995267782
C         1.73772401247422    3.01859180011667   -0.60222535713083
C        -1.56590270157066    2.58748264155989   -1.82740557094814
C        -1.94641633786399    1.42287673498836   -2.58605381798848
C        -2.94708823760878    0.70521685020680   -1.83426416027993
C        -3.18081856188861    1.42672178033965   -0.60911809947482
C        -2.32691140606861    2.59071140107357   -0.60640297698103
C        -2.95114382545826   -0.68241852755190   -1.83360939028178
C        -1.95120656001545   -1.40819290260454   -2.57858930093473
C        -1.57993295139231   -2.57052921554170   -1.81009553840110
C        -2.33502231691532   -2.56569054948815   -0.60312401077699
C        -3.18874817881524   -1.39991786739644   -0.60618131795949
C        -0.99338399224881   -0.71679581923086   -3.30488661939175
C        -0.99068163403534    0.72366882769771   -3.30952201482910
C         0.38165593333434    1.16826161629807   -3.31133387478609
C         1.22770706800844    0.00347144157886   -3.30727089691388
C         0.38142701287410   -1.16261122968077   -3.30011604989798
Cl       -1.88315206869708   -0.07368522302041    5.24026865832228
Cl        2.55371308522727   -4.07812956203736    2.87870370989290
