62
 energy: -137.473782856202 gnorm: 0.182440441992 xtb: 6.4.1 (a3dbbd7)
C        -1.23626340000000    0.00000000000000    3.32997640000000
C        -0.38202640000000   -1.17575640000000    3.32997640000000
C         1.00015810000000   -0.72665740000000    3.32997640000000
C         1.00015810000000    0.72665740000000    3.32997640000000
C        -0.38202640000000    1.17575640000000    3.32997640000000
C         2.34433560000000   -2.60145750000000    0.59464210000000
C         3.19857260000000   -1.42570110000000    0.59464210000000
C         2.96246730000000   -0.69904370000000    1.83090550000000
C         1.96230920000000   -1.42570110000000    2.59495830000000
C         1.58028280000000   -2.60145750000000    1.83090550000000
C         3.19857260000000    1.42570110000000    0.59464210000000
C         2.34433560000000    2.60145750000000    0.59464210000000
C         1.58028280000000    2.60145750000000    1.83090550000000
C         1.96230920000000    1.42570110000000    2.59495830000000
C         2.96246730000000    0.69904370000000    1.83090550000000
C        -0.36750900000000    3.48258920000000    0.59464210000000
C        -1.74969350000000    3.03349030000000    0.59464210000000
C        -1.98579880000000    2.30683290000000    1.83090550000000
C        -0.74953540000000    2.30683290000000    2.59495830000000
C         0.25062270000000    3.03349030000000    1.83090550000000
C        -3.42570570000000    0.72665740000000    0.59464210000000
C        -3.42570570000000   -0.72665740000000    0.59464210000000
C        -2.80757400000000   -1.17575640000000    1.83090550000000
C        -2.42554760000000    0.00000000000000    2.59495830000000
C        -2.80757400000000    1.17575640000000    1.83090550000000
C        -1.74969350000000   -3.03349030000000    0.59464210000000
C        -0.36750900000000   -3.48258920000000    0.59464210000000
C         0.25062270000000   -3.03349030000000    1.83090550000000
C        -0.74953540000000   -2.30683290000000    2.59495830000000
C        -1.98579880000000   -2.30683290000000    1.83090550000000
C        -0.25062270000000   -3.03349030000000   -1.83090550000000
C         0.74953540000000   -2.30683290000000   -2.59495830000000
C         1.98579880000000   -2.30683290000000   -1.83090550000000
C         1.74969350000000   -3.03349030000000   -0.59464210000000
C         0.36750900000000   -3.48258920000000   -0.59464210000000
C         2.80757400000000   -1.17575640000000   -1.83090550000000
C         2.42554760000000    0.00000000000000   -2.59495830000000
C         2.80757400000000    1.17575640000000   -1.83090550000000
C         3.42570570000000    0.72665740000000   -0.59464210000000
C         3.42570570000000   -0.72665740000000   -0.59464210000000
C         1.98579880000000    2.30683290000000   -1.83090550000000
C         0.74953540000000    2.30683290000000   -2.59495830000000
C        -0.25062270000000    3.03349030000000   -1.83090550000000
C         0.36750900000000    3.48258920000000   -0.59464210000000
C         1.74969350000000    3.03349030000000   -0.59464210000000
C        -1.58028280000000    2.60145750000000   -1.83090550000000
C        -1.96230920000000    1.42570110000000   -2.59495830000000
C        -2.96246730000000    0.69904370000000   -1.83090550000000
C        -3.19857260000000    1.42570110000000   -0.59464210000000
C        -2.34433560000000    2.60145750000000   -0.59464210000000
C        -2.96246730000000   -0.69904370000000   -1.83090550000000
C        -1.96230920000000   -1.42570110000000   -2.59495830000000
C        -1.58028280000000   -2.60145750000000   -1.83090550000000
C        -2.34433560000000   -2.60145750000000   -0.59464210000000
C        -3.19857260000000   -1.42570110000000   -0.59464210000000
C        -1.00015810000000   -0.72665740000000   -3.32997640000000
C        -1.00015810000000    0.72665740000000   -3.32997640000000
C         0.38202640000000    1.17575640000000   -3.32997640000000
C         1.23626340000000    0.00000000000000   -3.32997640000000
C         0.38202640000000   -1.17575640000000   -3.32997640000000
Cl       -1.84886636902500    0.00000000000000    5.03315507598844
Cl        2.40176797139486   -3.91845929598863    2.76190946483640
62
 energy: -137.515983088459 gnorm: 0.105657336126 xtb: 6.4.1 (a3dbbd7)
C        -1.25420490346443    0.00236883310868    3.35383076539907
C        -0.36743154351043   -1.17960965977855    3.32271331797655
C         0.99824828209715   -0.71391012179923    3.30747216987457
C         0.99392621109493    0.73327674022514    3.31038033408303
C        -0.36884386288881    1.18605098702259    3.32806701018832
C         2.34542000965474   -2.60327678358337    0.56929754465693
C         3.17732856045329   -1.42336555475146    0.58172980991953
C         2.94598868424671   -0.69219521599650    1.81413714270617
C         1.95830771310137   -1.39849483719855    2.57282326922243
C         1.62428291026241   -2.64901682519524    1.85859566730164
C         3.18449736083350    1.42233845414104    0.58751867097570
C         2.33549319194164    2.59304177073511    0.58949584951117
C         1.57819667625738    2.59412552429279    1.82073946185681
C         1.95957534501542    1.42904438643150    2.58042393334611
C         2.94490406750329    0.70332873086125    1.81629280703834
C        -0.36335789206755    3.46685010337112    0.59385724968686
C        -1.73952616526437    3.01757108148103    0.59329237695953
C        -1.97549116725408    2.29821853647235    1.81931202634111
C        -0.74020774601123    2.29723244357850    2.58092584131899
C         0.25346561721174    3.02362392178256    1.82227745503142
C        -3.42205143017401    0.72566712587027    0.57638249802126
C        -3.42561011858332   -0.72000283449177    0.57457434370715
C        -2.80430354599080   -1.16167498072144    1.80241650139678
C        -2.44057812590804    0.00417215274090    2.54722681011006
C        -2.79782256297453    1.16898531656886    1.80403092593201
C        -1.75199900501812   -3.01041956608744    0.59754914754643
C        -0.36927331009563   -3.44558270615510    0.60280059105601
C         0.23356361350154   -3.03202997373692    1.83775251018582
C        -0.74547315860180   -2.29065167952917    2.57745695753802
C        -1.98889993984127   -2.29111633562915    1.81869518059781
C        -0.24905969281878   -3.01859989843699   -1.81586716153564
C         0.74634276791648   -2.29454246231651   -2.58118598999158
C         1.98038567154202   -2.29654997473080   -1.83097412200134
C         1.74230235000101   -3.01818141028681   -0.60372137362452
C         0.36133033181351   -3.46082238692864   -0.59262074597758
C         2.79867908384583   -1.16801594245797   -1.82882060994755
C         2.41540562765156    0.00201799134830   -2.58471499566013
C         2.79480796553792    1.17213314859762   -1.82426031632964
C         3.40914629726795    0.72397482971521   -0.59518962638734
C         3.41187957266577   -0.72319005566834   -0.60023590643283
C         1.97586278819040    2.29698441142814   -1.82251571416867
C         0.74473486378642    2.29709033870693   -2.58148958901137
C        -0.24834465125562    3.02172194554496   -1.82158163330147
C         0.36647963434434    3.46708096072032   -0.59123005194517
C         1.74155943556631    3.02117732897569   -0.59270081621795
C        -1.57264118180093    2.58997855072262   -1.82169582393654
C        -1.95261837720629    1.42065243596399   -2.58338665572238
C        -2.95112226509348    0.69760618503480   -1.82768599258404
C        -3.18878898888540    1.42259405401283   -0.60046354127565
C        -2.33277262016457    2.59023997046254   -0.59365800793642
C        -2.95306252193046   -0.69338675612409   -1.82860244382804
C        -1.95488604779939   -1.41840892491843   -2.58234703504013
C        -1.57885651456264   -2.58676598854026   -1.81817330913347
C        -2.34096075024117   -2.58695943998864   -0.59530854579084
C        -3.19443375156184   -1.41826782716168   -0.60218947001534
C        -0.99626348113082   -0.72240103285778   -3.31214640925456
C        -0.99588140161988    0.72359786293585   -3.31390857467175
C         0.37980647243853    1.17075158189154   -3.31308021392316
C         1.22937469059728    0.00141659955643   -3.31351179430471
C         0.37996185631364   -1.16921499323150   -3.31205743751524
Cl       -1.86920653116032   -0.03273959294576    5.10085935038002
Cl        2.47561720459580   -3.98397983904200    2.81746092842426
62
 energy: -137.535266317088 gnorm: 0.052092133848 xtb: 6.4.1 (a3dbbd7)
C        -1.29138457349763    0.00441060129373    3.46149931560897
C        -0.35641482029553   -1.18014780597276    3.27411583378373
C         0.98784422759562   -0.70688548857867    3.27000830906895
C         0.98180150077715    0.73425683262398    3.27305662987707
C        -0.35555722632221    1.18624788859709    3.28091725143037
C         2.33125786787267   -2.56675801654890    0.55351251376654
C         3.15409450218175   -1.40820130403917    0.57188414144504
C         2.91556056896530   -0.68524944287029    1.80091778794520
C         1.95118234404344   -1.38227516291011    2.55399951230618
C         1.67835571865798   -2.73553427098237    1.91609795336660
C         3.17446055313911    1.42162996615185    0.58341179872508
C         2.32937745757121    2.58745818847169    0.58325826827105
C         1.57734887315989    2.59049767353379    1.80818104898482
C         1.95859934915218    1.43431438382127    2.56208394770409
C         2.93395104358526    0.71176748717506    1.80895318582906
C        -0.36055010138002    3.45628872750798    0.58485876992867
C        -1.73166729237211    3.00400032449628    0.58790874526124
C        -1.97127787907402    2.29820630164480    1.80711115143289
C        -0.73341452284137    2.28595409450930    2.54776018451253
C         0.25463494445493    3.01655106930759    1.80296221530475
C        -3.41230252074353    0.72474113646479    0.56534846319878
C        -3.42017287121472   -0.71164143531509    0.56295382782304
C        -2.79372968411992   -1.14265342242483    1.78863341270551
C        -2.45315028179502    0.00838772991112    2.52779848638594
C        -2.77968091519770    1.15729108112296    1.78927155813185
C        -1.75421924732342   -2.98609423908788    0.59341068013942
C        -0.37012519882093   -3.41354866597842    0.59856416821576
C         0.21196237565209   -3.03169991340875    1.81555905440242
C        -0.73850975876556   -2.27613119975743    2.53595003245448
C        -1.99557336099229   -2.28231638378018    1.79896036962126
C        -0.24518869191349   -3.00631796736594   -1.80170304518418
C         0.74578036556509   -2.28187949005692   -2.56818646155527
C         1.97523636455937   -2.28364280368519   -1.82850388186704
C         1.73281697712758   -2.98576344925515   -0.60350472184197
C         0.35786580455194   -3.44692215607873   -0.60035578328924
C         2.79182565183411   -1.15740891999859   -1.82527377563404
C         2.40937321346415    0.00379882112093   -2.57676718082338
C         2.78523264284678    1.16885648700775   -1.81883883939897
C         3.39684227361410    0.72539406970683   -0.59528285255261
C         3.40055909193618   -0.71409266226435   -0.60563439540997
C         1.96730173297697    2.28686774076969   -1.81650032674010
C         0.74196712597836    2.28722809792899   -2.57281009454130
C        -0.24454300138714    3.01075152063208   -1.81911079863636
C         0.36656423275949    3.45405354263992   -0.59518163487590
C         1.73487408637229    3.01032507311355   -0.59395212059834
C        -1.56460500048070    2.57812367459726   -1.81586974563821
C        -1.94277545356564    1.41499278103187   -2.57429193391738
C        -2.94082666391488    0.69702060107825   -1.82569367815324
C        -3.17670395797755    1.41821944436672   -0.60407153395145
C        -2.32236549179806    2.58041297448202   -0.59736004670254
C        -2.94527126420416   -0.68739338439368   -1.82769034327973
C        -1.94854883984037   -1.41127064721099   -2.57255171921561
C        -1.57996524722149   -2.57325919830314   -1.80848257501481
C        -2.33969130020789   -2.57213507035284   -0.60371868098643
C        -3.18932323373875   -1.40775139450587   -0.60713780870802
C        -0.99230761041189   -0.71933143959799   -3.29816493988958
C        -0.99007535853573    0.71906244574738   -3.29970818122502
C         0.37979418241254    1.16433785984864   -3.30110594295430
C         1.22458688461607    0.00165753778824   -3.29902635818697
C         0.37946054261042   -1.16346581569082   -3.29582487402188
Cl       -1.89421679969936   -0.05699415278964    5.24697020887973
Cl        2.55652727198893   -4.08480015127734    2.89144998910765
62
 energy: -137.538270725290 gnorm: 0.026896093255 xtb: 6.4.1 (a3dbbd7)
C        -1.29376890484289    0.00027599440924    3.47191941842847
C        -0.36434606617401   -1.18240102374625    3.29381932751929
C         0.98582963720831   -0.71703030557588    3.27559124574346
C         0.97259489282707    0.72672697720402    3.27038199916808
C        -0.37007605209867    1.18192321149331    3.29796801286826
C         2.34369617967088   -2.58779641429588    0.56676685192909
C         3.15567641378927   -1.41588927989375    0.57313752915071
C         2.91479177137594   -0.69256497678951    1.80161952591447
C         1.95812139828047   -1.40114376197783    2.56535092863912
C         1.68625076775893   -2.74112953159928    1.92023875487675
C         3.17319362104737    1.42134241752784    0.57951328442622
C         2.32953543964243    2.59075721777720    0.57956328831544
C         1.57337661794316    2.58981865951564    1.80498963723287
C         1.94880785060782    1.42808918713506    2.55646939580861
C         2.92803949866457    0.70618093676094    1.80359340104812
C        -0.36291694102880    3.45776612178694    0.58095280184187
C        -1.73507435063950    3.00737241403711    0.58376261534540
C        -1.97650310184009    2.30155215699197    1.80762065744969
C        -0.74207289257050    2.28507077770246    2.55662341641677
C         0.24856791184419    3.01057361266753    1.80084541525637
C        -3.41224586786975    0.73087599482486    0.56526339122937
C        -3.41897719272146   -0.70658324143993    0.56505794674759
C        -2.79276859237258   -1.13879246551688    1.79617231560387
C        -2.45054908506392    0.01023002715400    2.54492760886563
C        -2.78385881188462    1.16151309164673    1.79578203017053
C        -1.74637979419017   -2.97911811232505    0.59469064727626
C        -0.36196997108379   -3.41591571203779    0.60379348589601
C         0.22911876005945   -3.03377599129458    1.82318071755323
C        -0.73467557962225   -2.27994884138182    2.55136934530423
C        -1.98839844150994   -2.27743576425093    1.80379598395244
C        -0.24528737777059   -3.00387530652138   -1.80056444418146
C         0.74570338333104   -2.28068017571704   -2.56888672205119
C         1.97379847784402   -2.28347214637010   -1.82373994546161
C         1.74041929872162   -2.99871355512168   -0.59792898161454
C         0.36125175083159   -3.45008399807107   -0.59824079435231
C         2.79255195482139   -1.15818502279068   -1.82786381290164
C         2.41272297478087    0.00457423970125   -2.58360661611872
C         2.78834392662348    1.17140757504591   -1.82524507389392
C         3.39822964918876    0.72529437191019   -0.59972643305817
C         3.39911862986366   -0.71639973895397   -0.60567708143176
C         1.96969772640063    2.29145482642251   -1.82325365404165
C         0.74341377765108    2.29224273167534   -2.58068432939263
C        -0.24466490605669    3.01722502424990   -1.82707784156285
C         0.36612551129911    3.45926318159983   -0.60041505407857
C         1.73636393145901    3.01605753012916   -0.59962822762099
C        -1.56573535660630    2.58480524133657   -1.82401218869321
C        -1.94528307783217    1.42095024102834   -2.58325247827915
C        -2.94571447178501    0.70329390677621   -1.83361684189776
C        -3.17986531563629    1.42443888613254   -0.60912107580274
C        -2.32505855879692    2.58705202106450   -0.60372192893700
C        -2.95038685158268   -0.68330590830716   -1.83368397949076
C        -1.95086977899161   -1.40827948783115   -2.57737417687328
C        -1.58026639919793   -2.57002346137079   -1.81012312278567
C        -2.33777257993557   -2.56698194768255   -0.60273696991483
C        -3.19108157022421   -1.40268058155013   -0.60870086079272
C        -0.99324233155846   -0.71671787611210   -3.30354049555606
C        -0.99078145759727    0.72303997724096   -3.30753429953782
C         0.38071474767714    1.16759880018688   -3.30840632608606
C         1.22627401293533    0.00331365290798   -3.30561922065639
C         0.37980204248213   -1.16219039960455   -3.29953840475441
Cl       -1.89275769088229   -0.06879902638010    5.24483589559448
Cl        2.56411841570604   -4.08062624752178    2.88898904707200
62
 energy: -137.539195339078 gnorm: 0.016043608570 xtb: 6.4.1 (a3dbbd7)
C        -1.29930963247410   -0.00180389592796    3.49089533317645
C        -0.37044794393396   -1.18258344087365    3.29973210677099
C         0.98219546851393   -0.72208432354774    3.27309691498189
C         0.96487218574628    0.72199392472785    3.26280114324425
C        -0.37954573748307    1.17769534757244    3.30060827850661
C         2.34730222558434   -2.59585056859474    0.57427248168943
C         3.15342206100184   -1.41897865023553    0.57342100535399
C         2.90849271983926   -0.69642868841570    1.80096400035946
C         1.95940201443447   -1.41275939342204    2.57037123458129
C         1.69357491283168   -2.75144519250476    1.92744038173057
C         3.17171588095099    1.42095901396652    0.57789815356115
C         2.33012048151834    2.59300115367364    0.57739965333282
C         1.57125603763958    2.59021371542918    1.80221714122214
C         1.94185208317416    1.42455413059284    2.55085479412111
C         2.92261755918167    0.70302330714215    1.80008353712931
C        -0.36426681220313    3.45788248789852    0.57801084744770
C        -1.73747817972912    3.01035880312699    0.58090376183950
C        -1.98071029891899    2.30578232288374    1.80725299069483
C        -0.74670800552832    2.28352195000582    2.55785377546991
C         0.24534992942573    3.00628436299063    1.79778162101479
C        -3.40949884245248    0.73403763443415    0.56641272705556
C        -3.41491324468396   -0.70299728878218    0.56714719067012
C        -2.79002559184192   -1.13455337035085    1.80239643016681
C        -2.44700230239773    0.01250087165998    2.55453394795896
C        -2.78524615318771    1.16476654077608    1.80083236725325
C        -1.74082627053001   -2.97301007384922    0.59531381204070
C        -0.35585466037794   -3.41452491203148    0.60618118676347
C         0.23873240305498   -3.03085375244381    1.82205798606383
C        -0.73174813783250   -2.28215037281888    2.55784542870299
C        -1.98375963729068   -2.27475563654824    1.80472595312459
C        -0.24451821843091   -3.00361274822614   -1.79957647782480
C         0.74632249346662   -2.27940059274437   -2.56781829862864
C         1.97360460487339   -2.28254744823953   -1.82058661040607
C         1.74361342448860   -3.00310870718107   -0.59480476862409
C         0.36315518203484   -3.45299908325426   -0.59943612817768
C         2.79345129406447   -1.15828884391014   -1.82900077961092
C         2.41502575220465    0.00501924642158   -2.58709392640228
C         2.79071777360310    1.17256337389224   -1.82850661985175
C         3.39844600509798    0.72511798363622   -0.60141846937836
C         3.39745738357203   -0.71715377420940   -0.60503627609384
C         1.97164084552427    2.29364049573785   -1.82688348266668
C         0.74478625532389    2.29464099655685   -2.58481093416260
C        -0.24429610389077    3.02031006044961   -1.83146111122545
C         0.36637018757690    3.46180625963673   -0.60357759853533
C         1.73758738515944    3.01894763628991   -0.60288516440588
C        -1.56583153538733    2.58793975142781   -1.82798183282748
C        -1.94647541552721    1.42377933577876   -2.58714486187631
C        -2.94764521812555    0.70621041394743   -1.83628723509328
C        -3.18092126666150    1.42750613292128   -0.61075417242803
C        -2.32645370405417    2.59081646598177   -0.60710829854008
C        -2.95220676982726   -0.68152540290278   -1.83554170673480
C        -1.95168524030968   -1.40710035848148   -2.57932758154722
C        -1.57998477013798   -2.56856508228357   -1.81027733079475
C        -2.33554500286134   -2.56392900447141   -0.60254545618226
C        -3.19029521515046   -1.39944606530929   -0.60813140483683
C        -0.99352720228416   -0.71573706484401   -3.30543186912612
C        -0.99084611480554    0.72467712717835   -3.31055183319488
C         0.38142670390246    1.16895208207608   -3.31188603035555
C         1.22719429763438    0.00400164049621   -3.30804704365373
C         0.38047829599135   -1.16164145719355   -3.30035552296171
Cl       -1.89135086302909   -0.07858690495372    5.25032941191544
Cl        2.56964184630283   -4.08254176674633    2.88769776902832
62
 energy: -137.539552117223 gnorm: 0.008781857441 xtb: 6.4.1 (a3dbbd7)
C        -1.30294470619173   -0.00209669996926    3.50475656000217
C        -0.37360425458525   -1.18132775107826    3.29794430690670
C         0.98004422874219   -0.72281356414333    3.26966548672111
C         0.96191978784615    0.72055258150865    3.25806485529972
C        -0.38318442997630    1.17511622229006    3.29698166572605
C         2.34572077506742   -2.59521490667745    0.57670738500199
C         3.15152080070485   -1.41874457657311    0.57354547884759
C         2.90444666956763   -0.69711222763622    1.80087194857823
C         1.95815521645502   -1.41657871843905    2.57120583834956
C         1.69607032924117   -2.75771504106054    1.93203421692452
C         3.17166975273289    1.42087106867457    0.57817157308642
C         2.33089637504187    2.59390736470239    0.57717989683722
C         1.57090904354613    2.59096971570918    1.80138835613540
C         1.93963808986194    1.42371111437388    2.54881463425028
C         2.92118989848684    0.70227055774413    1.79962185345578
C        -0.36489432683154    3.45801960305531    0.57717471583242
C        -1.73884973975838    3.01244168627397    0.58011658440009
C        -1.98300446851363    2.30844265511079    1.80718859211379
C        -0.74798188969495    2.28302388185510    2.55693667094312
C         0.24451629465283    3.00459926951554    1.79628317764452
C        -3.40743381424058    0.73448434267524    0.56777962405151
C        -3.41167393559035   -0.70190605308292    0.56862086186390
C        -2.78812809239006   -1.13258053371237    1.80612671479865
C        -2.44373957146454    0.01343850260830    2.55775003772832
C        -2.78537618181535    1.16612152193580    1.80350088099577
C        -1.73932691884816   -2.97121914375670    0.59567200523556
C        -0.35347447167144   -3.41335306236453    0.60636352830837
C         0.24199504541591   -3.02652599491316    1.81755262481906
C        -0.73100481613803   -2.28291629532112    2.55867862014933
C        -1.98281806368479   -2.27526487756306    1.80437492887568
C        -0.24387145966279   -3.00520840435256   -1.79991372066701
C         0.74706207623122   -2.27947994219364   -2.56750253111103
C         1.97402502094950   -2.28212504566626   -1.81949543021153
C         1.74399757208457   -3.00315284873605   -0.59395720844697
C         0.36374457238572   -3.45543636728003   -0.60161320938951
C         2.79417559610922   -1.15833377935082   -1.82912849120905
C         2.41618663778872    0.00508647861190   -2.58797998543557
C         2.79192661594286    1.17276202089051   -1.82914683787987
C         3.39891852084372    0.72521083220720   -0.60131439389037
C         3.39714120524816   -0.71690588242651   -0.60435914285066
C         1.97255061982517    2.29406602583707   -1.82761993595692
C         0.74548297875784    2.29500938401959   -2.58572745344774
C        -0.24410467699506    3.02090424021526   -1.83248614016827
C         0.36663119942333    3.46256748385709   -0.60425082297368
C         1.73815717389054    3.01952251588205   -0.60346383889656
C        -1.56573532307493    2.58858115722011   -1.82879617221520
C        -1.94672653752509    1.42412356166409   -2.58758786649791
C        -2.94777075897889    0.70651786122357   -1.83578870007493
C        -3.18121102535329    1.42807098310426   -0.61034339844558
C        -2.32700384786970    2.59199202465149   -0.60771883458557
C        -2.95209070836078   -0.68151095831063   -1.83497233837549
C        -1.95175677322667   -1.40737443473844   -2.57963996519209
C        -1.57983545614670   -2.56912146151348   -1.81030424421034
C        -2.33448195638580   -2.56379935866924   -0.60276182816612
C        -3.18906546424399   -1.39864288288297   -0.60688436431028
C        -0.99352416388925   -0.71606089165852   -3.30559235227404
C        -0.99071662489582    0.72460035533071   -3.31074438140822
C         0.38176504992748    1.16889555994750   -3.31250093454374
C         1.22763953475228    0.00379413754519   -3.30816211141813
C         0.38113081116256   -1.16210626001074   -3.30045653229868
Cl       -1.88838519886867   -0.08138245511794    5.25026401179346
Cl        2.56739376655664   -4.08212358703024    2.88394007169959
62
 energy: -137.539668035140 gnorm: 0.004116656101 xtb: 6.4.1 (a3dbbd7)
C        -1.30389087348738   -0.00166458352762    3.51023993472240
C        -0.37395987979661   -1.18017239309775    3.29400579762300
C         0.97989823822346   -0.72179207507687    3.26807388001895
C         0.96248798812216    0.72099110443892    3.25728485448195
C        -0.38272195032538    1.17443775300073    3.29315960705654
C         2.34347288104292   -2.59184886265830    0.57609710128910
C         3.15119577648667   -1.41746487664850    0.57373223058390
C         2.90426736961026   -0.69633614574465    1.80143056424070
C         1.95714343966631   -1.41557035684597    2.57043289667150
C         1.69555252259472   -2.75949175051549    1.93348292757145
C         3.17236067719947    1.42099255282416    0.57898443904626
C         2.33124635632951    2.59378459206897    0.57778263286828
C         1.57133603560217    2.59135517299433    1.80178195865119
C         1.94046580614757    1.42433922503267    2.54942568690054
C         2.92246800948523    0.70281699643940    1.80075695087361
C        -0.36501643787078    3.45810358061866    0.57759773649929
C        -1.73919897489444    3.01288536935185    0.58063974150111
C        -1.98345554582668    2.30878666060108    1.80740523723612
C        -0.74743330750677    2.28325985642731    2.55625288906737
C         0.24485906213703    3.00469603513943    1.79625053516330
C        -3.40693188067690    0.73366811073479    0.56849407794045
C        -3.41078996264469   -0.70240648919002    0.56915085310911
C        -2.78763748613729   -1.13260761526256    1.80704568978215
C        -2.44235220812073    0.01303956567205    2.55721728490906
C        -2.78501266792010    1.16573741085492    1.80392532050223
C        -1.74043967337901   -2.97245138107265    0.59588433212158
C        -0.35385035190584   -3.41322104846545    0.60562952921448
C         0.24148701338517   -3.02362418935694    1.81392889139815
C        -0.73152896743248   -2.28253457449842    2.55685820680189
C        -1.98407013486627   -2.27710096741597    1.80396151556617
C        -0.24353935046870   -3.00665824671082   -1.80055466633242
C         0.74750865489345   -2.28006341874135   -2.56780286231093
C         1.97442034479778   -2.28206096854297   -1.81960332842251
C         1.74353285300228   -3.00193652005640   -0.59422257361249
C         0.36373238399535   -3.45647657716747   -0.60289124335054
C         2.79443651398234   -1.15827488563411   -1.82875202683556
C         2.41633276164911    0.00505170203957   -2.58742134728745
C         2.79204648460761    1.17264369000113   -1.82852912844583
C         3.39939892684264    0.72546347789819   -0.60069515739326
C         3.39762128798060   -0.71638747574097   -0.60404249225340
C         1.97249670863757    2.29370051416886   -1.82694422248641
C         0.74547499175622    2.29451261023941   -2.58506922445903
C        -0.24418253146382    3.02034881216148   -1.83182677922162
C         0.36664746757346    3.46224962143464   -0.60367407766801
C         1.73808634749640    3.01898491602095   -0.60276980463044
C        -1.56574931056214    2.58805940940346   -1.82812914616077
C        -1.94655718635553    1.42341575695474   -2.58667431579628
C        -2.94731610946234    0.70579521567075   -1.83457687043244
C        -3.18111060997346    1.42743995821089   -0.60947945735767
C        -2.32704441340145    2.59158463973734   -0.60702384847129
C        -2.95144655528370   -0.68205429316630   -1.83388926085580
C        -1.95152008971819   -1.40796680710299   -2.57913363492752
C        -1.57988002794314   -2.57016439343341   -1.81025736057578
C        -2.33451237211405   -2.56493877567291   -0.60302307889741
C        -3.18846874853901   -1.39917471276701   -0.60607799955993
C        -0.99346147067775   -0.71664703613482   -3.30513906115181
C        -0.99064053421262    0.72397184457371   -3.30994612218238
C         0.38176844409190    1.16840468123023   -3.31181691156490
C         1.22774668219099    0.00343224743490   -3.30750766180341
C         0.38145526285121   -1.16265340336533   -3.30030959220193
Cl       -1.88522031926269   -0.07861847402232    5.24567824968133
Cl        2.56089424221821   -4.08004908173180    2.88025624438090
62
 energy: -137.539693756645 gnorm: 0.001809585524 xtb: 6.4.1 (a3dbbd7)
C        -1.30356196812412   -0.00140133293772    3.51045635986772
C        -0.37322353345267   -1.17990126754856    3.29208817039138
C         0.98052627875219   -0.72110656558066    3.26818021027785
C         0.96371473447786    0.72162517714424    3.25827750888820
C        -0.38132877774220    1.17476742795413    3.29196971248414