62
 energy: -137.518903203520 gnorm: 0.152906149221 xtb: 6.4.1 (a3dbbd7)
C        -1.29770965891222    0.00000000000000    3.53163224767276
C        -0.37107604425475   -1.17478800586359    3.31058196643012
C         0.97979757550459   -0.72157705231961    3.28110534952822
C         0.97979757550459    0.72157705231961    3.28110534952822
C        -0.37107604425475    1.17478800586360    3.31058196643013
C         2.33544184946295   -2.58264348698296    0.58346340581249
C         3.18207169571150   -1.41543014636129    0.58234433372313
C         2.94373959867916   -0.69404060100004    1.80708186552027
C         1.95046398470883   -1.41556779135961    2.56176558167067
C         1.57767488865866   -2.57871801508103    1.80912454278211
C         3.18207169571150    1.41543014636129    0.58234433372313
C         2.33544184946295    2.58264348698296    0.58346340581249
C         1.57767488865866    2.57871801508103    1.80912454278211
C         1.95046398470883    1.41556779135961    2.56176558167066
C         2.94373959867916    0.69404060100004    1.80708186552027
C        -0.36119281684147    3.44519252612879    0.58582996047390
C        -1.73469290191499    3.00153459982720    0.58916793337350
C        -1.97220713510261    2.29308475607878    1.81059639720294
C        -0.73400332666893    2.27691900303500    2.56853480078419
C         0.25309257506893    2.99789064535074    1.80898867763471
C        -3.39649784746455    0.71758744312072    0.57410478167568
C        -3.39649784746455   -0.71758744312072    0.57410478167568
C        -2.77168037603652   -1.14964415915414    1.80664876434809
C        -2.42168465399864    0.00000000000000    2.56054627302143
C        -2.77168037603652    1.14964415915414    1.80664876434809
C        -1.73469290191499   -3.00153459982719    0.58916793337351
C        -0.36119281684148   -3.44519252612879    0.58582996047390
C         0.25309257506893   -2.99789064535073    1.80898867763471
C        -0.73400332666892   -2.27691900303499    2.56853480078419
C        -1.97220713510261   -2.29308475607878    1.81059639720295
C        -0.24585893810850   -3.00970705822685   -1.82232538763502
C         0.74439012833927   -2.28841876480361   -2.57822875384061
C         1.97268106729833   -2.28861170675520   -1.82114897801170
C         1.74031203428013   -3.00832022201671   -0.59623578829480
C         0.36724813466371   -3.45114129717027   -0.59443426078026
C         2.79027372790168   -1.16551010025889   -1.82330670861298
C         2.41077011246349    0.00000000000000   -2.58030971859023
C         2.79027372790168    1.16551010025889   -1.82330670861298
C         3.40598095600767    0.72109250237888   -0.59875668403540
C         3.40598095600767   -0.72109250237888   -0.59875668403540
C         1.97268106729833    2.28861170675520   -1.82114897801170
C         0.74439012833927    2.28841876480360   -2.57822875384062
C        -0.24585893810850    3.00970705822685   -1.82232538763502
C         0.36724813466371    3.45114129717027   -0.59443426078026
C         1.74031203428013    3.00832022201671   -0.59623578829480
C        -1.56847069976934    2.58049680433801   -1.82122736601016
C        -1.94730857051169    1.41533687195356   -2.58360676406823
C        -2.94243160962768    0.69434475341889   -1.82977489504240
C        -3.17479380115303    1.41444285760430   -0.60326970185865
C        -2.32688654321742    2.58113588269429   -0.60086409487791
C        -2.94243160962768   -0.69434475341889   -1.82977489504240
C        -1.94730857051169   -1.41533687195356   -2.58360676406823
C        -1.56847069976934   -2.58049680433801   -1.82122736601016
C        -2.32688654321742   -2.58113588269429   -0.60086409487790
C        -3.17479380115303   -1.41444285760429   -0.60326970185865
C        -0.99138524268633   -0.72097607833148   -3.31029871234527
C        -0.99138524268633    0.72097607833148   -3.31029871234528
C         0.38054100031802    1.16548515734434   -3.30884687187952
C         1.22668597234242    0.00000000000000   -3.30783368151334
C         0.38054100031802   -1.16548515734434   -3.30884687187952
Cl       -1.93737486741132   -0.00000000000005    5.25509316806359
Cl        2.95251839320196   -2.14045133189538    3.88332935806582
62
 energy: -137.544526772787 gnorm: 0.072907554293 xtb: 6.4.1 (a3dbbd7)
C        -1.30563488686038    0.00785978453465    3.53384352145128
C        -0.37631605620138   -1.16161031288173    3.30494658219323
C         0.95664025966063   -0.70956480755268    3.28426322850378
C         0.97042436778904    0.72863132677494    3.27575634133662
C        -0.38104461320269    1.18410210841798    3.30979061405809
C         2.32842223914844   -2.57972255262450    0.57311788236819
C         3.17416053244891   -1.40999947609548    0.57376883719583
C         2.94216546460550   -0.68610980812788    1.78863277699304
C         2.00602232998727   -1.45846091990002    2.63266992907642
C         1.56806652079708   -2.58422712852800    1.78871720055741
C         3.18371263023209    1.41626822877422    0.57607369219650
C         2.33259129776804    2.58047368805189    0.58126220843369
C         1.57519118031120    2.57854858593166    1.80953027085378
C         1.94702924284103    1.42089019833354    2.56196150842460
C         2.93587640731649    0.69346610620440    1.79384014848759
C        -0.36325717441292    3.44405462010085    0.58794241875295
C        -1.73817458201115    3.00192473726508    0.58897100184141
C        -1.98210307769856    2.29600846093159    1.80977507509836
C        -0.74114802504054    2.28235009966009    2.56711686191469
C         0.24890747993115    3.00300225477771    1.80952580644298
C        -3.39972756502778    0.72218928239924    0.57344180022431
C        -3.39660849156866   -0.71335475297645    0.57662065869291
C        -2.76973231439808   -1.14213265889240    1.81246200110920
C        -2.42846844625335    0.00170006507508    2.55957315963018
C        -2.78047346343881    1.15601952186399    1.80630128975455
C        -1.72840366570251   -3.00190587011692    0.58759917781053
C        -0.36030376415928   -3.45570669943598    0.57699017221907
C         0.25102004560094   -2.99584206507980    1.79079466482389
C        -0.74207793396232   -2.27923259257349    2.56458796721084
C        -1.96391804330614   -2.29302468441710    1.81732766128535
C        -0.24395275132821   -3.01273778718958   -1.82809342352712
C         0.74585339006539   -2.28960194823779   -2.58487370210004
C         1.97491505530573   -2.28995809969144   -1.83116007403169
C         1.73893911434045   -3.01218936675060   -0.60756355605727
C         0.36954109609518   -3.45877895669592   -0.60519796022580
C         2.79086693818961   -1.16653377120350   -1.83055000130688
C         2.41064986693882    0.00113338432223   -2.58563880471708
C         2.79111129602072    1.16585229145587   -1.82889328735833
C         3.40921394740463    0.72142846880774   -0.60648251438630
C         3.40766196629969   -0.71843323865862   -0.60808630617168
C         1.97275925384188    2.28868837154932   -1.82438483467156
C         0.74585448797603    2.28844189170925   -2.57882718591713
C        -0.24574782555290    3.01053357438441   -1.81977454387346
C         0.36613962674521    3.45131423960334   -0.59528055021414
C         1.73866498772952    3.00701076580999   -0.59743959785581
C        -1.56891436965580    2.58152783594192   -1.82055383382091
C        -1.94723984979265    1.41610418630872   -2.58301007618799
C        -2.94255438876466    0.69565468114844   -1.82929798910962
C        -3.17723790634354    1.41739301950856   -0.60470949091498
C        -2.32896093271381    2.58286165429867   -0.60201718717708
C        -2.94197568931766   -0.69331860283386   -1.82644628688559
C        -1.94622091667366   -1.41508234931761   -2.58023020738719
C        -1.56582446951701   -2.58080966227956   -1.82072275109800
C        -2.32000285498046   -2.57948093272206   -0.59687902209472
C        -3.17181725874149   -1.40989879520863   -0.59836411284748
C        -0.99146052628966   -0.72046948782522   -3.30949813340961
C        -0.99139050613153    0.72148152749365   -3.30948100977049
C         0.38059993917371    1.16643851692379   -3.30957645853065
C         1.22648888949012    0.00107433943287   -3.31086519967792
C         0.38011368301129   -1.16519953066836   -3.31111270948504
Cl       -1.94294916143944    0.00677969648845    5.25538826612905
Cl        3.01768999759813   -2.19827198769435    3.98890251979547
62
 energy: -137.551963910820 gnorm: 0.018359185799 xtb: 6.4.1 (a3dbbd7)
C        -1.30500676481100    0.01160857658630    3.52732558745991
C        -0.36795498553069   -1.15441821230786    3.29778212797010
C         0.94477823900073   -0.70721895958040    3.27731274762134
C         0.96565197046219    0.72770231061712    3.26387420526762
C        -0.38505359845430    1.19073052072117    3.30649930985151
C         2.31850423411595   -2.57470746898773    0.57235059732002
C         3.16151089468489   -1.40420115120316    0.57504107024253
C         2.94203345789223   -0.68736661432732    1.78828682756338
C         2.06078228204050   -1.50232227009822    2.70344036980900
C         1.56681909799873   -2.59056788104167    1.78543798679549
C         3.17459227813908    1.40971951441441    0.57384187232325
C         2.32635860722013    2.57651525310504    0.57896515637983
C         1.57054978509268    2.57599057661954    1.80922394059639
C         1.94340074659743    1.42383915886898    2.56206139958182
C         2.92973496067789    0.68520970538176    1.78954086924614
C        -0.36647822421958    3.44453207202324    0.58792802880420
C        -1.74235695115722    3.00532913319142    0.58609483493320
C        -1.98970882222936    2.29972642741143    1.80681017031664
C        -0.74615988386470    2.28879895150910    2.56701502600588
C         0.24361819586676    3.00841174296400    1.80881148092410
C        -3.40680551265738    0.72862920428787    0.57172577284016
C        -3.39415202033298   -0.70780549511147    0.57767553830275
C        -2.76810199320331   -1.13394483852535    1.81809139767092
C        -2.43125548279855    0.00298560081254    2.55463798807400
C        -2.78850357274980    1.16446613825448    1.80258575613871
C        -1.72142612304304   -2.99997604627524    0.58484877757527
C        -0.35607668639003   -3.45517360693464    0.57251583194377
C         0.25713866557960   -2.99637673426980    1.78475877830501
C        -0.74759631061412   -2.28637330981445    2.56490716184882
C        -1.95080684403820   -2.28983602176841    1.82447138076199
C        -0.24250007791001   -3.01479322099861   -1.83444585264549
C         0.74648328254889   -2.28985324144512   -2.59270348954220
C         1.97521531642215   -2.29019990636271   -1.83910462587303
C         1.73677760705352   -3.01210851680026   -0.61315776304672
C         0.37202609981880   -3.45992633459991   -0.61318670464564
C         2.78891108075039   -1.16705500033060   -1.83590392768043
C         2.40889142195763    0.00222597801069   -2.59117326023110
C         2.79033453518478    1.16582589321608   -1.83389297232770
C         3.40491622328905    0.71870781476107   -0.61067944490547
C         3.40279542945405   -0.71719484321018   -0.61143584521514
C         1.97047539415887    2.28848159361918   -1.82786588855597
C         0.74542507922152    2.28864140794291   -2.58083505974320
C        -0.24783480209562    3.01143354064436   -1.81907610703271
C         0.36317023296846    3.45221039666265   -0.59782098455862
C         1.73511386474944    3.00597951451458   -0.59891467087648
C        -1.57147312288774    2.58419579717079   -1.82291464112395
C        -1.94930374446606    1.41854233814796   -2.58510517018392
C        -2.94440597689094    0.69911243056513   -1.83045226935374
C        -3.18265056477965    1.42245222989875   -0.60789380169087
C        -2.33258721613352    2.58644486522668   -0.60520503413127
C        -2.94043456063374   -0.69023315026901   -1.82357362553373
C        -1.94511717560789   -1.41295193535725   -2.57792102380657
C        -1.56327844095636   -2.57906519308453   -1.82156307944222
C        -2.31233422351556   -2.57607800190456   -0.59366614147227
C        -3.16733758579674   -1.40296100776683   -0.59472223125557
C        -0.99245321747032   -0.71844325436084   -3.31007443895175
C        -0.99356822742938    0.72343978776466   -3.31119719704793
C         0.37871992794265    1.16794446077878   -3.31246450346046
C         1.22477456004206    0.00278177436201   -3.31606657743632
C         0.37843217692324   -1.16409575210433   -3.31557250817075
Cl       -1.94030801217652    0.00405748070825    5.24309711313765
Cl        3.06874710116693   -2.24187555381788    4.07811416838405
62
 energy: -137.552388320567 gnorm: 0.010723125244 xtb: 6.4.1 (a3dbbd7)
C        -1.30235035271751    0.01121652746173    3.52384874825634
C        -0.36202030218055   -1.15618855359649    3.29860891209051
C         0.94783301272656   -0.71091610711469    3.27551757914217
C         0.96765201618279    0.72572021747992    3.26320630074128
C        -0.38328933929241    1.18990069356557    3.30242891002660
C         2.31659071607908   -2.57423129028448    0.57502680583308
C         3.15853065005250   -1.40359895914384    0.57803314168492
C         2.94620986836282   -0.69169447380114    1.79578558746981
C         2.07422205783273   -1.51334676364345    2.71901847334363
C         1.57201164104568   -2.59638872200981    1.79296512444111
C         3.16790656198745    1.40530203038477    0.57457989082794
C         2.32222690249428    2.57380314207585    0.57840860370474
C         1.56835630244767    2.57518736516006    1.80924909804483
C         1.94328182670333    1.42504577377369    2.56413367455731
C         2.92983176180561    0.68167256906686    1.79274464589269
C        -0.36810907213755    3.44590448411687    0.58651389393476
C        -1.74413617716202    3.00812155796921    0.58406477333752
C        -1.99129739709659    2.30186632407647    1.80541322687528
C        -0.74648341296132    2.28990002235978    2.56583513969210
C         0.24176769511627    3.01015740699257    1.80791605667070
C        -3.40827363238905    0.73115055998360    0.57083589132590
C        -3.39411449517309   -0.70565014486552    0.57691915374701
C        -2.76712806033514   -1.13111657419404    1.81787951083790
C        -2.42949149260690    0.00406902950875    2.55182633830349
C        -2.79057589574378    1.16842384045531    1.80102636915222
C        -1.71839052693615   -2.99771456000604    0.58371110639324
C        -0.35326060256383   -3.45198605134563    0.57297911948135
C         0.26126641132432   -3.00025076199388    1.78895278450036
C        -0.74879711449105   -2.29152820580568    2.56802469157918
C        -1.94664500575805   -2.28801671261216    1.82594832966225
C        -0.24234649557618   -3.01474883990565   -1.83609427074625
C         0.74613917456591   -2.28981707649672   -2.59526538315428
C         1.97426585951410   -2.28964139733997   -1.84018748518631
C         1.73643313321035   -3.01064901499634   -0.61271409721120
C         0.37290681362006   -3.45861471150155   -0.61410066558064
C         2.78677597686226   -1.16659968989185   -1.83650871207642
C         2.40760815904539    0.00257572649657   -2.59311691163222
C         2.78852010238245    1.16578267664543   -1.83531070302798
C         3.40041506634931    0.71718768659447   -0.61080769654239
C         3.39847222670402   -0.71751063182560   -0.61024259122764
C         1.96815157307807    2.28819718165131   -1.82914306475548
C         0.74402572896167    2.28914392560545   -2.58266846079230
C        -0.24961057929740    3.01221082976007   -1.82065068624143
C         0.36126189440073    3.45293547761386   -0.59945671474589
C         1.73257440372100    3.00499927782107   -0.59953001493703
C        -1.57331424095905    2.58621158985060   -1.82548149067828
C        -1.95061142379932    1.42005936706427   -2.58717439935230
C        -2.94558843035735    0.70128091319820   -1.83180416189779
C        -3.18438317821395    1.42491397221636   -0.60963549797762
C        -2.33453026600709    2.58898820851601   -0.60718867638453
C        -2.93978968675340   -0.68822877692969   -1.82341534265620
C        -1.94503471810785   -1.41143395234181   -2.57816698843804
C        -1.56247464965408   -2.57703231616096   -1.82210021227553
C        -2.30948487200245   -2.57324523839381   -0.59310039332653
C        -3.16637389100806   -1.40000569057537   -0.59469458385730
C        -0.99323914108675   -0.71750021139868   -3.31174352307899
C        -0.99487121251680    0.72443525256662   -3.31300728810881
C         0.37742988392536    1.16859586356717   -3.31487976862062
C         1.22371421968843    0.00342458044576   -3.31893342103648
C         0.37747859340588   -1.16378619447530   -3.31805741470878
Cl       -1.93782758297964   -0.00136986211252    5.23630446989220
Cl        3.07363503844520   -2.24602392117699    4.09395870286711
62
 energy: -137.552546423765 gnorm: 0.004852857448 xtb: 6.4.1 (a3dbbd7)
C        -1.30037778157693    0.01114815792519    3.52208256869981
C        -0.35778324926058   -1.15754888247177    3.29839343828981
C         0.95066260115373   -0.71380296141790    3.27281102813657
C         0.96935768494185    0.72472816484319    3.26261398707020
C        -0.38142331734151    1.18904550432078    3.29971909265797
C         2.31478089681950   -2.57341042135976    0.57661659801100
C         3.15615301810687   -1.40281861560867    0.57972815066986
C         2.94836285851546   -0.69429453021469    1.80105448301179
C         2.08080497925811   -1.51852029822227    2.72621484184377
C         1.57503518684341   -2.59944852228068    1.79836441859814
C         3.16399117114602    1.40255972330250    0.57509901416943
C         2.32001280802627    2.57213052991541    0.57825206640530
C         1.56771968451985    2.57557259758602    1.80946162374056
C         1.94355715872137    1.42666863422616    2.56545913248086
C         2.92989581410927    0.67993115607640    1.79462910136702
C        -0.36866101403706    3.44688794163246    0.58573947875406
C        -1.74456993638423    3.00960161407991    0.58311718084902
C        -1.99121868080831    2.30218780883738    1.80475218974899
C        -0.74593474449799    2.29060659128558    2.56570767798920
C         0.24120983585004    3.01111086530621    1.80768038589458
C        -3.40903059399256    0.73202261226363    0.57074292899323
C        -3.39447001437249   -0.70497774653031    0.57645895419055
C        -2.76697055960523   -1.13020435347462    1.81767772844622
C        -2.42753361254106    0.00373836539137    2.55007538180131
C        -2.79115786261143    1.17023209137735    1.80003106881690
C        -1.71658587612507   -2.99645412530049    0.58285821154724
C        -0.35154154819417   -3.44983999848033    0.57335919816412
C         0.26334334235125   -3.00273889477436    1.79188056559115
C        -0.75061287879971   -2.29547872560103    2.57015666734463
C        -1.94478414791831   -2.28763988611156    1.82700464289722
C        -0.24254942128218   -3.01486284253816   -1.83691144627916
C         0.74573262292264   -2.28999891897239   -2.59646980031288
C         1.97344721474738   -2.28906815830336   -1.84031432413318
C         1.73603028360154   -3.00932705805326   -0.61210722180352
C         0.37315367670986   -3.45799615509045   -0.61434577072101
C         2.78527316084107   -1.16612111567198   -1.83653720209692
C         2.40717221941048    0.00289451811059   -2.59411320249172
C         2.78763157149279    1.16592908618350   -1.83605750760213
C         3.39798778940073    0.71658992746460   -0.61074509303537
C         3.39528190371761   -0.71756760603892   -0.60922782844162
C         1.96688740209292    2.28802569257221   -1.82957848673219
C         0.74339736796229    2.28952485623620   -2.58357161319886
C        -0.25040201808436    3.01247145327466   -1.82145050740289
C         0.36058063910356    3.45339318762245   -0.60004615654806
C         1.73155693670423    3.00460366124646   -0.59968864901741
C        -1.57400232138165    2.58713004430933   -1.82671348640150
C        -1.95103849421861    1.42066134516660   -2.58802333988277
C        -2.94614510970302    0.70230029777604   -1.83230470478431
C        -3.18513517862614    1.42592984306250   -0.61024104522505
C        -2.33530547698142    2.58999856048909   -0.60773219665808
C        -2.93935388208295   -0.68734298844454   -1.82329420087939
C        -1.94504585999657   -1.41073046640399   -2.57840363987967
C        -1.56218940041522   -2.57581081015785   -1.82233557477676
C        -2.30801317150592   -2.57187288029044   -0.59281837709677
C        -3.16605625149122   -1.39859319534393   -0.59484019714433
C        -0.99355251852977   -0.71716556708594   -3.31272365029753
C        -0.99532103121086    0.72482593825749   -3.31378868897552
C         0.37695007220398    1.16882745376894   -3.31612772119814
C         1.22336196482194    0.00370139301546   -3.32052779596410
C         0.37706865134185   -1.16379300617292   -3.31934691076366
Cl       -1.93579500731775   -0.00481665274868    5.23156716255988
Cl        3.06981246763332   -2.24318556565583    4.09756180505840
62
 energy: -137.552586607413 gnorm: 0.002573605302 xtb: 6.4.1 (a3dbbd7)
C        -1.30001110946623    0.01114178982440    3.52223996854106
C        -0.35677679776773   -1.15777481187689    3.29755067194914
C         0.95104238488512   -0.71443870253236    3.27064898267003
C         0.96951086467744    0.72474589928603    3.26193938183115
C        -0.38089952862175    1.18877716816956    3.29934478984412
C         2.31398773882887   -2.57287561601769    0.57662487800446
C         3.15537019728349   -1.40236782906256    0.57971182163444
C         2.94791919254719   -0.69437468987659    1.80161060041477
C         2.08156630330831   -1.51887214995825    2.72703415380174
C         1.57493791017656   -2.59922727080281    1.79898290504358
C         3.16378594850399    1.40225870375769    0.57514054755391
C         2.32014583479975    2.57207716149100    0.57836421420476
C         1.56818715683265    2.57622681307888    1.80964352987028
C         1.94369572698564    1.42736549860221    2.56554055864466
C         2.92970375624862    0.67989098058213    1.79442720345400
C        -0.36841589647380    3.44708436842852    0.58577698955073
C        -1.74417005841167    3.00958237136768    0.58318853952343
C        -1.99059553632616    2.30159130477113    1.80480748267652
C        -0.74546122218230    2.29085248981024    2.56611780164672
C         0.24149324674534    3.01121756950060    1.80792312363021
C        -3.40903810112686    0.73180926493701    0.57102784024683
C        -3.39469552466400   -0.70519652945789    0.57655757488080
C        -2.76720970750855   -1.13050804726639    1.81781516731136
C        -2.42677652360604    0.00300146912634    2.54982443196606
C        -2.79081053117696    1.17016518751788    1.79983393136793
C        -1.71642950312023   -2.99663735041859    0.58270485834476
C        -0.35132266315742   -3.44961816139683    0.57334732101337
C         0.26333123329852   -3.00290071370300    1.79203805038716
C        -0.75165682329655   -2.29666965633313    2.57055301654449
C        -1.94484915701203   -2.28818332304119    1.82743531937375
C        -0.24270243388551   -3.01504085999697   -1.83692535459675
C         0.74559251225151   -2.29015126995173   -2.59638068205707
C         1.97329361158958   -2.28891848967346   -1.84008151442587
C         1.73592623019608   -3.00906816881149   -0.61198408415656
C         0.37303647650392   -3.45821194431033   -0.61432901753147
C         2.78508560560446   -1.16600601583108   -1.83640859307948
C         2.40735520881108    0.00298696215546   -2.59409424769095
C         2.78781533217853    1.16604847880048   -1.83615089544064
C         3.39811148563450    0.71674642571609   -0.61076057266836
C         3.39479760561486   -0.71750348677121   -0.60906884295571
C         1.96694201519083    2.28800166134879   -1.82941693837136
C         0.74352047054702    2.28957325014364   -2.58341662100601
C        -0.25025855604064    3.01232723393176   -1.82132454872655
C         0.36088407286506    3.45343797726944   -0.59977306594598
C         1.73191956515190    3.00476707574208   -0.59957042198169
C        -1.57373538974292    2.58700653334715   -1.82657630076004
C        -1.95086716166121    1.42056020477769   -2.58781362614800
C        -2.94611063456450    0.70225747138196   -1.83210824260362
C        -3.18501269390395    1.42579512420263   -0.61004281652821
C        -2.33509752832061    2.58971400744053   -0.60732224820863
C        -2.93928965143798   -0.68744691079385   -1.82312271375510
C        -1.94505501700407   -1.41079349612917   -2.57830053603439
C        -1.56225041620333   -2.57573390876736   -1.82220318445457
C        -2.30803052995871   -2.57208464704080   -0.59267949411835
C        -3.16614736700035   -1.39860688037755   -0.59477779211931
C        -0.99347335963182   -0.71725493411207   -3.31263657941782
C        -0.99518055267032    0.72476332987640   -3.31360725059028
C         0.37706706432398    1.16872064387369   -3.31598630487956
C         1.22346949229821    0.00366815476082   -3.32049787251400
C         0.37711723433469   -1.16389400754405   -3.31925782850908
Cl       -1.93487633493859   -0.00565636217193    5.23050285642613
Cl        3.06424685684207   -2.23859767288804    4.09484411297727
62
 energy: -137.552597899703 gnorm: 0.001481864074 xtb: 6.4.1 (a3dbbd7)
C        -1.30027115629794    0.01107766541646    3.52288710818995
C        -0.35710301943090   -1.15762184443694    3.29696280021254
C         0.95046444260424   -0.71415660136736    3.26943268652727
C         0.96912096261671    0.72498540101965    3.26147921107892
C        -0.38102039886902    1.18878895457940    3.29980212891121
C         2.31393168112074   -2.57278287558469    0.57627194918719
C         3.15549110102485   -1.40232147266222    0.57929735009316
C         2.94716741054480   -0.69384723704709    1.80064801071545
C         2.08102416660631   -1.51821498911321    2.72655631020943
C         1.57419171552304   -2.59844432022818    1.79808752415131
C         3.16461786409851    1.40269824389016    0.57502573376333
C         2.32083618569465    2.57248579772642    0.57846700303230
C         1.56869400766210    2.57652507652600    1.80969859612393
C         1.94374438510377    1.42732567395286    2.56523455467939
C         2.92966494520362    0.68019643138103    1.79380792025321
C        -0.36812346842887    3.44696969430342    0.58599242334565
C        -1.74381058211964    3.00922812259372    0.58345408096737
C        -1.99020242216744    2.30116299670489    1.80503113415816
C        -0.74526442544719    2.29087961221951    2.56640389046926
C         0.24181968860268    3.01103129333042    1.80815230587901
C        -3.40880184350913    0.73149793384414    0.57123627726725
C        -3.39470629177342   -0.70545575016491    0.57676792659118
C        -2.76736900754048   -1.13089283211374    1.81800639345228
C        -2.42673651708190    0.00259128268554    2.55008223730472
C        -2.79040091591297    1.16972982484605    1.79993642287025
C        -1.71678679077652   -2.99714700302680    0.58281820747043
C        -0.35156232874636   -3.44997757122945    0.57323407828431
C         0.26291112245269   -3.00248691814867    1.79143975301999
C        -0.75190794294203   -2.29663534573754    2.57034369305412
C        -1.94532918179774   -2.28872528214014    1.82750982611071
C        -0.24272729397088   -3.01511365980223   -1.83675774552083
C         0.74559148689701   -2.29016620658683   -2.59604360963110
C         1.97339778947065   -2.28896975320920   -1.83991935431719
C         1.73598563320975   -3.00926268863546   -0.61207511334480
C         0.37291126788292   -3.45849956123011   -0.61429932553530
C         2.78534051953688   -1.16606407025261   -1.83635474722882
C         2.40754149183377    0.00295759052420   -2.59385938132618
C         2.78815737526606    1.16606717565171   -1.83606782037135
C         3.39879305261012    0.71696323712985   -0.61082518375953
C         3.39531950102371   -0.71748131016648   -0.60923853949096
C         1.96728658101960    2.28801992054863   -1.82923238839456
C         0.74372666451161    2.28951302822718   -2.58308026006466
C        -0.24999080408276    3.01217401326934   -1.82104560671270
C         0.36124583159264    3.45334646365582   -0.59943424266698
C         1.73241135891465    3.00495642857012   -0.59947322888897
C        -1.57340463966647    2.58673167407143   -1.82619207261351
C        -1.95069233920319    1.42040254867180   -2.58748212876801
C        -2.94597824466904    0.70203245078179   -1.83185764642181
C        -3.18474092075478    1.42550743915425   -0.60978316185203
C        -2.33478959591025    2.58930014293830   -0.60691206760125
C        -2.93936152897105   -0.68768702995351   -1.82300585006968
C        -1.94505488237997   -1.41096699728294   -2.57813947853826
C        -1.56234687311631   -2.57596318912179   -1.82205548843719
C        -2.30839840648025   -2.57255981019564   -0.59263837751009
C        -3.16627775247069   -1.39891909371295   -0.59466877469178
C        -0.99337371338889   -0.71735610684215   -3.31232738496493
C        -0.99502040732598    0.72467084160810   -3.31331592052649
C         0.37721671615948    1.16860856279650   -3.31558628245340
C         1.22357280692548    0.00360403637476   -3.32008499262929
C         0.37721168446529   -1.16391894040891   -3.31889071087356
Cl       -1.93454454807679   -0.00576670459947    5.23085052752639
Cl        3.06036082730745   -2.23507572588766    4.09221325435980
62
 energy: -137.552600144351 gnorm: 0.000451991329 xtb: 6.4.1 (a3dbbd7)
C        -1.30064239718368    0.01099138843029    3.52344672311152
C        -0.35780345514513   -1.15742714605279    3.29681554701837
C         0.94978998713454   -0.71365567727522    3.26909767212417
C         0.96874732011555    0.72513995630840    3.26132595963827
C        -0.38132368409518    1.18890163421097    3.30036529711960