62
 energy: -137.536896346369 gnorm: 0.000024753521 xtb: 6.4.1 (a3dbbd7)
C        -1.30128773089952    0.00374448359650    3.53031394663096
C        -0.37148858447489   -1.17009946683524    3.31113796121303
C         0.97754173143582   -0.71210677170226    3.28850650302918
C         0.97456752491545    0.73023307004009    3.28837565968457
C        -0.37623896302153    1.18135968524063    3.31297494625610
C         2.34452105438754   -2.57718098418226    0.60323965312381
C         3.15900618128540   -1.41472875789168    0.58714234849150
C         2.93582647628476   -0.68248112959214    1.81606750998377
C         1.94723829354803   -1.40133494506158    2.56549148370865
C         1.57862945545723   -2.56458722058415    1.79583829611398
C         3.17747427838226    1.42615730406637    0.58663160137482
C         2.33372211989696    2.58673897941837    0.58462272598517
C         1.57361266344513    2.58668400564147    1.81142752576188
C         1.94701377718058    1.42515146824030    2.56828150689786
C         2.93729348417542    0.70361763740588    1.81501771039934
C        -0.36548658535233    3.44927216398460    0.58322651502935
C        -1.73666082085898    3.00627182726820    0.58591300945574
C        -1.97483146869359    2.29718946234556    1.80889899078981
C        -0.73850789097596    2.28202681463485    2.56829217094689
C         0.24995568323619    3.00188708417955    1.80841299873919
C        -3.40208283435360    0.72569211654864    0.57358445922295
C        -3.40015075495594   -0.70711761178368    0.57351607109486
C        -2.77280877853348   -1.14053383734231    1.80724979910677
C        -2.42870905545256    0.00620924513791    2.56231682513740
C        -2.77642508032734    1.15686586946966    1.80713175867577
C        -1.73109971079538   -2.98350790501683    0.58929589009973
C        -0.35896741042319   -3.43208489379004    0.58165088738214
C         0.25239720136726   -3.00449143615973    1.81910463351968
C        -0.72926215552685   -2.27595767186141    2.56676637442195
C        -1.97087022718646   -2.28391089900691    1.80766811271601
C        -0.24304709652906   -2.98852219893007   -1.79468806468060
C         0.74777434366401   -2.26819196743015   -2.55748842478447
C         1.97529862751079   -2.28659833480575   -1.83303934878129
C         1.85168091067466   -3.21407100478755   -0.64482004482099
C         0.35934164657627   -3.45865849461601   -0.59532145866613
C         2.77525851264235   -1.16464715020189   -1.82112945323531
C         2.39941623237707    0.00222308351656   -2.57512552134748
C         2.77920809423597    1.16431724413217   -1.81830484764566
C         3.39674942312453    0.71914147996689   -0.59398423517081
C         3.40610678382355   -0.71530950905299   -0.59382223257763
C         1.96648389585669    2.29222053314505   -1.81944963118480
C         0.73856938065061    2.29501364021348   -2.57955387248841
C        -0.25028643977432    3.01797231198281   -1.82561141839402
C         0.36392159683643    3.45585710414024   -0.59645482078135
C         1.73668535572718    3.01387475294728   -0.59811294936828
C        -1.57407300796300    2.58978716356758   -1.82394379288140
C        -1.95350506143871    1.42546700848094   -2.58582655532053
C        -2.94963348603515    0.70460837074399   -1.83083362877328
C        -3.18059588567243    1.42392243300787   -0.60502234466803
C        -2.33300067788710    2.59045873554796   -0.60393127961261
C        -2.95063479336484   -0.68443739773115   -1.83172233964970
C        -1.95309944806201   -1.40481712706884   -2.58122125318143
C        -1.57550941340578   -2.56689665601678   -1.81227847577322
C        -2.33279154150843   -2.56732145584706   -0.60232264811296
C        -3.18378290949121   -1.40509606901452   -0.60459665776193
C        -0.99657820621263   -0.71160673341224   -3.30745236112563
C        -0.99817743533521    0.73041795348348   -3.31293835434177
C         0.37435366985541    1.17457913255522   -3.31360193644689
C         1.21812250381677    0.00761566564934   -3.30964474243535
C         0.37623482212727   -1.15306046095878   -3.30465890058837
Cl       -1.92796736709468   -0.01314183846234    5.25436461240317
Cl        2.75176535185269   -4.78281597427361   -0.97049303293318
