62
 energy: -137.506812634541 gnorm: 0.135982569740 xtb: 6.4.1 (a3dbbd7)
C        -1.29770965891222    0.00000000000000    3.53163224767276
C        -0.37107604425475   -1.17478800586359    3.31058196643012
C         0.97979757550459   -0.72157705231961    3.28110534952822
C         0.97979757550459    0.72157705231961    3.28110534952822
C        -0.37107604425475    1.17478800586360    3.31058196643013
C         2.33544184946295   -2.58264348698296    0.58346340581249
C         3.18207169571150   -1.41543014636129    0.58234433372313
C         2.94373959867916   -0.69404060100004    1.80708186552027
C         1.95046398470883   -1.41556779135961    2.56176558167067
C         1.57767488865866   -2.57871801508103    1.80912454278211
C         3.18207169571150    1.41543014636129    0.58234433372313
C         2.33544184946295    2.58264348698296    0.58346340581249
C         1.57767488865866    2.57871801508103    1.80912454278211
C         1.95046398470883    1.41556779135961    2.56176558167066
C         2.94373959867916    0.69404060100004    1.80708186552027
C        -0.36119281684147    3.44519252612879    0.58582996047390
C        -1.73469290191499    3.00153459982720    0.58916793337350
C        -1.97220713510261    2.29308475607878    1.81059639720294
C        -0.73400332666893    2.27691900303500    2.56853480078419
C         0.25309257506893    2.99789064535074    1.80898867763471
C        -3.39649784746455    0.71758744312072    0.57410478167568
C        -3.39649784746455   -0.71758744312072    0.57410478167568
C        -2.77168037603652   -1.14964415915414    1.80664876434809
C        -2.42168465399864    0.00000000000000    2.56054627302143
C        -2.77168037603652    1.14964415915414    1.80664876434809
C        -1.73469290191499   -3.00153459982719    0.58916793337351
C        -0.36119281684148   -3.44519252612879    0.58582996047390
C         0.25309257506893   -2.99789064535073    1.80898867763471
C        -0.73400332666892   -2.27691900303499    2.56853480078419
C        -1.97220713510261   -2.29308475607878    1.81059639720295
C        -0.24585893810850   -3.00970705822685   -1.82232538763502
C         0.74439012833927   -2.28841876480361   -2.57822875384061
C         1.97268106729833   -2.28861170675520   -1.82114897801170
C         1.74031203428013   -3.00832022201671   -0.59623578829480
C         0.36724813466371   -3.45114129717027   -0.59443426078026
C         2.79027372790168   -1.16551010025889   -1.82330670861298
C         2.41077011246349    0.00000000000000   -2.58030971859023
C         2.79027372790168    1.16551010025889   -1.82330670861298
C         3.40598095600767    0.72109250237888   -0.59875668403540
C         3.40598095600767   -0.72109250237888   -0.59875668403540
C         1.97268106729833    2.28861170675520   -1.82114897801170
C         0.74439012833927    2.28841876480360   -2.57822875384062
C        -0.24585893810850    3.00970705822685   -1.82232538763502
C         0.36724813466371    3.45114129717027   -0.59443426078026
C         1.74031203428013    3.00832022201671   -0.59623578829480
C        -1.56847069976934    2.58049680433801   -1.82122736601016
C        -1.94730857051169    1.41533687195356   -2.58360676406823
C        -2.94243160962768    0.69434475341889   -1.82977489504240
C        -3.17479380115303    1.41444285760430   -0.60326970185865
C        -2.32688654321742    2.58113588269429   -0.60086409487791
C        -2.94243160962768   -0.69434475341889   -1.82977489504240
C        -1.94730857051169   -1.41533687195356   -2.58360676406823
C        -1.56847069976934   -2.58049680433801   -1.82122736601016
C        -2.32688654321742   -2.58113588269429   -0.60086409487790
C        -3.17479380115303   -1.41444285760429   -0.60326970185865
C        -0.99138524268633   -0.72097607833148   -3.31029871234527
C        -0.99138524268633    0.72097607833148   -3.31029871234528
C         0.38054100031802    1.16548515734434   -3.30884687187952
C         1.22668597234242    0.00000000000000   -3.30783368151334
C         0.38054100031802   -1.16548515734434   -3.30884687187952
Cl       -1.93737486741132   -0.00000000000005    5.25509316806359
Cl        2.61707662376912   -4.55873807312049   -0.91808721612592
62
 energy: -137.530340276695 gnorm: 0.059321521567 xtb: 6.4.1 (a3dbbd7)
C        -1.29941889874825    0.00114588447516    3.53224830237291
C        -0.37115397370587   -1.17215501939385    3.31104673642950
C         0.97976342906528   -0.71650229551116    3.28753758729180
C         0.97775091793415    0.72556691431919    3.28455565231476
C        -0.37356858384379    1.17681704428141    3.31231968662657
C         2.35072446473829   -2.58068503957079    0.60558477105890
C         3.17350950597237   -1.40777790962758    0.59185738260993
C         2.94672560158910   -0.68588315946435    1.81929815520433
C         1.95365469026574   -1.40686323044445    2.57192955198614
C         1.57891219507963   -2.56594317981382    1.81101181917558
C         3.18159001019764    1.41939293165170    0.58500181381750
C         2.33579328039203    2.58382969518327    0.58437926259985
C         1.57683389924712    2.58115693107635    1.81007049286770
C         1.94927244440378    1.41988259794547    2.56534477918647
C         2.94425250608592    0.69990859367476    1.81374726540161
C        -0.36189753857405    3.44495751265747    0.58475897551691
C        -1.73487657145665    3.00169654358236    0.58825160670499
C        -1.97323184218842    2.29420888886433    1.81026371616725
C        -0.73561932458846    2.27785015057973    2.56830199505609
C         0.25233139125542    2.99833218668511    1.80857913019878
C        -3.39655906173399    0.71905483859973    0.57362575292827
C        -3.39800573139235   -0.71490381813334    0.57371572935871
C        -2.77233685148190   -1.14691918323096    1.80713457122508
C        -2.42382285945753    0.00138510670675    2.56167438402653
C        -2.77167794582613    1.15049647440961    1.80683594368518
C        -1.74233489399099   -2.99835486548140    0.59082343304227
C        -0.36748954463229   -3.43218661342454    0.58445317731967
C         0.25215875711684   -2.99428186089043    1.81069867406885
C        -0.73419035801720   -2.27518819031901    2.56680361951039
C        -1.97558691150042   -2.29214188048257    1.81116739877474
C        -0.25040577945922   -2.99944452179543   -1.81542656029303
C         0.74109235213007   -2.27749386244443   -2.57422892329217
C         1.96599224234702   -2.27483307267260   -1.82883465775970
C         1.79105848854233   -3.09999605384874   -0.61636203661721
C         0.35233165490718   -3.44277240111327   -0.59495130044751
C         2.77924918370831   -1.15661416807909   -1.82350087154863
C         2.40992092917342    0.00482510482675   -2.58618603064171
C         2.78841576865753    1.16624191254928   -1.82408630973473
C         3.40416115695927    0.72207566752620   -0.59791612384833
C         3.40042310010020   -0.71591026529795   -0.59507398632825
C         1.97134429696599    2.28957275105524   -1.82157878956910
C         0.74288496368754    2.29017648712473   -2.57907074382571
C        -0.24649596738836    3.01186620752983   -1.82381658110307
C         0.36693367254362    3.45128210177461   -0.59554441105068
C         1.73979144135699    3.00892796551556   -0.59706957743667
C        -1.56951693806455    2.58239983391637   -1.82188623920348
C        -1.94859836760257    1.41769929784465   -2.58403387736309
C        -2.94433763849632    0.69680388742099   -1.83026885903743
C        -3.17552942995705    1.41661363186088   -0.60406839725029
C        -2.32826223227484    2.58305910327199   -0.60227925741045
C        -2.94619452168817   -0.69161822063452   -1.83131118417406
C        -1.95156176606481   -1.41224916990952   -2.58484457370362
C        -1.57804836562915   -2.57733513756821   -1.82019555552471
C        -2.33500357792553   -2.57916201534490   -0.60266201185567
C        -3.17897720471066   -1.41184654285087   -0.60448081019006
C        -0.99452480790327   -0.71763907777487   -3.31224780048896
C        -0.99383483627561    0.72400092772323   -3.31219129078599
C         0.37827077501560    1.16867634994052   -3.31153792461749
C         1.22439916628615    0.00456227827679   -3.31411168665303
C         0.37794273559030   -1.15844294601898   -3.31364283772946
Cl       -1.93400020294963   -0.00509373886271    5.25735234466590
Cl        2.68778776095729   -4.68296643596620   -0.95189664184635
62
 energy: -137.536433402856 gnorm: 0.013494823601 xtb: 6.4.1 (a3dbbd7)
C        -1.30029102211346    0.00323361423752    3.53095001007315
C        -0.37114439001661   -1.17050780892454    3.31258243713714
C         0.97850900230557   -0.71284559266994    3.28994446250270
C         0.97573141797883    0.72946682033792    3.28806552503242
C        -0.37546740471087    1.18024112223974    3.31296625371834
C         2.35155201480812   -2.57789550773822    0.61029875149309
C         3.16306880389661   -1.40979955862406    0.59214004624924
C         2.94151517521833   -0.68243539130058    1.82066339750183
C         1.95094723569001   -1.40230490303829    2.57159415073567
C         1.57898339460401   -2.56100000686659    1.80282758745330
C         3.17845451201812    1.42371897274742    0.58701050232030
C         2.33444428131878    2.58597805967794    0.58520978445053
C         1.57471750021687    2.58494678222609    1.81139127403649
C         1.94789595060147    1.42430140437733    2.56846924396773
C         2.94043943704284    0.70328010019876    1.81607574636815
C        -0.36413103554014    3.44741841993020    0.58395392384879
C        -1.73606018035784    3.00446320791284    0.58701818199613
C        -1.97433993941720    2.29643001753420    1.80948511742752
C        -0.73751093652937    2.28072983693938    2.56831172536352
C         0.25069330658022    3.00069986050394    1.80853497153097
C        -3.39949337394817    0.72259723436255    0.57358267750475
C        -3.39911317292911   -0.71052010963459    0.57352665253254
C        -2.77291278034804   -1.14322981137845    1.80754256466675
C        -2.42674600846596    0.00433694032698    2.56234765288062
C        -2.77361702279273    1.15363870716610    1.80690616043872
C        -1.73809948465965   -2.98983573257420    0.59054665626351
C        -0.36380366182261   -3.42790838948717    0.58166189924976
C         0.25300099219546   -2.99719790301496    1.81378379343604
C        -0.73099540565610   -2.27430377124026    2.56564864782699
C        -1.97433983309646   -2.28797921968765    1.81007189684943
C        -0.24705116875742   -2.99078124012630   -1.80256255350460
C         0.74417996758184   -2.26966818988002   -2.56388752943008
C         1.96731858193053   -2.27533686325950   -1.83184716310013
C         1.83644958581550   -3.18391609348127   -0.63632742438518
C         0.35179238003774   -3.44608653059004   -0.59526408902519
C         2.77323298576556   -1.15875806610341   -1.82153517998928
C         2.40413242253684    0.00518717093985   -2.58129890260788
C         2.78319215688668    1.16626484417191   -1.82127485135441
C         3.39782375215854    0.71998181552695   -0.59504175244963
C         3.40122593002274   -0.71551081349782   -0.59310827995529
C         1.96823245729687    2.29165630576311   -1.82049425660032
C         0.74019946470980    2.29341288362973   -2.57975490794304
C        -0.24865904145835    3.01535734469304   -1.82482872031655
C         0.36505769630267    3.45368948541260   -0.59601307768864
C         1.73766222399508    3.01185644376099   -0.59736599412906
C        -1.57208136143060    2.58652933794270   -1.82267424848460
C        -1.95132327158133    1.42226051739608   -2.58473907456415
C        -2.94708875768248    0.70145691065624   -1.83037309383364
C        -3.17825502080280    1.42094311515376   -0.60447869488025
C        -2.33104283547977    2.58740871609686   -0.60330095568567
C        -2.94905455469141   -0.68722523670014   -1.83197041440626
C        -1.95363325790318   -1.40810484332183   -2.58373499291334
C        -1.57936493944223   -2.57175222366338   -1.81600152195909
C        -2.33565084604693   -2.57277317576645   -0.60323280527690
C        -3.18215100914893   -1.40807436150234   -0.60504347820162
C        -0.99646720202658   -0.71393384636456   -3.31085279278679
C        -0.99685611657908    0.72793604122656   -3.31304520008641
C         0.37557140073070    1.17252393405407   -3.31348159731516
C         1.22025550396759    0.00729638312198   -3.31302319231144
C         0.37677742899298   -1.15381473423979   -3.31090510156632
Cl       -1.93122413457024   -0.00590631806567    5.25595880633537
Cl        2.74312246154289   -4.77857418064384   -0.97654079457808
62
 energy: -137.536748219399 gnorm: 0.008066165641 xtb: 6.4.1 (a3dbbd7)
C        -1.30093359447202    0.00411537095533    3.53035915021833
C        -0.37131510629673   -1.16960209123808    3.31178820003928
C         0.97779572845326   -0.71180602971360    3.28892546813777
C         0.97473310494538    0.73066305958863    3.28854404897546
C        -0.37631569482522    1.18164175557365    3.31305727845707
C         2.34951105578352   -2.57924180761924    0.60701091175419
C         3.16085500697998   -1.41324203433620    0.58969070625550
C         2.93807127486927   -0.68237978928003    1.81796884088746
C         1.94868422972553   -1.40173232501118    2.56821109173877
C         1.57940522184792   -2.56326564706244    1.79889574040028
C         3.17712913251083    1.42524956458915    0.58707817947660
C         2.33333535659972    2.58682936272814    0.58505187864796
C         1.57351643618637    2.58663877141178    1.81160259399215
C         1.94693281504816    1.42559820096181    2.56869801649145
C         2.93785180432336    0.70375662678765    1.81546939027504
C        -0.36544670853042    3.44934718072728    0.58366828865103
C        -1.73700275217897    3.00643413830762    0.58650234490544
C        -1.97517932518366    2.29788713853777    1.80927546608178
C        -0.73859366120000    2.28233401293103    2.56849256912105
C         0.24968510003588    3.00225706284909    1.80858505634040
C        -3.40111522812094    0.72499406645158    0.57360367364910
C        -3.39992615292787   -0.70800530909025    0.57355218734444
C        -2.77262923953115   -1.14104856980128    1.80710267676442
C        -2.42802949878428    0.00619883688017    2.56231115383861
C        -2.77542652864297    1.15610157459510    1.80711572559863
C        -1.73336360613762   -2.98570371592977    0.58977986182392
C        -0.36029980576964   -3.43108426973525    0.58137086276917
C         0.25338213952778   -3.00097302971949    1.81621493459074
C        -0.72936805173742   -2.27424891775598    2.56546245486957
C        -1.97200592428771   -2.28498759345668    1.80853049948961
C        -0.24415192913663   -2.99009057734969   -1.79796981564593
C         0.74685015937077   -2.26943731805193   -2.56008990762946
C         1.97273524972073   -2.28319195442023   -1.83328134335737
C         1.84651957459301   -3.20396829321974   -0.64195245824256
C         0.35664475942362   -3.45486708801628   -0.59567267380736
C         2.77468711810255   -1.16315380021263   -1.82127533071719
C         2.40101439539376    0.00329019211914   -2.57697923043835
C         2.78023666572440    1.16518843588012   -1.81910805696581
C         3.39612248846773    0.71908852885530   -0.59391226496758
C         3.40346955734720   -0.71604604061727   -0.59324683752640
C         1.96657810679723    2.29208730358713   -1.81958469651082
C         0.73884547945074    2.29481705016820   -2.57959368646018
C        -0.25003265911921    3.01744869813927   -1.82526811235421
C         0.36388733103624    3.45550952844201   -0.59618307635262
C         1.73645072816358    3.01343220040302   -0.59758130932794
C        -1.57372192993822    2.58918169748539   -1.82336436665461
C        -1.95292193884571    1.42472483575853   -2.58522591200179
C        -2.94879466838605    0.70394522081476   -1.83050764210391
C        -3.17994864198724    1.42344214136954   -0.60470485775826
C        -2.33266409274827    2.59005418156294   -0.60367588497345
C        -2.94984122942250   -0.68497712212546   -1.83166847102537
C        -1.95322419850292   -1.40586838026074   -2.58194334284388
C        -1.57681301305984   -2.56878306089741   -1.81357809720187
C        -2.33349237190954   -2.56898762902135   -0.60264694716752
C        -3.18298306881888   -1.40588559812496   -0.60470412003806
C        -0.99652469773943   -0.71230210727013   -3.30860190961992
C        -0.99796749447994    0.72970625243614   -3.31268853336433
C         0.37458395185881    1.17393474147176   -3.31330992722485
C         1.21858759406805    0.00752200147972   -3.31037637061514
C         0.37657045664607   -1.15333383630143   -3.30695589749118
Cl       -1.92965725846275   -0.01003094634431    5.25537096920690
Cl        2.75322830292637   -4.79391292498619   -0.97857128054168
62
 energy: -137.536847600512 gnorm: 0.004399086238 xtb: 6.4.1 (a3dbbd7)
C        -1.30132659869613    0.00423905780801    3.53005278370069
C        -0.37148796019885   -1.16949154522957    3.31130208497549
C         0.97744213436324   -0.71160798442822    3.28835675285413
C         0.97435333401058    0.73081644637382    3.28856847013314
C        -0.37654552123823    1.18192111479669    3.31307840170893
C         2.34675134942984   -2.57913985549680    0.60402272228292
C         3.15961133714391   -1.41517326260942    0.58757865523665
C         2.93575336625488   -0.68240041001876    1.81594552127982
C         1.94711995333072   -1.40137129016405    2.56562546609814
C         1.57922242624474   -2.56498740483546    1.79637085478813
C         3.17692855413310    1.42621437638455    0.58688682054668
C         2.33316289579514    2.58713819245210    0.58474723997498
C         1.57322874627186    2.58722238782181    1.81154810466105
C         1.94665916247292    1.42577881355441    2.56850773134029
C         2.93672715648864    0.70385732730123    1.81498439520047
C        -0.36586683673794    3.44993076165037    0.58333820912043
C        -1.73711556062056    3.00688330509664    0.58599501837970
C        -1.97526245453978    2.29791617647508    1.80897942080864
C        -0.73888581874437    2.28265418673854    2.56846006825897
C         0.24951178817258    3.00256761079025    1.80848803596299
C        -3.40221585590266    0.72608554730262    0.57359535227050
C        -3.40035571346734   -0.70681107825017    0.57361048813707
C        -2.77266962529770   -1.14014968838466    1.80704027869720
C        -2.42874952743528    0.00678079629243    2.56225349218163
C        -2.77658774530237    1.15723180610608    1.80716468545694
C        -1.73068356012122   -2.98340145857833    0.58931527157313
C        -0.35849726478036   -3.43270747856354    0.58162694191571
C         0.25299697687867   -3.00386743867063    1.81859942291424
C        -0.72879920645016   -2.27499908589735    2.56620000787764
C        -1.97050310226602   -2.28334556985328    1.80759430144107
C        -0.24266976985547   -2.98913305896173   -1.79498967308152
C         0.74815833649058   -2.26881662932823   -2.55764841287617
C         1.97599788816232   -2.28764795752558   -1.83347786134835
C         1.85062257039548   -3.21244592114480   -0.64453355876324
C         0.35984065199188   -3.45970906673835   -0.59548394890857
C         2.77566781740309   -1.16519939253656   -1.82098236372413
C         2.39927209399505    0.00217868465578   -2.57463153490223
C         2.77872766304513    1.16441772773296   -1.81790964627676
C         3.39596422846297    0.71897008611046   -0.59351373024554
C         3.40564509120883   -0.71573193637091   -0.59357344777926
C         1.96602271597652    2.29230942388913   -1.81922757779772
C         0.73832358139242    2.29537682733251   -2.57951410142026
C        -0.25060112708720    3.01838159403583   -1.82561899157917
C         0.36354140572425    3.45630087623455   -0.59640631094753
C         1.73620238593403    3.01422294473032   -0.59791836278525
C        -1.57441518233129    2.59028175354921   -1.82395864170598
C        -1.95372695135120    1.42580551251605   -2.58576092700095
C        -2.94979040427438    0.70495879872353   -1.83076191616527
C        -3.18087551557772    1.42437573187426   -0.60496081222852
C        -2.33330527479347    2.59096425027576   -0.60395519592540
C        -2.95047604727653   -0.68409253061139   -1.83154861340993
C        -1.95296390787279   -1.40463923902221   -2.58094898022473
C        -1.57515595688762   -2.56680279303071   -1.81209492261614
C        -2.33231393856000   -2.56696209161741   -0.60215609041423
C        -3.18358649077571   -1.40480934193005   -0.60443956558244
C        -0.99652408847355   -0.71145057300951   -3.30722349319951
C        -0.99836390885104    0.73058806240471   -3.31269891155290
C         0.37421987929787    1.17469343587895   -3.31332437987588
C         1.21790974203184    0.00763381673875   -3.30908006133078
C         0.37634207369201   -1.15305722715255   -3.30434650319576
Cl       -1.92870280460606   -0.01276540065788    5.25468786044726
Cl        2.75530666892203   -4.79471879612975   -0.97676846349797
62
 energy: -137.536881249729 gnorm: 0.002445697713 xtb: 6.4.1 (a3dbbd7)
C        -1.30140204982937    0.00399943132451    3.53006262306974
C        -0.37155665240569   -1.16979082970516    3.31115279171306
C         0.97741750850013   -0.71183210616919    3.28836009313545
C         0.97439050722272    0.73050790384569    3.28845526720027
C        -0.37640949163693    1.18166177260092    3.31304675501691
C         2.34476603958156   -2.57812244337345    0.60268501338342
C         3.15893094175805   -1.41547907848249    0.58668409206585
C         2.93502729080488   -0.68240116137396    1.81537066475871
C         1.94666775817196   -1.40118357582853    2.56473481523757
C         1.57882243953875   -2.56531303852324    1.79537460901285
C         3.17725615762882    1.42653669888609    0.58668796702493
C         2.33347305310127    2.58704691556355    0.58456302474613
C         1.57340393924496    2.58709539366653    1.81144152246215
C         1.94679618023130    1.42544756712344    2.56828375512189
C         2.93676914198214    0.70379342536721    1.81488410928581
C        -0.36574016112942    3.44967930897420    0.58315848274868
C        -1.73683368664860    3.00655610686298    0.58577484874395
C        -1.97497552619234    2.29738843113532    1.80884009728336
C        -0.73871448961918    2.28235571158238    2.56835798644365
C         0.24975494615965    3.00224908725277    1.80840632368410
C        -3.40252797546194    0.72612937255982    0.57366809641072
C        -3.40036371129006   -0.70669715891443    0.57352532543715
C        -2.77283207716585   -1.14017724254132    1.80714280555190
C        -2.42890432333129    0.00655837445788    2.56225297079494
C        -2.77688937805266    1.15732788185904    1.80720133991928
C        -1.73014812597199   -2.98282553287119    0.58917034461612
C        -0.35826054009194   -3.43262312830056    0.58182981358026
C         0.25249769337026   -3.00501466028440    1.81976675993101
C        -0.72892688243606   -2.27579886771047    2.56690065325707
C        -1.97018684867670   -2.28311996621737    1.80736028730691
C        -0.24247769449290   -2.98833503233669   -1.79388533849485
C         0.74828366330980   -2.26815439146320   -2.55678363218839
C         1.97652913831638   -2.28822477457000   -1.83301085550645
C         1.85159205751278   -3.21432295896808   -0.64506763618293
C         0.36062154279953   -3.46021765578330   -0.59514867955041
C         2.77567238366744   -1.16528384276120   -1.82081584630080
C         2.39887030014641    0.00192054589551   -2.57424678792075
C         2.77857520739128    1.16415217165333   -1.81776342501166
C         3.39644789673025    0.71914392899209   -0.59364069074199
C         3.40661739352107   -0.71525134992775   -0.59376471931072
C         1.96618773184401    2.29236165852115   -1.81928534140182
C         0.73834948907069    2.29529263130403   -2.57951017441613
C        -0.25057276909627    3.01834794962022   -1.82571536502538
C         0.36368608950331    3.45625825299336   -0.59651310272431
C         1.73645294151125    3.01428489386760   -0.59814958618054
C        -1.57438489002171    2.59020049849058   -1.82413530905922
C        -1.95381575521473    1.42582924242095   -2.58598500624846
C        -2.94998430264413    0.70493975584807   -1.83087878857251
C        -3.18097179173804    1.42425080736607   -0.60503550646383
C        -2.33326490525283    2.59079543498630   -0.60400040937143
C        -2.95076934774630   -0.68414623014393   -1.83165154120787
C        -1.95295395362080   -1.40444220918377   -2.58086506695731
C        -1.57482243239567   -2.56626926516285   -1.81179599991466
C        -2.33222861353674   -2.56662112662804   -0.60207414583546
C        -3.18388066252293   -1.40471241470042   -0.60447822466150
C        -0.99652609984669   -0.71134054779782   -3.30696981624751
C        -0.99832257599953    0.73069746884521   -3.31287226434639
C         0.37423162201062    1.17483272709155   -3.31350393400441
C         1.21790480741207    0.00766096781254   -3.30907989350675
C         0.37621679730840   -1.15299970646682   -3.30374406121409
Cl       -1.92828273480893   -0.01357116488687    5.25425689707629
Cl        2.75392804427053   -4.78976893081487   -0.97396112758911
62
 energy: -137.536893007776 gnorm: 0.001401348869 xtb: 6.4.1 (a3dbbd7)
C        -1.30133763029341    0.00376062904175    3.53018972799881
C        -0.37153463625016   -1.17009431208317    3.31116578991943
C         0.97750009809040   -0.71209483652453    3.28852988264574
C         0.97451969888782    0.73021699878088    3.28837625267613
C        -0.37624266066662    1.18137981308403    3.31298434098664
C         2.34394650309178   -2.57723092409358    0.60254679577616
C         3.15870249265842   -1.41510624030926    0.58665856097423
C         2.93523075496485   -0.68243452031947    1.81561254885277
C         1.94685849705730   -1.40118559220929    2.56489101009189
C         1.57856524940215   -2.56496300394825    1.79531192724156
C         3.17754217858658    1.42647242653078    0.58658256897630
C         2.33375483205721    2.58685230963787    0.58454277597113
C         1.57358431801566    2.58680163105826    1.81139690919745
C         1.94697829463558    1.42512908349802    2.56818942087824
C         2.93713422265776    0.70368876606856    1.81495513733220
C        -0.36553399985804    3.44933224029449    0.58312995916816
C        -1.73660368746029    3.00623190625794    0.58574793195706
C        -1.97473996576094    2.29700359719595    1.80878894390937
C        -0.73852411115109    2.28204236945367    2.56827325845574
C         0.24996651174596    3.00191528834170    1.80838859596334
C        -3.40238025495749    0.72583971399871    0.57361092745838
C        -3.40024472392963   -0.70695916157947    0.57353919238613
C        -2.77293059033293   -1.14046042440728    1.80732507260435
C        -2.42881292100095    0.00625061598867    2.56227156410906
C        -2.77673596670163    1.15706804936418    1.80713033147767
C        -1.73054589378894   -2.98305226467386    0.58923778211316
C        -0.35862145078384   -3.43213035414330    0.58184628553234
C         0.25226497018992   -3.00507646135680    1.81987538101196
C        -0.72917697198809   -2.27623195027980    2.56718161492344
C        -1.97046877221087   -2.28351642415292    1.80753226324285
C        -0.24279276580636   -2.98806808285148   -1.79395502338961
C         0.74798411032663   -2.26787154928299   -2.55690223005924
C         1.97589548171951   -2.28729534380642   -1.83268885502616
C         1.85162369026634   -3.21411665693822   -0.64490442919020
C         0.36016582433169   -3.45917435961834   -0.59502445595579
C         2.77536071620590   -1.16480610733923   -1.82087446521559
C         2.39907951274599    0.00205557359572   -2.57466614125905
C         2.77894818650026    1.16419866768171   -1.81805145338091
C         3.39684822446666    0.71925859406730   -0.59389198666311
C         3.40666280312072   -0.71504998910287   -0.59382400222876
C         1.96646971786332    2.29233906027900   -1.81941480485910
C         0.73851619401298    2.29507707187726   -2.57952807324281
C        -0.25037186634332    3.01806915477354   -1.82567074049606
C         0.36389606422083    3.45599779115765   -0.59650552830324
C         1.73671014047337    3.01408837653787   -0.59820504512918
C        -1.57415101225524    2.58986598514603   -1.82409321817639
C        -1.95363067090910    1.42557255238105   -2.58597861920532
C        -2.94981093336140    0.70467604072845   -1.83090693153731
C        -3.18074091239345    1.42393630814801   -0.60508778863999
C        -2.33305942718991    2.59047053152489   -0.60398256998664
C        -2.95079103164110   -0.68440228096976   -1.83172235811057
C        -1.95305453723400   -1.40464860091348   -2.58108374086865
C        -1.57514137201556   -2.56650463975897   -1.81201094356426
C        -2.33255435705636   -2.56695631845686   -0.60215026161145
C        -3.18393370998205   -1.40494530729419   -0.60452971145905
C        -0.99655409180896   -0.71149782063815   -3.30720053150264
C        -0.99818875979258    0.73053969568228   -3.31298961770076
C         0.37433007226060    1.17472533807646   -3.31364484315178
C         1.21807460734911    0.00766046609186   -3.30947753789358
C         0.37618840859558   -1.15303877413018   -3.30414970540347
Cl       -1.92813247424644   -0.01345265308085    5.25408391311403
Cl        2.75225003741400   -4.78488976520209   -0.97171319387259
62
 energy: -137.536895912396 gnorm: 0.000485504885 xtb: 6.4.1 (a3dbbd7)
C        -1.30126311118138    0.00368022328350    3.53034263804327
C        -0.37148746207589   -1.17019721621123    3.31117051075737
C         0.97755876106633   -0.71220084340563    3.28861357140232
C         0.97461380688713    0.73013615192754    3.28836060807452
C        -0.37616175880519    1.18127694083217    3.31295459714189