64
 energy: -146.689865493355 gnorm: 0.054184712976 xtb: 6.4.1 (a3dbbd7)
C        -1.33896507946733    0.00197525791945    3.65858278469600
C        -0.39840159306743   -1.29447519602129    3.65507777843550
C         0.93280346460324   -0.74343524563691    3.22587393875311
C         0.94344044153292    0.67037883630569    3.20398944462025
C        -0.40405256078006    1.09720184327724    3.22966085524878
C         2.28820310599263   -2.56304942260540    0.55955327305894
C         3.13938664648117   -1.40670040194002    0.55932823971076
C         2.88889821502776   -0.68966985933242    1.77210802807838
C         1.90226402548599   -1.40174225863611    2.53364288859771
C         1.53110039091413   -2.59287914770702    1.77430029435207
C         3.17777763707833    1.41505438353106    0.54869350693133
C         2.33207973004026    2.57783745392892    0.55199442759066
C         1.56532371350794    2.54582262701898    1.77042879463684
C         1.90981583605423    1.37563739092785    2.50033149898003
C         2.91426339303757    0.68998827268674    1.76458545227497
C        -0.36266033355221    3.41336694324267    0.57550664740422
C        -1.72545221381902    2.96094261342781    0.57919615499396
C        -1.98436257502787    2.24510284363371    1.79173704927883
C        -0.73364883730954    2.22672971613009    2.54619431184341
C         0.24570119247397    2.94874964721502    1.78450497933985
C        -3.34254944693896    0.71629151667433    0.58106961041639
C        -3.30773265995745   -0.69964978458581    0.55214102802405
C        -2.69782505397946   -1.14182523194519    1.77950178273158
C        -2.64115364581406   -0.02346205808281    2.77592112852295
C        -2.78863706093246    1.14772729656464    1.83542971703327
C        -1.68177141739094   -2.93583993523005    0.54410851617120
C        -0.34596722572055   -3.40618488805152    0.56590323546002
C         0.23930392209133   -3.01976253328986    1.82079240839748
C        -0.82600359770380   -2.52303194335404    2.76785547521216
C        -1.91032858901928   -2.22654999411620    1.77632780229631
C        -0.21848091129072   -2.97518954824702   -1.85485857404928
C         0.76777483571871   -2.26032048748435   -2.62597929954679
C         1.97844628254669   -2.26493998870231   -1.85721130042524
C         1.73523953234693   -2.98158611628355   -0.63394266621267
C         0.37605590861453   -3.40820241400895   -0.62035363073227
C         2.79244994765466   -1.14632413865711   -1.85259062880127
C         2.42036964812718    0.01875697462853   -2.60670630651808
C         2.79659697273320    1.17903186086852   -1.84730274940615
C         3.40099150645245    0.72651773964756   -0.62683293462474
C         3.38319483509687   -0.71397970029555   -0.61729257309953
C         1.98243446198807    2.30053138449173   -1.84481521704420
C         0.76013103426205    2.30520515534978   -2.60053278829708
C        -0.23042706771531    3.01463312689124   -1.83901968767102
C         0.36744019582913    3.43704630933294   -0.60367119246884
C         1.74307834842780    3.00903727814320   -0.61975101726380
C        -1.54542594927348    2.58441855056596   -1.83938643847744
C        -1.91782369228535    1.43485037453062   -2.61139383255922
C        -2.90111540520829    0.71494890269151   -1.84126648964409
C        -3.12514890514520    1.40902309125513   -0.60278833907901
C        -2.29847185753894    2.56953968744476   -0.61386692064463
C        -2.89070382395416   -0.66685683800324   -1.85885874666943
C        -1.91242293490719   -1.38337379230993   -2.63698880743818
C        -1.52939095677483   -2.53756922703658   -1.86488232018212
C        -2.26149607849517   -2.52557508835331   -0.63635891804253
C        -3.10092065297133   -1.37206120802979   -0.63247308901952
C        -0.96194991628813   -0.69074140002846   -3.35829155292556
C        -0.96615251841705    0.74831926581143   -3.34429736427660
C         0.40154266969658    1.19013165876588   -3.33882723152243
C         1.24754567561413    0.02614567318400   -3.34219697926968
C         0.40570725477614   -1.13904188573853   -3.35133413545599
Cl       -1.77635841044346    0.49589368392683    5.33643318938609
Cl       -4.11214054521108   -0.25196453155935    3.81051747768973
Cl       -0.06636832263490   -1.86990744961823    5.33092908813664
Cl       -1.48670348556633   -3.85867322859428    3.80017983271938
64
 energy: -146.696061476102 gnorm: 0.025298010266 xtb: 6.4.1 (a3dbbd7)
C        -1.33189341379339    0.00763170299198    3.63930531526747
C        -0.38941533767758   -1.28998829286123    3.63642371544395
C         0.95248800867028   -0.74028550959701    3.22927270762682
C         0.95340209543440    0.67787978579458    3.21237921427713
C        -0.39543733796286    1.11503784434361    3.23396803417945
C         2.30999515695154   -2.57785756025529    0.55598730647112
C         3.15704677726406   -1.41356116420559    0.56097675920276
C         2.91117216898762   -0.69650714967993    1.78176627423840
C         1.92226037866300   -1.41183142231166    2.53731277300893
C         1.55204484173814   -2.60203115534973    1.77452406896026
C         3.18730709751238    1.41904106920204    0.56668067207887
C         2.33902247756596    2.58593753491654    0.57047118947555
C         1.57209199073156    2.56444263694814    1.78911447366005
C         1.92966364003706    1.39002765112469    2.51983077236507
C         2.93404536525540    0.69066381382629    1.78291049920653
C        -0.36411923655279    3.43237725688659    0.57759808162318
C        -1.73314315921631    2.98629821981703    0.57544032954112
C        -1.98657522948861    2.26757904155028    1.79165726526761
C        -0.73736374822925    2.24865239713765    2.54998293962379
C         0.24588723807360    2.97168920923326    1.79434820133238
C        -3.35757771951375    0.72621250411153    0.57472287857947
C        -3.32400719232129   -0.70197470875251    0.55425340961792
C        -2.70812140387746   -1.14454374652510    1.77344856747680
C        -2.63489227351937   -0.01484611504075    2.76001909994533
C        -2.79815815086275    1.16641746992484    1.82255964811919
C        -1.68935272136102   -2.95124618658817    0.54642497008300
C        -0.34135588429556   -3.42403240417403    0.56001376329269
C         0.25414845765943   -3.03390499737035    1.80785271011369
C        -0.81587157783524   -2.51903039112987    2.75185449485962
C        -1.91623699557462   -2.23524397879710    1.77020167286778
C        -0.22845855538540   -2.99315570719962   -1.86058698435022
C         0.76210395460625   -2.27231241237656   -2.62157871584547
C         1.98410810853018   -2.27738063384157   -1.85932417435654
C         1.74490186162491   -3.00138329170155   -0.63853990556175
C         0.37969269525087   -3.43290295941342   -0.63071576013494
C         2.79729573041054   -1.15268198045922   -1.84925836802240
C         2.42109733964563    0.01616120581657   -2.60055052230037
C         2.79901908318585    1.17829939327942   -1.83691881005826
C         3.40842363242187    0.72689669688361   -0.61415708922972
C         3.39781818888348   -0.71650050614676   -0.61470774699183
C         1.98243043795257    2.30264005805097   -1.83359049438581
C         0.75783606918381    2.30580590068492   -2.59317752800539
C        -0.23510634898454    3.02093516465231   -1.83506531594835
C         0.36930847312597    3.45161392363331   -0.60042515402541
C         1.74549426296968    3.01588369647593   -0.60643956274557
C        -1.55582857204154    2.59418386017199   -1.84197073746013
C        -1.93114814704535    1.43391139788339   -2.60807309821178
C        -2.92064127071335    0.71129552042050   -1.84742986733548
C        -3.14708944902279    1.42014291496251   -0.61361487000526
C        -2.31453048921247    2.58507720319614   -0.61888678156373
C        -2.91524459938063   -0.67546387311020   -1.86077203817607
C        -1.92864901071974   -1.39543229864116   -2.62850403556841
C        -1.54562921747478   -2.55916941911541   -1.86701515589855
C        -2.28263724596460   -2.54445083939451   -0.63592439581403
C        -3.12459166313201   -1.38643886522750   -0.63202612707428
C        -0.97290132545543   -0.69866257878046   -3.35069015784605
C        -0.97479976352184    0.74325857378615   -3.33943206858963
C         0.39589986687089    1.18686570039678   -3.33184195934745
C         1.24306494968901    0.02119134810329   -3.33579298223417
C         0.39796805172200   -1.14574628476243   -3.34602431529029
Cl       -1.76998987547248    0.46470324461229    5.32769671449361
Cl       -4.12500088063479   -0.19886155808668    3.77699082635698
Cl       -0.08853700929080   -1.85194202475657    5.32298389411032
Cl       -1.44438609547832   -3.88711150863856    3.76239038926597
64
 energy: -146.696364824835 gnorm: 0.013471289303 xtb: 6.4.1 (a3dbbd7)
C        -1.33246720626949    0.01208111627007    3.63635487393151
C        -0.38546753512492   -1.29131041877593    3.63176869827258
C         0.96052293838614   -0.73865759330709    3.22988996073603
C         0.95599432245457    0.68010887758310    3.21792646836538
C        -0.39187364480038    1.12261391917076    3.23570547728296
C         2.32283231667530   -2.58578318295741    0.55433553322871
C         3.16616374147028   -1.41670431374634    0.56234479814881
C         2.92193351650565   -0.69978392368912    1.78749092926653
C         1.92992176192232   -1.41632317582392    2.53736388560740
C         1.56313864040872   -2.60359810818595    1.77360658826815
C         3.19028900397269    1.42000195077272    0.57669081336577
C         2.34093716614937    2.58872904822616    0.58077638884821
C         1.57480276699491    2.57298104874361    1.79994719444919
C         1.93984889696962    1.39749895474248    2.53294714515492
C         2.94278881906552    0.69066380694329    1.79344488995710
C        -0.36457070229665    3.44206272578824    0.57923886380562
C        -1.73696410155282    3.00097106473035    0.57374692998321
C        -1.98457834093220    2.27837687093129    1.79061112157233
C        -0.73950624050424    2.25735559886373    2.55019926213482
C         0.24594954090692    2.98282171538075    1.80024651609276
C        -3.36292643841368    0.73039343681147    0.57011497081229
C        -3.33158148153881   -0.70477566850562    0.55698597166956
C        -2.71262311570272   -1.14484687156033    1.77005750786186
C        -2.62659576343096   -0.00886628893145    2.75073563119384
C        -2.79542880557098    1.17377786305569    1.80833161864909
C        -1.69455088521622   -2.95798355033501    0.54933851442205
C        -0.33911113177813   -3.43090046798098    0.55571503971205
C         0.26213890906793   -3.03341708727169    1.79357683588436
C        -0.80731611432387   -2.51178844293573    2.74190201057439
C        -1.91814399212910   -2.23904405842969    1.76667458741018
C        -0.23387386741761   -3.00116143358017   -1.86310541486940
C         0.75827716602921   -2.27823800640405   -2.61761887993881
C         1.98624267606177   -2.28378975683056   -1.85840431895142
C         1.74929555979602   -3.01255980300569   -0.63942580549403
C         0.38152144120952   -3.44726295442661   -0.63656844773329
C         2.79807837935817   -1.15639209315971   -1.84570318091500
C         2.41967540818606    0.01415890153931   -2.59512886819742
C         2.79815480335326    1.17684417710688   -1.82982435467510
C         3.41077899048316    0.72661448880895   -0.60665872385073
C         3.40504819848855   -0.71755449005945   -0.61264238853618
C         1.98067189813964    2.30191941309971   -1.82593350900489
C         0.75541337502440    2.30445033438500   -2.58708932373056
C        -0.23854818751590    3.02253996457460   -1.83116444352090
C         0.37032675781275    3.45866414523979   -0.59803837579319
C         1.74570565076329    3.01809646708009   -0.59862006552068
C        -1.56157201156565    2.59856544478526   -1.84141568584983
C        -1.93809227979592    1.43249101655931   -2.60477109557540
C        -2.92956226814051    0.70869487489152   -1.85024546451540
C        -3.15982973062521    1.42622219312862   -0.61973130009643
C        -2.32393931482777    2.59281522882620   -0.61999589965610
C        -2.92760001436033   -0.68010999771228   -1.86059697856014
C        -1.93691840376956   -1.40168317512572   -2.62215662400595
C        -1.55412277772698   -2.57019959471858   -1.86702436058160
C        -2.29626097509251   -2.55536448311741   -0.63473596696630
C        -3.13859840618446   -1.39613930101518   -0.63082360214929
C        -0.97849371478859   -0.70274236047327   -3.34457332456473
C        -0.97925532104794    0.73990836220167   -3.33454474777952
C         0.39234652424841    1.18419189394224   -3.32534306450600
C         1.23965528606620    0.01821358720638   -3.32950874187390
C         0.39332847282705   -1.14904892685109   -3.34098441381545
Cl       -1.81575523861101    0.50434935796868    5.30401851416071
Cl       -4.13264147048980   -0.13939826911827    3.75701227177038
Cl       -0.06474749130414   -1.91467875290066    5.29456921320863
Cl       -1.38991845634309   -3.90679888189435    3.74703725508168
64
 energy: -146.697080587352 gnorm: 0.006347775166 xtb: 6.4.1 (a3dbbd7)
C        -1.33257309190323    0.01053505213768    3.63279090687920
C        -0.38674388142731   -1.29129040001370    3.62813292414583
C         0.96052111068852   -0.73719555181775    3.22728730151199
C         0.95553177516388    0.67996217981470    3.21545471683593
C        -0.39066126225076    1.12243760922052    3.23358585740578
C         2.32535445116009   -2.58716722506937    0.55478776494344
C         3.16750784539139   -1.41719321361583    0.56295107697116
C         2.92333284182839   -0.70009419305937    1.78862789828919
C         1.93009279894078   -1.41687893724973    2.53699009137987
C         1.56473706992511   -2.60249591013997    1.77393765283687
C         3.19007313492044    1.41977037092374    0.57748716502475
C         2.34066437815114    2.58871448764004    0.58161598426594
C         1.57512580117437    2.57415481210581    1.80099907826091
C         1.94227200610577    1.39934941990513    2.53472406654405
C         2.94380587209216    0.69065070688265    1.79441392971542
C        -0.36466134595989    3.44354257206386    0.57982226239388
C        -1.73754495033438    3.00387384640438    0.57411283081619
C        -1.98293526444717    2.27956948789296    1.79079485348768
C        -0.74001354611692    2.25772083648780    2.54976351699281
C         0.24606582839355    2.98431259282312    1.80138606301210
C        -3.36213292131892    0.73022063674864    0.56854802584397
C        -3.33233790812605   -0.70638881127874    0.55763795593327
C        -2.71334478413067   -1.14460314844065    1.76850156591213
C        -2.62608054715679   -0.00854092480349    2.74900433671297
C        -2.79096360102742    1.17307866445164    1.80184185530189
C        -1.69630178228131   -2.95830218469724    0.54992057836528
C        -0.33902106764611   -3.43024602456854    0.55415991278452
C         0.26276524328107   -3.02902691602132    1.78710936410413
C        -0.80701719114095   -2.51182923353777    2.74024414998741
C        -1.91797591495792   -2.23969303506205    1.76490862724421
C        -0.23455115794721   -3.00139695748292   -1.86346642036150
C         0.75736823265079   -2.27876592217694   -2.61613156780418
C         1.98605627580265   -2.28462786122073   -1.85678853269930
C         1.74937083573940   -3.01453959144992   -0.63823162375276
C         0.38180002898062   -3.45011383336508   -0.63769945125383
C         2.79714381376582   -1.15728366738600   -1.84407811206805
C         2.41840021053109    0.01334753526524   -2.59313762981687
C         2.79676624121689    1.17594629465144   -1.82820109124249
C         3.41050528556051    0.72620131877526   -0.60569711737342
C         3.40581162793413   -0.71771788797599   -0.61190692538731
C         1.97934576298674    2.30073198399678   -1.82417389796973
C         0.75422412522549    2.30330048784390   -2.58501140289886
C        -0.23974358862026    3.02179541431609   -1.82952878913292
C         0.37037063238906    3.45939511443305   -0.59735217016927
C         1.74514860121531    3.01791103048073   -0.59765906412466
C        -1.56254825115436    2.59875084091546   -1.83996673242167
C        -1.93892543483854    1.43181676220312   -2.60343238307853
C        -2.92994428297851    0.70808587365572   -1.85065466291281
C        -3.16235807495457    1.42728495552891   -0.62087345121443
C        -2.32584152348125    2.59351610301460   -0.61889183283676
C        -2.92892372492068   -0.68062370226174   -1.86043665670074
C        -1.93771547499880   -1.40233783778425   -2.62049668951953
C        -1.55506472615290   -2.57152526223038   -1.86698770070988
C        -2.29976673160564   -2.55748208155560   -0.63482812428809
C        -3.14153404429643   -1.39886688016403   -0.63084101754669
C        -0.97898002490322   -0.70311309445385   -3.34278082066482
C        -0.97973717992171    0.73911798650200   -3.33259507769974
C         0.39155812436180    1.18329447058479   -3.32287420619166
C         1.23862246994758    0.01760399201352   -3.32700117246907
C         0.39246296159036   -1.14932282369483   -3.33906642182462
Cl       -1.77346278136724    0.46550440932158    5.32248157623382
Cl       -4.14765628409827   -0.12311526527120    3.73714602936179
Cl       -0.08563601095486   -1.85977171829037    5.31373006533594
Cl       -1.38175953008936   -3.92767533633690    3.72421967095536
64
 energy: -146.697191590876 gnorm: 0.003078227721 xtb: 6.4.1 (a3dbbd7)
C        -1.33307855102315    0.00880637000585    3.63088225611247
C        -0.38812129597504   -1.29170721928277    3.62715797292638
C         0.95890698048415   -0.73751136127555    3.22782848916363
C         0.95464308841831    0.67923789694245    3.21432504687332
C        -0.39138945701005    1.12082387022999    3.23393503516386
C         2.32212368755546   -2.58456048702389    0.55510896373080
C         3.16507827714229   -1.41600947572654    0.56232259121427
C         2.92012195414357   -0.69871013436252    1.78659907089932
C         1.92793024555006   -1.41528142304488    2.53677884234109
C         1.56246007445340   -2.60184985501589    1.77438009590972
C         3.18888295011673    1.41937937853263    0.57390756599012
C         2.33992458485889    2.58763720927343    0.57794188399283
C         1.57430125192882    2.57105592679462    1.79724538618330
C         1.93929082060254    1.39716639635210    2.53098613012410
C         2.94064308491076    0.69079656051624    1.79075035070619
C        -0.36417710645484    3.44084240334217    0.57908687461880
C        -1.73597539545368    3.00002863481219    0.57440458358415
C        -1.98303398771607    2.27731706323086    1.79120947299189
C        -0.73909829865238    2.25505241939749    2.54943009526899
C         0.24642883918012    2.98081758233499    1.79929204534188
C        -3.35967637134848    0.72858268106070    0.56989823638123
C        -3.33050815325681   -0.70638470953054    0.55781857404068
C        -2.71435531048609   -1.14588869979899    1.77088140087008
C        -2.62599609650958   -0.00964739791657    2.74991239872429
C        -2.78984494467010    1.17122290159966    1.80390612018699
C        -1.69564416017838   -2.95635610075486    0.55001073212351
C        -0.33979600979530   -3.42719948494575    0.55544532991329
C         0.26122822259894   -3.02741767807399    1.78926615901741
C        -0.80824607798183   -2.51191168182115    2.74153139456908
C        -1.91931006715821   -2.24024789544403    1.76721422654372
C        -0.23276873383745   -2.99838426230004   -1.86257899144362
C         0.75835921277924   -2.27660160031712   -2.61712543762090
C         1.98525099951452   -2.28236407842085   -1.85672269833705
C         1.74773463407372   -3.01085766048169   -0.63759339363196
C         0.38133459242853   -3.44563142724307   -0.63578118411465
C         2.79668492803446   -1.15615976928494   -1.84511117210238
C         2.41858619402594    0.01390962806484   -2.59471342278913
C         2.79677439846024    1.17628155863299   -1.83052540583037
C         3.40967962103722    0.72632826251792   -0.60836223996291
C         3.40366442803196   -0.71720537566786   -0.61272504707707
C         1.97970886583272    2.30070560054534   -1.82665588309270
C         0.75485388849603    2.30347955418677   -2.58680708318249
C        -0.23875173369401    3.02107922588407   -1.83068332437777
C         0.37028627781952    3.45722973339600   -0.59830644308782
C         1.74510027778959    3.01708825352493   -0.60044454461493
C        -1.56054782159236    2.59720068437199   -1.83983509632680
C        -1.93652631859302    1.43197212436825   -2.60425385547641
C        -2.92666658862378    0.70883908715614   -1.84970226611731
C        -3.15836030071505    1.42550185408146   -0.61889111747025
C        -2.32279420729976    2.59080568074635   -0.61822028370695
C        -2.92472054957009   -0.67901093899791   -1.85979304043734
C        -1.93476880793936   -1.40011417468365   -2.62148160653655
C        -1.55217108550191   -2.56780658508513   -1.86631689281622
C        -2.29615922008732   -2.55422294288694   -0.63455080094154
C        -3.13752463627325   -1.39638423223736   -0.63054445094729
C        -0.97709706360298   -0.70172793277281   -3.34425020249019
C        -0.97818971164690    0.74001016474724   -3.33385534484493
C         0.39269772065257    1.18404158615226   -3.32473837036481
C         1.23961266373153    0.01856730844271   -3.32876985210602
C         0.39382263109796   -1.14810136205917   -3.34038952324444
Cl       -1.78733975921429    0.45499682030813    5.31894654977587
Cl       -4.13254241764930   -0.12948268257511    3.75663253268854
Cl       -0.09803027612687   -1.86526377583393    5.31269014684909
Cl       -1.38455738050683   -3.91452960015860    3.74033132992734
64
 energy: -146.697218508467 gnorm: 0.001988863202 xtb: 6.4.1 (a3dbbd7)
C        -1.33426815795637    0.00931662572670    3.63398579035170
C        -0.38828744342538   -1.29241252685557    3.62940435020049
C         0.95827778551612   -0.73792016033880    3.22821976933436
C         0.95381904811011    0.67864291500068    3.21448272002870
C        -0.39206385140248    1.12027576285151    3.23443446536679
C         2.32183391872552   -2.58452398153558    0.55527452324574
C         3.16474949673269   -1.41608006136509    0.56241708348585
C         2.91943681939820   -0.69876424010258    1.78653169533571
C         1.92721721133499   -1.41532948492777    2.53678979363498
C         1.56247079693926   -2.60226795014438    1.77485518963285
C         3.18839687522069    1.41912461025990    0.57382004228099
C         2.33949787396986    2.58726879448342    0.57785935261637
C         1.57370746902239    2.57022196788580    1.79706926195216
C         1.93834190025019    1.39647134300162    2.53083377248409
C         2.93969953145019    0.69052157065149    1.79056827246475
C        -0.36439384045710    3.44048763543313    0.57923109577460
C        -1.73607043082299    2.99967613973262    0.57462658991456
C        -1.98350446874603    2.27739570465599    1.79176554036853
C        -0.73943153826735    2.25430254897740    2.54950913714365
C         0.24609963594316    2.98009097092294    1.79926937014788
C        -3.35893092977323    0.72805373755038    0.57007903734285
C        -3.33008221878212   -0.70669777210334    0.55841916487790
C        -2.71446425655771   -1.14570804076199    1.77203477692650
C        -2.62698315102581   -0.00943226684962    2.75124646408182
C        -2.78905453727549    1.17057067853113    1.80358279219255
C        -1.69581276513350   -2.95576740882641    0.55072024252134
C        -0.34005558455393   -3.42631244362008    0.55573272883013
C         0.26097192688326   -3.02647865397006    1.78900948457720
C        -0.80810046617460   -2.51202820926799    2.74251325504061
C        -1.91933123733938   -2.24022287930110    1.76840051772484
C        -0.23262796943837   -2.99803324747320   -1.86247583353145
C         0.75838668892069   -2.27636627914605   -2.61717100076132
C         1.98509447289551   -2.28214205851758   -1.85653888315395
C         1.74732533560592   -3.01052063230958   -0.63730808717599
C         0.38118584882737   -3.44509080368471   -0.63543449868946
C         2.79658596553274   -1.15613363968140   -1.84506431160315
C         2.41858022114489    0.01394789864913   -2.59472754677658
C         2.79669973516510    1.17626741325779   -1.83054500391158
C         3.40942596395727    0.72624337769029   -0.60838092877484
C         3.40334933122930   -0.71725487347809   -0.61259401729581
C         1.97964473815794    2.30066914412824   -1.82667376402787
C         0.75486404797031    2.30348892119851   -2.58682781015180
C        -0.23877819951467    3.02097726382173   -1.83061905875570
C         0.37009248093200    3.45692214693943   -0.59814103381992
C         1.74489925815336    3.01687566976387   -0.60045360801462
C        -1.56039274411457    2.59696548017084   -1.83964374275162
C        -1.93629179804193    1.43190792722110   -2.60431911623978
C        -2.92630995594382    0.70884432188665   -1.84966214260635
C        -3.15790623959985    1.42518785197243   -0.61861231062707
C        -2.32260035035120    2.59028342112841   -0.61792249217047
C        -2.92423875055100   -0.67884624255677   -1.85944659077741
C        -1.93437880985885   -1.39985362938399   -2.62119148533864
C        -1.55183918944709   -2.56739897223627   -1.86592159332470
C        -2.29582720276575   -2.55376998209903   -0.63407315864464
C        -3.13701311351602   -1.39621562949403   -0.63011827748748
C        -0.97690906836591   -0.70160227822543   -3.34433089032151
C        -0.97802095392501    0.74005770832917   -3.33397667339576
C         0.39284363520087    1.18414771012599   -3.32489850462865
C         1.23974844132783    0.01869099580879   -3.32892266120200
C         0.39393970688498   -1.14795816792784   -3.34050593199182
Cl       -1.78424502652441    0.46957545389000    5.31929726110327
Cl       -4.14152272585925   -0.12821475627585    3.74666338070196
Cl       -0.08532514540103   -1.87291995420206    5.31025285527010
Cl       -1.38377654088527   -3.91893406845626    3.73593009065158
64
 energy: -146.697227352313 gnorm: 0.001192143653 xtb: 6.4.1 (a3dbbd7)
C        -1.33395742177343    0.00920893844580    3.63243543098376
C        -0.38814141501156   -1.29256251693616    3.62822657886249
C         0.95912196352568   -0.73763818259930    3.22824367822689
C         0.95406161629047    0.67890660019975    3.21469794717800
C        -0.39154733730841    1.12122616440946    3.23466012860720
C         2.32312085706373   -2.58532492417308    0.55510081902507
C         3.16558946586212   -1.41639638156843    0.56251983090190
C         2.92047849420937   -0.69908177970616    1.78708874563026
C         1.92795580413883   -1.41580305769908    2.53687693861496
C         1.56366281391022   -2.60254247134978    1.77491116433701
C         3.18866660089636    1.41920451888386    0.57466386488510
C         2.33970138578287    2.58753845617148    0.57871358570035
C         1.57398644675180    2.57106571031847    1.79798729988654
C         1.93940001903585    1.39727623586571    2.53194998566637
C         2.94048627110588    0.69050254051690    1.79147240824925
C        -0.36441325808629    3.44145579245586    0.57930915954412
C        -1.73641485777495    3.00121837069789    0.57440648737877
C        -1.98329036146504    2.27866366170387    1.79175337497612
C        -0.73959414598938    2.25525548159981    2.54955365080912
C         0.24617219411191    2.98126621823795    1.79979977526244
C        -3.35918260457797    0.72813658137739    0.56947136039171
C        -3.33100136783063   -0.70733981841558    0.55865229123158
C        -2.71509955130632   -1.14603864667271    1.77161341649668
C        -2.62558132219722   -0.00903663195661    2.75001487500217
C        -2.78815288616691    1.17102101161412    1.80155740263523
C        -1.69662472160503   -2.95659800674273    0.55081023446544
C        -0.34000377382706   -3.42673088709086    0.55501792423526
C         0.26160134873144   -3.02593363235298    1.78694385489547
C        -0.80748895773391   -2.51168829178896    2.74150949862099
C        -1.91957368606364   -2.24087666750066    1.76781905803774
C        -0.23310646177283   -2.99872925076821   -1.86301409921861
C         0.75806413841679   -2.27688165876155   -2.61698034511960
C         1.98528249940985   -2.28268737576084   -1.85647661227443
C         1.74760474916132   -3.01151120537060   -0.63736139870648
C         0.38136845609503   -3.44641529288513   -0.63620059826353
C         2.79664409074457   -1.15648506036785   -1.84478231556636
C         2.41846475961504    0.01377451277544   -2.59432528109439
C         2.79663755872130    1.17612181864190   -1.82998768970492
C         3.40963310763480    0.72621100715241   -0.60776240701517
C         3.40398814216121   -0.71735527892527   -0.61241790800780
C         1.97949325919556    2.30060917682365   -1.82607372116128
C         0.75466183142571    2.30337026374904   -2.58637131617447
C        -0.23910577043370    3.02111371000272   -1.83031850106409
C         0.37021360065980    3.45758395529760   -0.59798300801765
C         1.74494200186044    3.01707678269810   -0.59983195346783
C        -1.56088846895481    2.59733978902915   -1.83960094344446
C        -1.93690944795289    1.43177753303879   -2.60414576818243
C        -2.92707391408279    0.70858471647331   -1.85013922848447
C        -3.15903784300185    1.42570397706196   -0.61928883001778
C        -2.32346287777787    2.59085193634816   -0.61798010563632
C        -2.92535369909856   -0.67925950664769   -1.85953526434825
C        -1.93509314879325   -1.40038892634045   -2.62065466804106
C        -1.55259114439520   -2.56842910085106   -1.86611231043343
C        -2.29728952674239   -2.55493215266838   -0.63422584580811
C        -3.13846214147148   -1.39731054044775   -0.63018790256930
C        -0.97740484568878   -0.70195376024070   -3.34394721732725