64
 energy: -146.697231899938 gnorm: 0.000045320607 xtb: 6.4.1 (a3dbbd7)
C        -1.33434220160562    0.00923157349278    3.63320041740128
C        -0.38832720434790   -1.29264356237974    3.62861309377059
C         0.95879214530286   -0.73780523043632    3.22840368922356
C         0.95381280692302    0.67870464899362    3.21458425563256
C        -0.39184552080444    1.12087554383093    3.23485187197708
C         2.32265748279618   -2.58499708587452    0.55517382821060
C         3.16522221146286   -1.41626838599530    0.56243854488163
C         2.91994677020269   -0.69892253670209    1.78678863822676
C         1.92755947434988   -1.41555014981800    2.53685331959518
C         1.56342912936767   -2.60268399633985    1.77509919109143
C         3.18847200996708    1.41914244870692    0.57419411328364
C         2.33955761409839    2.58736435587464    0.57823863851212
C         1.57375245741973    2.57050545325925    1.79747286048616
C         1.93874333707622    1.39678582891021    2.53132413171799
C         2.93991923962170    0.69046605869301    1.79096287128599
C        -0.36442633449881    3.44101060054941    0.57925652625682
C        -1.73626403663541    3.00062943118295    0.57451664522145
C        -1.98356005515773    2.27845846226634    1.79200259860004
C        -0.73950614763845    2.25471526052261    2.54956643027199
C         0.24612125460630    2.98063804764456    1.79952904243707
C        -3.35875186560711    0.72777793774993    0.56966937890078
C        -3.33077269867317   -0.70738759699560    0.55873522116360
C        -2.71525185390687   -1.14615116478908    1.77219100940861
C        -2.62625921201323   -0.00918579577643    2.75063376031759
C        -2.78783484565437    1.17057053462225    1.80181491352306
C        -1.69657333351344   -2.95627428362815    0.55094734350914
C        -0.34018865118963   -3.42617843812277    0.55527863787242
C         0.26134490396190   -3.02551887646621    1.78727550569300
C        -0.80769602786091   -2.51177446371186    2.74195135283025
C        -1.91978167459190   -2.24084196747621    1.76840132161886
C        -0.23283509961873   -2.99835311769441   -1.86289166056158
C         0.75824988097438   -2.27660340636807   -2.61716854549312
C         1.98517030192446   -2.28235546400477   -1.85648195310826
C         1.74732823525555   -3.01093940593970   -0.63723737792555
C         0.38131681395035   -3.44565505253687   -0.63585169604306
C         2.79660810495422   -1.15632282496559   -1.84495250076620
C         2.41852173570532    0.01387869984933   -2.59458064868117
C         2.79666345511232    1.17618370737449   -1.83032614243799
C         3.40947899091065    0.72622832024783   -0.60811140774647
C         3.40363774199640   -0.71730466762938   -0.61250491855151
C         1.97954631352113    2.30064515834879   -1.82643218948667
C         0.75476579653778    2.30343024759833   -2.58665177109029
C        -0.23897032033859    3.02104379427936   -1.83048772256731
C         0.37012745965123    3.45721772948791   -0.59805076483575
C         1.74489254191301    3.01692457512388   -0.60018034002671
C        -1.56060047124479    2.59710299532032   -1.83958391018521
C        -1.93658107252413    1.43184657676334   -2.60432377158760
C        -2.92665922684055    0.70871235126856   -1.85005060446233
C        -3.15835911108074    1.42541788177024   -0.61897861991227
C        -2.32300151972603    2.59038322718187   -0.61783891981236
C        -2.92471819730424   -0.67901932449732   -1.85937374871547
C        -1.93465003519844   -1.40007148722931   -2.62075091968838
C        -1.55214041203764   -2.56787156038099   -1.86591543931815
C        -2.29664065523706   -2.55439361347966   -0.63411149693078
C        -3.13778699394241   -1.39686099788373   -0.63010278594719
C        -0.97715743063755   -0.70178147795717   -3.34419882370018
C        -0.97820793794459    0.73990008319335   -3.33388594416646
C         0.39273324174156    1.18406666747284   -3.32476141773035
C         1.23964460992499    0.01860336975490   -3.32879795129367
C         0.39373834651293   -1.14808191876683   -3.34042521258245
Cl       -1.78519293171404    0.46365992295365    5.31981281891381
Cl       -4.13971691216516   -0.12169510573143    3.74752255711145
Cl       -0.08990585636056   -1.86940154463452    5.31166932356883
Cl       -1.37890106052329   -3.92095457354787    3.73436426249466
