180
 energy: -572.357563606241 gnorm: 11.665971369714 xtb: 6.4.1 (a3dbbd7)
C        -1.23626340000000    0.00000000000000    3.32997640000000
C        -0.38202640000000   -1.17575640000000    3.32997640000000
C         1.00015810000000   -0.72665740000000    3.32997640000000
C         1.00015810000000    0.72665740000000    3.32997640000000
C        -0.38202640000000    1.17575640000000    3.32997640000000
C         2.34433560000000   -2.60145750000000    0.59464210000000
C         3.19857260000000   -1.42570110000000    0.59464210000000
C         2.96246730000000   -0.69904370000000    1.83090550000000
C         1.96230920000000   -1.42570110000000    2.59495830000000
C         1.58028280000000   -2.60145750000000    1.83090550000000
C         3.19857260000000    1.42570110000000    0.59464210000000
C         2.34433560000000    2.60145750000000    0.59464210000000
C         1.58028280000000    2.60145750000000    1.83090550000000
C         1.96230920000000    1.42570110000000    2.59495830000000
C         2.96246730000000    0.69904370000000    1.83090550000000
C        -0.36750900000000    3.48258920000000    0.59464210000000
C        -1.74969350000000    3.03349030000000    0.59464210000000
C        -1.98579880000000    2.30683290000000    1.83090550000000
C        -0.74953540000000    2.30683290000000    2.59495830000000
C         0.25062270000000    3.03349030000000    1.83090550000000
C        -3.42570570000000    0.72665740000000    0.59464210000000
C        -3.42570570000000   -0.72665740000000    0.59464210000000
C        -2.80757400000000   -1.17575640000000    1.83090550000000
C        -2.42554760000000    0.00000000000000    2.59495830000000
C        -2.80757400000000    1.17575640000000    1.83090550000000
C        -1.74969350000000   -3.03349030000000    0.59464210000000
C        -0.36750900000000   -3.48258920000000    0.59464210000000
C         0.25062270000000   -3.03349030000000    1.83090550000000
C        -0.74953540000000   -2.30683290000000    2.59495830000000
C        -1.98579880000000   -2.30683290000000    1.83090550000000
C        -0.25062270000000   -3.03349030000000   -1.83090550000000
C         0.74953540000000   -2.30683290000000   -2.59495830000000
C         1.98579880000000   -2.30683290000000   -1.83090550000000
C         1.74969350000000   -3.03349030000000   -0.59464210000000
C         0.36750900000000   -3.48258920000000   -0.59464210000000
C         2.80757400000000   -1.17575640000000   -1.83090550000000
C         2.42554760000000    0.00000000000000   -2.59495830000000
C         2.80757400000000    1.17575640000000   -1.83090550000000
C         3.42570570000000    0.72665740000000   -0.59464210000000
C         3.42570570000000   -0.72665740000000   -0.59464210000000
C         1.98579880000000    2.30683290000000   -1.83090550000000
C         0.74953540000000    2.30683290000000   -2.59495830000000
C        -0.25062270000000    3.03349030000000   -1.83090550000000
C         0.36750900000000    3.48258920000000   -0.59464210000000
C         1.74969350000000    3.03349030000000   -0.59464210000000
C        -1.58028280000000    2.60145750000000   -1.83090550000000
C        -1.96230920000000    1.42570110000000   -2.59495830000000
C        -2.96246730000000    0.69904370000000   -1.83090550000000
C        -3.19857260000000    1.42570110000000   -0.59464210000000
C        -2.34433560000000    2.60145750000000   -0.59464210000000
C        -2.96246730000000   -0.69904370000000   -1.83090550000000
C        -1.96230920000000   -1.42570110000000   -2.59495830000000
C        -1.58028280000000   -2.60145750000000   -1.83090550000000
C        -2.34433560000000   -2.60145750000000   -0.59464210000000
C        -3.19857260000000   -1.42570110000000   -0.59464210000000
C        -1.00015810000000   -0.72665740000000   -3.32997640000000
C        -1.00015810000000    0.72665740000000   -3.32997640000000
C         0.38202640000000    1.17575640000000   -3.32997640000000
C         1.23626340000000    0.00000000000000   -3.32997640000000
C         0.38202640000000   -1.17575640000000   -3.32997640000000
C        -1.76086815247998    0.00000000000000    4.78849957557021
F        -0.76911826531252    0.00000000000000    5.67468926254662
F        -2.50968386795825   -1.06794314680471    5.04863888333743
F        -2.50968386795825    1.06794314680471    5.04863888333743
C        -0.54413818249354   -1.67468516033722    4.78849957845317
F        -0.23767107904745   -0.73147481112462    5.67468925997942
F        -1.79120914301982   -2.05683909935453    5.04863874564184
F         0.24013968171955   -2.71686350152345    5.04863903502921
C         1.42457227037960   -1.03501233722714    4.78849957248258
F         0.62223011468481   -0.45207589682711    5.67468926529602
F         1.40265511061956   -2.33913928186680    5.04863905501621
F         2.65809836182651   -0.61117154425495    5.04863869666890
C         1.42457227037960    1.03501233722714    4.78849957248258
F         0.62223011468481    0.45207589682711    5.67468926529602
F         2.65809836182651    0.61117154425495    5.04863869666891
F         1.40265511061956    2.33913928186680    5.04863905501621
C         3.37204091334889   -3.72927672645244    0.86730596148276
F         4.06564647311728   -3.51265957144659    1.98125763710228
F         4.25569947457670   -3.84739838595791   -0.11965645964809
F         2.78580317558591   -4.91533944031226    1.00324916143779
C         4.25247495652193   -1.01957928511255    2.62817407757680
F         4.45020405360863   -2.32910962270744    2.75037677428969
F         5.33704498641440   -0.51936149478958    2.04303305824604
F         4.21414295278388   -0.51936236815955    3.85992636334025
C         2.28376457660886   -3.72927671755932    2.62817408867206
F         3.59030321655004   -3.51265997057976    2.75037870097715
F         2.14318168460923   -4.91533956626619    2.04303190988612
F         1.79618325340524   -3.84739782561575    3.85992562899767
C         4.25247495652193    1.01957928511255    2.62817407757680
F         4.45020405360857    2.32910962270745    2.75037677428973
F         5.33704498641440    0.51936149478962    2.04303305824599
F         4.21414295278389    0.51936236815949    3.85992636334022
C        -0.53602450593361    4.99908416128281    0.86730591619822
F        -1.22448605650957    5.23152837615597    1.98125850960180
F        -1.18149064144157    5.61404773804446   -0.11965571789346
F         0.63540201352706    5.61404743764837    1.00324736766175
C        -4.92005227074660    1.03501232949151    0.86730592957069
F        -5.35386609588658    0.45207588830481    1.98125865327758
F        -5.70437742108406    0.61117153086585   -0.11965558739362
F        -5.14292645153878    2.33913927311179    1.00324714649869
C        -4.92005227074660   -1.03501232949151    0.86730592957069
F        -5.35386609588658   -0.45207588830481    1.98125865327758
F        -5.70437742108406   -0.61117153086585   -0.11965558739362
F        -5.14292645153878   -2.33913927311179    1.00324714649869
C        -4.03961820246674   -1.67468514775899    2.62817407948106
F        -4.96930660042402   -0.73147479244129    2.75037763231441
F        -4.62303373288711   -2.71686348978894    2.04303253910982
F        -3.71458666614022   -2.05683907990832    3.85992603200073
C        -0.53602450593361   -4.99908416128281    0.86730591619822
F        -1.22448605650957   -5.23152837615597    1.98125850960180
F        -1.18149064144157   -5.61404773804446   -0.11965571789346
F         0.63540201352706   -5.61404743764837    1.00324736766175
C        -2.84103082519036   -3.32439911178427    2.62817407941587
F        -2.23127406184888   -4.50005340761388    2.75037746012491
F        -4.01248672303644   -3.55720929213525    2.04303264409737
F        -3.10404037880940   -2.89718378306488    3.85992609894427
C         2.50473491433418   -4.35941144902977   -0.86730593917895
F         2.08438487052912   -4.95213043104453   -1.98125838386969
F         3.81390519137296   -4.16837996597314   -1.00324768478856
F         2.34400857369757   -5.23632280881804    0.11965581818547
C         4.03961820246674    1.67468514775899   -2.62817407948106
F         4.96930660042402    0.73147479244129   -2.75037763231441
F         3.71458666614022    2.05683907990832   -3.85992603200073
F         4.62303373288711    2.71686348978894   -2.04303253910982
C         4.92005227074660    1.03501232949151   -0.86730592957069
F         5.35386609588658    0.45207588830481   -1.98125865327758
F         5.14292645153878    2.33913927311179   -1.00324714649869
F         5.70437742108406    0.61117153086585    0.11965558739362
C         4.92005227074660   -1.03501232949151   -0.86730592957069
F         5.35386609588658   -0.45207588830481   -1.98125865327758
F         5.14292645153878   -2.33913927311179   -1.00324714649869
F         5.70437742108406   -0.61117153086585    0.11965558739362
C        -0.34440953624153    4.35941144868709   -2.62817404748705
F         0.83992598883967    4.95213069234126   -2.75037577510431
F        -0.80829780400759    4.16837989546168   -3.85992670963205
F        -1.15529636597892    5.23632261667420   -2.04303359185445
C         2.50473491433418    4.35941144902977   -0.86730593917895
F         2.08438487052912    4.95213043104453   -1.98125838386969
F         3.81390519137296    4.16837996597314   -1.00324768478856
F         2.34400857369757    5.23632280881804    0.11965581818547
C        -2.82790274436383    2.05459160758554   -3.71645040671519
F        -3.82797483682855    2.78118494419178   -3.22571836876305
F        -2.11749631416700    2.85850222732984   -4.50254863174647
F        -3.37293748548841    1.13053297859378   -4.50255013394648
C        -4.25247495652193    1.01957928511255   -2.62817407757680
F        -4.45020405360863    2.32910962270744   -2.75037677428969
F        -4.21414295278388    0.51936236815955   -3.85992636334025
F        -5.33704498641440    0.51936149478958   -2.04303305824604
C        -4.58877084110522    2.05459160147071   -0.86730597290559
F        -4.59709252483521    2.78118520641283   -1.98125951001435
F        -5.53562669678859    1.13053295630600   -1.00324569798425
F        -4.97417519512416    2.85850196315549    0.11965482382298
C        -2.82790274436383   -2.05459160758554   -3.71645040671519
F        -3.82797483682855   -2.78118494419178   -3.22571836876305
F        -3.37293748548841   -1.13053297859378   -4.50255013394648
F        -2.11749631416700   -2.85850222732984   -4.50254863174647
C        -2.28376457660886   -3.72927671755932   -2.62817408867206
F        -3.59030321655004   -3.51265997057978   -2.75037870097715
F        -1.79618325340527   -3.84739782561575   -3.85992562899768
F        -2.14318168460923   -4.91533956626621   -2.04303190988614
C        -3.37204091334889   -3.72927672645244   -0.86730596148276
F        -4.06564647311728   -3.51265957144659   -1.98125763710228
F        -2.78580317558591   -4.91533944031226   -1.00324916143779
F        -4.25569947457670   -3.84739838595791    0.11965645964809
C        -4.58877084110522   -2.05459160147071   -0.86730597290559
F        -4.59709252483521   -2.78118520641283   -1.98125951001435
F        -5.53562669678859   -1.13053295630600   -1.00324569798425
F        -4.97417519512416   -2.85850196315549    0.11965482382298
C        -1.42457227037960    1.03501233722714   -4.78849957248258
F        -0.62223011468481    0.45207589682711   -5.67468926529602
F        -2.65809836182651    0.61117154425495   -5.04863869666891
F        -1.40265511061956    2.33913928186680   -5.04863905501621
C         0.54413818249354    1.67468516033722   -4.78849957845317
F         0.23767107904745    0.73147481112462   -5.67468925997942
F        -0.24013968171955    2.71686350152345   -5.04863903502921
F         1.79120914301982    2.05683909935453   -5.04863874564184
C         0.54413818249354   -1.67468516033722   -4.78849957845317
F         0.23767107904745   -0.73147481112462   -5.67468925997942
F        -0.24013968171955   -2.71686350152345   -5.04863903502921
F         1.79120914301982   -2.05683909935453   -5.04863874564184
180
 energy: -581.542971253922 gnorm: 9.774811636321 xtb: 6.4.1 (a3dbbd7)
C        -1.23603997182723    0.00078701897155    3.32609982654295
C        -0.38259463974189   -1.17743564116309    3.32382666419968
C         1.00115904658372   -0.72770138216334    3.32424942033489
C         0.99951687732458    0.72813345455981    3.32657460261889
C        -0.38229596074729    1.17627376836154    3.33197694355392
C         2.34247208204154   -2.59614005737684    0.59482204601769
C         3.19791934699715   -1.42681156632901    0.59562015276690
C         2.95859920687089   -0.70215217917663    1.82858735206355
C         1.96348807447771   -1.42647775570379    2.59329658889303
C         1.57611650581651   -2.59890964321549    1.83044599219854
C         3.19707380692198    1.42716822709051    0.59579670272206
C         2.34378141872720    2.59962442239653    0.59886887062505
C         1.58037033549590    2.60140893621584    1.82903711069121
C         1.96336976066058    1.42765579274897    2.59354563250224
C         2.95799470275939    0.70229409813966    1.82826176214659
C        -0.36831403071770    3.48450949288390    0.59586583999664
C        -1.75095266118824    3.03129223444111    0.59660675008673
C        -1.98386132799761    2.30826024161287    1.83026467883561
C        -0.74913456164820    2.30835664461833    2.59206149218554
C         0.25020543593520    3.03152406063933    1.83283921101429
C        -3.41438635127420    0.72516651088177    0.59562417516065
C        -3.40856612958939   -0.72259541392986    0.59250551412956
C        -2.79935462499800   -1.17018836158019    1.82715895306440
C        -2.42730650970035    0.00010633764054    2.59470371378507
C        -2.80851607549711    1.17723372903198    1.83124701219680
C        -1.74876664752001   -3.03343864104617    0.59615180090801
C        -0.36760536552882   -3.48258205734354    0.59544537057837
C         0.25017191600209   -3.03396691710288    1.83122097342073
C        -0.75001350827513   -2.30783145987983    2.59345023041224
C        -1.97964776297288   -2.30604197166141    1.82823674341547
C        -0.24738326096094   -3.03215648981365   -1.83144447375326
C         0.74994503514073   -2.30907701360792   -2.59206243863307
C         1.98410517774738   -2.30749024781800   -1.83191954245660
C         1.74462157706779   -3.02915831444802   -0.59804355765303
C         0.36798823655204   -3.48353693510175   -0.59742033423270
C         2.80877478435056   -1.17517755344259   -1.83183042237551
C         2.42648041151717   -0.00098602822523   -2.59476544193070
C         2.80273705120702    1.17522521352876   -1.83021312827329
C         3.42105070724305    0.72779254793610   -0.59110199029635
C         3.42129170913692   -0.72796813332115   -0.59454955830348
C         1.98445161340912    2.30634921129778   -1.83198498875453
C         0.75116469500161    2.30685099784330   -2.59388925419509
C        -0.24930305202338    3.03502617314691   -1.83072910966091
C         0.36783194839751    3.48247731397953   -0.59563898033913
C         1.75031027819477    3.03572114799195   -0.59537964566078
C        -1.58326712043285    2.60053583681535   -1.83170056352833
C        -1.95702933042491    1.42414027969534   -2.58633899304094
C        -2.95449388605644    0.69534703108216   -1.82628694746368
C        -3.18810705726937    1.42439766297346   -0.59362689505288
C        -2.34405696379633    2.60284999848384   -0.59424699826614
C        -2.96313047491180   -0.70136268638676   -1.83161834371024
C        -1.95989146489014   -1.42265899761071   -2.59367646189541
C        -1.57404240964249   -2.59937387851688   -1.82741671255681
C        -2.33877930193862   -2.59847450124381   -0.59104914163316
C        -3.18795393250372   -1.42114717542624   -0.59387507554057
C        -0.99931333469190   -0.72553114110792   -3.33077823402799
C        -0.99682945275393    0.72337344917607   -3.32504859589446
C         0.38459375572126    1.17528199183053   -3.32658716586375
C         1.23675276233646    0.00029180805134   -3.33108243914146
C         0.38245292347505   -1.17584565713814   -3.33040367685623
C        -1.77950562280070    0.00421909771704    4.76419952915098
F        -0.79759081428422    0.03663688272504    5.69956491270700
F        -2.55405270636765   -1.01676160693683    5.05237402663504
F        -2.51134562331302    1.07188516917686    5.05181758205431
C        -0.55020570600737   -1.69706899240151    4.76058034329505
F        -0.26342115233330   -0.77015107125081    5.71012474663613
F        -1.75596988837615   -2.11226003167720    5.05228350820345
F         0.18022137521425   -2.74143268929891    5.05091691807609
C         1.44252272522836   -1.05060915451854    4.75919140697196
F         0.66093779290149   -0.46597823543211    5.71030429698835
F         1.46503629627808   -2.32223560314539    5.05251293856748
F         2.66139630517638   -0.67646827602906    5.05257256740284
C         1.44170402569897    1.04450521597071    4.76570587572971
F         0.62525670460008    0.50205434270473    5.69882416111960
F         2.66372736085322    0.67810830325723    5.05231671344124
F         1.40157068862258    2.34222423450474    5.05124550501847
C         3.33596866051152   -3.72462783762190    0.85480457424177
F         4.10814109927118   -3.52379492320784    1.95700010439436
F         4.29626679487335   -3.83761045188480   -0.10459453156269
F         2.83006595029447   -4.91865128893519    0.97898567196108
C         4.23536678078713   -1.01075974328489    2.61742203342988
F         4.46970887150729   -2.31316984175613    2.76283821239016
F         5.35390486060881   -0.55284086560107    2.03492637065406
F         4.21442742970510   -0.55233509420174    3.87902279101267
C         2.27120095831312   -3.72994363656940    2.62275021961440
F         3.57371889137814   -3.52385304616673    2.79355871005455
F         2.10642291806791   -4.92120079467806    2.10292637779702
F         1.79702252631720   -3.85028823043659    3.86280625219126
C         4.24145796881029    1.02386546292861    2.62016952259485
F         4.45199201523888    2.33096389814096    2.75167500923973
F         5.35629822118641    0.55189090184689    2.03467636511853
F         4.21498327739071    0.55141575118834    3.88166500891752
C        -0.53531860702892    4.99833650087981    0.86717446135140
F        -1.22565780143776    5.23282990228838    1.98278957076695
F        -1.18254204734612    5.61589704009149   -0.11753530462415
F         0.63346535197823    5.61571277029494    1.00487075039250
C        -4.89158651618243    1.03443999809201    0.84525889859446
F        -5.37356210211187    0.50185533976623    2.00569439645345
F        -5.73559390138585    0.64883299876373   -0.09028187452603
F        -5.15425586047238    2.34223101232548    1.04218725952681
C        -4.88556339207455   -1.02836695599017    0.86235498237583
F        -5.38973253520230   -0.47364062822984    1.97027550823136
F        -5.74247567999663   -0.64572304679652   -0.10331965485547
F        -5.19567083435618   -2.32593502983313    0.99297039642164
C        -4.00758089432018   -1.68095450620556    2.60911962530316
F        -4.97413595034097   -0.72962519198733    2.81215442871732
F        -4.63921111080641   -2.72439892843159    2.09356867682878
F        -3.73181334097581   -2.03630754009840    3.88159103207779
C        -0.53618358637030   -4.99799255141872    0.86643684192917
F        -1.20864877147836   -5.24578989769845    1.97022913520512
F        -1.17996591789165   -5.61679467058552   -0.11925921594602
F         0.63363051066684   -5.61763732906057    1.00312482426321
C        -2.82780090325606   -3.31797108466944    2.62128096140578
F        -2.24819105868528   -4.49237903715300    2.76505963258922
F        -3.99811470427684   -3.60693973927592    2.03639594257169
F        -3.08821288540886   -2.92001845933297    3.87950659631093
C         2.49520650094851   -4.34822326433629   -0.87327965468960
F         2.08476407925258   -4.95444389678438   -1.98263261855747
F         3.81523269668866   -4.17823196410851   -1.03878237130912
F         2.32830907795829   -5.26225501023115    0.10170367133537
C         4.02485239331569    1.68889714604833   -2.62480613946151
F         4.96117805979826    0.74209949589923   -2.80333702208901
F         3.71534441451003    2.05689617331336   -3.86299354320814
F         4.59886232586998    2.73807786030452   -2.09954434247413
C         4.90637214254768    1.04281496214586   -0.84631516710937
F         5.39015805944708    0.47287714142923   -1.97069062904254
F         5.17279935886410    2.32279554666380   -0.94941030216923
F         5.71030271196224    0.67680131323485    0.12264698166963
C         4.90739778949053   -1.03902760336324   -0.84471167204745
F         5.36896266818215   -0.49998626221173   -2.00142369077706
F         5.14687962242095   -2.34174831010756   -1.00684024700158
F         5.71131351027190   -0.67837826345639    0.12444358953488
C        -0.34344126239455    4.35940511721582   -2.62593588852220
F         0.81980964731327    4.95358290681634   -2.76442119143209
F        -0.80939294737397    4.17237025026596   -3.86132154392802
F        -1.15681720058554    5.23721195720942   -2.04593742429955
C         2.50389811400197    4.35907711205055   -0.86620651130312
F         2.10582253848945    4.95366877154451   -1.96982445623099
F         3.81536748932529    4.17073705535116   -1.00190562426801
F         2.34687200042547    5.23692999020922    0.11917374757021
C        -2.80298605944228    2.02353350470627   -3.71074065671142
F        -3.81837068078278    2.83713519428356   -3.25143875396407
F        -2.13699722685364    2.89341390798884   -4.49528245083244
F        -3.36520367809752    1.17307244903978   -4.52944067885086
C        -4.23553768421130    1.00281301943517   -2.62191063087828
F        -4.48477094904749    2.31462200806221   -2.77284481980753
F        -4.26567382813518    0.48229534424296   -3.83281774771545
F        -5.34129034764463    0.47846479895924   -2.10038134285527
C        -4.56918065809603    2.02800891865393   -0.84770690598243
F        -4.61588534443781    2.83441027554180   -1.95842432113750
F        -5.56003605842231    1.17906933172178   -0.99570862109131
F        -4.97370253477126    2.89633725810372    0.10066260817815
C        -2.79826637821456   -2.04136175714597   -3.72305479178466
F        -3.86378865481134   -2.75430278419528   -3.26286445382065
F        -3.37798239268716   -1.13240048166913   -4.50625223983501
F        -2.13428965096067   -2.80814323456228   -4.54122562483278
C        -2.25216714085281   -3.72894359312859   -2.62202325035688
F        -3.57870654932219   -3.55614191821130   -2.78680551618523
F        -1.77732651867503   -3.90175304676310   -3.83158738708757
F        -2.10896212709466   -4.92198324460983   -2.09646260698158
C        -3.34756885902615   -3.72904540899128   -0.84539307479646
F        -4.09345199901810   -3.55468811167127   -1.95745172091035
F        -2.81982106059176   -4.92103279623569   -0.94928550994455
F        -4.22209337938457   -3.90946768623184    0.12588493316261
C        -4.56656540483597   -2.03823475860371   -0.83682979466647
F        -4.64804726332682   -2.75755734907889   -2.00274797834546
F        -5.54710459544125   -1.14092112321214   -1.05422298735148
F        -5.01563608541602   -2.84442129005447    0.09219648303008
C        -1.41925450314678    1.05083966862419   -4.75713591684766
F        -0.66377713162906    0.43809089152457   -5.69379757934472
F        -2.65280832730580    0.57521738326020   -5.08501208864584
F        -1.43759135274900    2.31449346496957   -5.07285350979998
C         0.54531775305861    1.68148384811056   -4.77864075113247
F         0.27816254489639    0.75133506119876   -5.68891646630647
F        -0.17431860835681    2.74288188641464   -5.05398967813811
F         1.79424412646263    2.05718111770600   -5.05114483007039
C         0.54545845144329   -1.67734699502833   -4.78545772381196
F         0.24798581935785   -0.75821845677889   -5.67941492872044
F        -0.23818609509961   -2.71812932830452   -5.05082198066210
F         1.79271929520413   -2.05752892843058   -5.04967228340607
180
 energy: -590.664673691698 gnorm: 9.092293599760 xtb: 6.4.1 (a3dbbd7)
C        -1.23571526209171    0.00306718113367    3.32440976316382
C        -0.38322209377140   -1.17913941457273    3.31987107641489
C         1.00249004369579   -0.72870150962323    3.32171740983644
C         0.99821912752283    0.72979110096031    3.32472881231645
C        -0.38264241698145    1.17719690835234    3.33304620230639
C         2.34355909040264   -2.59442586080541    0.59581956828717
C         3.19684697224834   -1.42786997963780    0.59738767800890
C         2.95723339486522   -0.70523544106557    1.82796726265040
C         1.96481374842153   -1.42706604013956    2.59170296391422
C         1.57226014090866   -2.59612023995918    1.83112159479181
C         3.19583283541912    1.42869188691110    0.59658450280205
C         2.34305935981627    2.59832933334574    0.60353681323672
C         1.58066962795935    2.60061996539584    1.82639572568856
C         1.96444591011312    1.42964929677207    2.59239056275360
C         2.95600168714439    0.70570207832334    1.82739446056372
C        -0.36934584256951    3.48854779012018    0.59772383711386
C        -1.75236831547332    3.02848346711363    0.59814768564835
C        -1.98201755879931    2.30946747545278    1.82866766518627
C        -0.74850430444689    2.31005183055522    2.58871662625718
C         0.24966364956373    3.02912033317956    1.83526397558667
C        -3.40394330115311    0.72487085085633    0.59735974430159
C        -3.39564605293407   -0.71703575368831    0.59354096281257
C        -2.79522631442506   -1.16731733828075    1.82782366653204
C        -2.42947917225898   -0.00031280684855    2.59493519641696
C        -2.80897919398532    1.17857876118379    1.83141008036138
C        -1.74794787629998   -3.03307263041434    0.59746558781534
C        -0.36780985441713   -3.48508195151143    0.59654111349914
C         0.24979954922786   -3.03411023856637    1.83199061345497
C        -0.74998276487759   -2.30888254608027    2.59175742494680
C        -1.97494863832516   -2.30799068341277    1.82711636774180
C        -0.24387209924667   -3.03072956426002   -1.83055421803837
C         0.75081143301268   -2.31158565819344   -2.58840452276107
C         1.98175265892777   -2.30706291668247   -1.83286593216270
C         1.74063637451769   -3.02754765584803   -0.60240477974100
C         0.36836713613900   -3.48254144688875   -0.60032131167891
C         2.80848390402334   -1.17450514145105   -1.83401097530381
C         2.42569438735395   -0.00299424559204   -2.59363291424499
C         2.79981245311839    1.17480542285493   -1.83155462915218
C         3.41877756244309    0.72875277480179   -0.58820180168985
C         3.42103096255730   -0.72988643304350   -0.59522486964922
C         1.98225619208090    2.30551135943497   -1.83278415283218
C         0.75331432837350    2.30692857195505   -2.59240855839650
C        -0.24781686398011    3.03739789916070   -1.83164983128849
C         0.36825287576983    3.48077649825002   -0.59655405584903
C         1.75139441687745    3.03870992171708   -0.59648836705485
C        -1.58614480701263    2.59973873208442   -1.83211111782144
C        -1.95467628269779    1.42658413118683   -2.58232754364513
C        -2.95337337074399    0.69313660851325   -1.82612346608903
C        -3.18137593163302    1.42555565085621   -0.59211260184473
C        -2.34361646816777    2.60265725919120   -0.59279869906763
C        -2.96386153722188   -0.70287396436312   -1.83171038265148
C        -1.95997901271847   -1.42152516061533   -2.59397649419069
C        -1.56909557212888   -2.59850417055003   -1.82623690066307
C        -2.33418932130349   -2.59674307415132   -0.58786144602263
C        -3.18137703338284   -1.41881806479158   -0.59400931190113
C        -0.99793805995946   -0.72404460027578   -3.33093815631683
C        -0.99413920768819    0.71988462190853   -3.32523748039492
C         0.38834240130421    1.17496173204414   -3.32333962762925
C         1.23822883887938    0.00049892875522   -3.33006628665510
C         0.38305127614297   -1.17642027463379   -3.33328798673183
C        -1.79449667230705    0.00015918727779    4.74536366512691
F        -0.82694063918219    0.08623863899125    5.71883130750611
F        -2.57929533099043   -0.98463275021857    5.05700770316911
F        -2.51157785037142    1.07356415942576    5.05356781024144
C        -0.55192476070906   -1.71634275051704    4.73338150728620
F        -0.32674092911907   -0.83068857393399    5.74089640651300
F        -1.73285911733875   -2.14373580992676    5.05675362397065
F         0.14204223215081   -2.75772029313874    5.05245597254533
C         1.45594339606668   -1.06465969708892    4.73073456424405
F         0.74587191507547   -0.47349129371031    5.74299724473568
F         1.50508377568342   -2.31092093621883    5.05617476113606
F         2.66191169845139   -0.71571529778737    5.05701000910801
C         1.45442664180550    1.05175147372961    4.74794078216484
F         0.62165051281883    0.55697236372912    5.71681695827670
F         2.66442173814486    0.71912405481895    5.05684135232900
F         1.40046639026773    2.34362212623408    5.05291845762713
C         3.29918439928445   -3.72235787285365    0.84343274031605
F         4.14510071694484   -3.53530255766206    1.94370748939438
F         4.34007291167217   -3.82354281504022   -0.06103416802767
F         2.87434463287620   -4.91213700154078    0.97356661177308
C         4.22704821869751   -1.00565904084179    2.61243068388074
F         4.48764381652442   -2.29463021163391    2.77482494319438
F         5.36329831893527   -0.61826760151210    2.03301739492382
F         4.21678551196042   -0.61708484586723    3.88790703081889