63
 energy: -142.065343707688 gnorm: 0.135863466479 xtb: 6.4.1 (a3dbbd7)
C        -1.29380189142293    0.00518810975266    3.53475042546279
C        -0.36795491470580   -1.17109445736895    3.30532490038581
C         0.98604358283337   -0.72205662153057    3.28338601634011
C         0.99279845569028    0.71960958020434    3.28670177220412
C        -0.35984581254024    1.17608479242461    3.30752732760340
C         2.33713649004571   -2.58532145161085    0.58372316331785
C         3.18546133793759   -1.42134997264655    0.58338208878717
C         2.95082976620164   -0.69852042803930    1.80993186584047
C         1.95446102216782   -1.41753025851411    2.56281800021944
C         1.57847833033781   -2.57892028349053    1.80920393433954
C         3.19288167803387    1.41169296432545    0.58672865582473
C         2.35105136029066    2.58084981847724    0.59261819528430
C         1.59758832697668    2.57820008875605    1.81796532275165
C         1.96559431354784    1.41132811232743    2.56849274624772
C         2.95756435296723    0.68790137312963    1.81257795942740
C        -0.35275196897409    3.42887133849168    0.59421742049523
C        -1.72920692229924    2.99230129003520    0.61519127722458
C        -1.95197042618735    2.29668273330733    1.78890012206403
C        -0.71485852606077    2.27608556030605    2.56877936383865
C         0.27214507062583    2.99541427636099    1.81693304163630
C        -3.38721742288295    0.70448508843178    0.56514887497333
C        -3.39044375775274   -0.72968934853056    0.56550558817146
C        -2.77113539472441   -1.15912612265277    1.79248966840215
C        -2.41317429079729    0.01751644177935    2.54950357180152
C        -2.77182627205049    1.13563561134442    1.81994410998792
C        -1.73355122268659   -3.00708034664607    0.58129730270537
C        -0.36181166270692   -3.44426421951826    0.58345136711438
C         0.25275073307619   -2.99321810486982    1.80880479424469
C        -0.73039712791208   -2.27135950943121    2.56586851742324
C        -1.97279304600038   -2.28576170766145    1.80102269682824
C        -0.24238615112945   -3.01793584622875   -1.82445515299701
C         0.75219722331257   -2.29732681147523   -2.58092298223561
C         1.97624114646521   -2.29597968001587   -1.82132020587332
C         1.74307643045859   -3.01315945447727   -0.59635165459212
C         0.36952394179264   -3.45595661079619   -0.59532061061890
C         2.79389381083502   -1.17006079615157   -1.82189978789697
C         2.41348009957297   -0.00705489229052   -2.57818086595715
C         2.78999064750528    1.16020365821852   -1.81761248140956
C         3.41015703318610    0.71618948342090   -0.59477681854074
C         3.40904188499398   -0.72628404265143   -0.59717927367984
C         1.96766155284354    2.27743617061842   -1.80961098452332
C         0.73818631315969    2.27318131636995   -2.56526366176596
C        -0.25452817372238    2.98697308127654   -1.81304848877457
C         0.37433917950606    3.44714002836196   -0.57954542322151
C         1.74069841374485    3.00184911275993   -0.58628229109115
C        -1.56594286660743    2.57622153348487   -1.82757382821072
C        -1.93060359076478    1.40833920854940   -2.56142004737257
C        -2.92558718059454    0.68471965133326   -1.80985060540908
C        -3.18336452045091    1.39842201201719   -0.60046258538095
C        -2.49261081939282    2.74597890286004   -0.64190319443319
C        -2.93337982074983   -0.70819502150591   -1.82878957204493
C        -1.94087750651851   -1.42668590891227   -2.58871417977512
C        -1.56447467303262   -2.59492957963295   -1.83010971308821
C        -2.32899579696595   -2.59691491413030   -0.60898361949216
C        -3.17400858337551   -1.43281811038797   -0.61332327338214
C        -0.98438829443742   -0.73034962028861   -3.31153930258603
C        -0.98168514679102    0.71067458913262   -3.30542238699281
C         0.38278275322509    1.15383295034001   -3.30684835980828
C         1.23382314639336   -0.00939761816394   -3.31093861539930
C         0.38818347913191   -1.17531879821918   -3.31264620408259
Cl       -1.92621810876854    0.00794379942123    5.24496950921280
Cl       -3.69873659772651    4.07913281862690   -0.94789575544924
Cl        2.38720014175394   -3.90024541931933    2.74524288500710
63
 energy: -142.089380653258 gnorm: 0.057803021596 xtb: 6.4.1 (a3dbbd7)
C        -1.29504706331271    0.00645131068076    3.53236664454773
C        -0.37137725517656   -1.17016218961835    3.30296956490246
C         0.98384095781932   -0.71271586635501    3.27263679181703
C         0.99227966424862    0.72619267674348    3.28656167937341
C        -0.36099556602277    1.17815200301265    3.30605339784521
C         2.33817512100031   -2.57555979999067    0.57061302492840
C         3.17684450907906   -1.41505640690971    0.57679175073001
C         2.94100147751934   -0.69140303780755    1.80500933290044
C         1.95474168599815   -1.40214463976689    2.56057668464079
C         1.62822947587831   -2.65898600879989    1.86423311939524
C         3.19283910012780    1.41702446233339    0.58481612126474
C         2.35153253352859    2.58590011338520    0.59082703443729
C         1.59739162178939    2.58272642108415    1.81591648455009
C         1.96701645421945    1.41833038835521    2.56798852630898
C         2.95704089036225    0.69730341155035    1.81244175740049
C        -0.35362735982774    3.43099161279991    0.59287459668361
C        -1.72928448546400    2.99352362384702    0.61397474622971
C        -1.95285916449247    2.29850511928625    1.78855896114776
C        -0.71613505410062    2.27796239200270    2.56727800902340
C         0.27123427061392    2.99743324043457    1.81496126920977
C        -3.38925192210148    0.70714660794565    0.56431044912571
C        -3.39561176172129   -0.72656044291808    0.56416155561192
C        -2.77899663759186   -1.15607400927987    1.79197984600976
C        -2.41639663011619    0.01939459932966    2.54879550640223
C        -2.77309699784845    1.13780217790893    1.81926504229837
C        -1.74610156813743   -3.00453115203842    0.57952915819612
C        -0.37010672173067   -3.43335523988594    0.58329833695180
C         0.23189196154788   -3.00842223879020    1.81111161554983
C        -0.73789609452132   -2.26709625992647    2.55366093902964
C        -1.98531597320188   -2.28440675467902    1.79807919779661
C        -0.24256627177359   -3.01596018966186   -1.82294238094493
C         0.75279475420887   -2.29488438916525   -2.58162155512823
C         1.97888253598560   -2.29264381156251   -1.82787798217094
C         1.74025009679993   -3.00043253637747   -0.60144569031077
C         0.36624102543617   -3.45368457423260   -0.59858028176300
C         2.79800117774985   -1.16605479399962   -1.82739966796878
C         2.41492656479653   -0.00338375790572   -2.58104728491651
C         2.79112229315980    1.16406080487938   -1.82027762429916
C         3.41058446295114    0.72066636098599   -0.59744885075348
C         3.41056134948148   -0.72141892956825   -0.60424069813450
C         1.96742051713096    2.28015627401158   -1.81131928327176
C         0.73807278010563    2.27472513365080   -2.56635394744450
C        -0.25443965543400    2.98835720864519   -1.81414930615367
C         0.37405225897478    3.44922791383807   -0.58162132497020
C         1.74013966929857    3.00513356832745   -0.58829658456679
C        -1.56611252546053    2.57664918999940   -1.82829070327847
C        -1.93054249430884    1.40911281828584   -2.56165941478633
C        -2.92636314379220    0.68591930998688   -1.81051570583143
C        -3.18421918656848    1.40011928775038   -0.60132096409059
C        -2.49279218873433    2.74708705066928   -0.64282420648040
C        -2.93524692488047   -0.70646571833734   -1.82976180223504
C        -1.94233264862865   -1.42648344789710   -2.58877912938079
C        -1.56838180559884   -2.59340228013128   -1.83110036476538
C        -2.33650245167748   -2.59530841122937   -0.61124361020227
C        -3.17907073099126   -1.43009239242565   -0.61466662701399
C        -0.98464988812171   -0.72942773797077   -3.31213562912629
C        -0.98180000200615    0.71072217983632   -3.30558336082936
C         0.38290532935345    1.15481182764746   -3.30760911120971
C         1.23418899746693   -0.00737655767189   -3.31199505904953
C         0.38817182242680   -1.17355721053349   -3.31291457826540
Cl       -1.92398967478089    0.00535018456182    5.24398873443601
Cl       -3.69916126122611    4.07993638639397   -0.94826278787333
Cl        2.46262927817296   -4.00764533564576    2.82186619755336
63
 energy: -142.095325848843 gnorm: 0.013039209774 xtb: 6.4.1 (a3dbbd7)
C        -1.29558188067027    0.00560415544005    3.52832598525693
C        -0.37147781708239   -1.17246295411720    3.30485152778449
C         0.98605717309809   -0.71499987286481    3.26602742422819
C         0.98909328732552    0.72393138754829    3.27759434176084
C        -0.36314067148618    1.17795829419562    3.30073184194283
C         2.34190971312500   -2.57910385498570    0.57019585084794
C         3.16401005811432   -1.41632393906023    0.57449113928028
C         2.92698445199782   -0.69276328074766    1.80294761646481
C         1.95821130112505   -1.40342773527742    2.56379190510869
C         1.67479242438262   -2.72819494736291    1.91256084494270
C         3.18958217859313    1.41959955242014    0.58309832549724
C         2.35011384538490    2.59000167214631    0.58833941312601
C         1.59603418916455    2.58714610433687    1.81355021829376
C         1.96436641671698    1.42013297355386    2.56269948152782
C         2.95155680543730    0.69945152403323    1.81012694126194
C        -0.35533855526382    3.43399486491884    0.59047413495483
C        -1.73071657507707    2.99632995172225    0.61130750936142
C        -1.95486143790260    2.30181290591626    1.78641669005448
C        -0.71823841392916    2.27965530045836    2.56414510656439
C         0.26942980119051    3.00040647326347    1.81220704153555
C        -3.39244468090037    0.71085810534834    0.56218288482820
C        -3.40013103686961   -0.72289234334538    0.56247374074481
C        -2.78039805839123   -1.15158485675350    1.78949541641256
C        -2.41927533636521    0.02293026904844    2.54713966192248
C        -2.77510747895108    1.14127727221700    1.81712681673971
C        -1.74574741411350   -2.99787287593220    0.57810683875180
C        -0.36596961566497   -3.42377999871059    0.58756745037388
C         0.22922067794724   -3.00919039603815    1.80910056922553
C        -0.73227657040357   -2.26495847321250    2.54524081418271
C        -1.98384007572889   -2.27850804273496    1.79408947885696
C        -0.24248511838875   -3.01275711339149   -1.81833014346044
C         0.75166629863238   -2.29085817330271   -2.57975967404550
C         1.97539793305991   -2.28698159118788   -1.82396531120322
C         1.74098914903603   -2.99668907209189   -0.59718348779254
C         0.36602887007146   -3.45585012984792   -0.60003531752767
C         2.79627416312190   -1.16139545707294   -1.82777956759977
C         2.41506566361778    0.00037530687417   -2.58394658282322
C         2.79024659487766    1.16803833779030   -1.82236695147852
C         3.40766126715336    0.72318139735719   -0.59906312711878
C         3.40574062821882   -0.71925479087894   -0.60594056415016
C         1.96610849705863    2.28426079611261   -1.81376799844581
C         0.73673894645098    2.27807408280567   -2.56830292805424
C        -0.25579048998695    2.99191086423606   -1.81650799701900
C         0.37268957124842    3.45291760273190   -0.58450473414669
C         1.73858032578538    3.00969345755348   -0.59102906104699
C        -1.56756402795773    2.57932072225413   -1.83033003597648
C        -1.93188348716198    1.41207768992007   -2.56313183106187
C        -2.92835762827190    0.68888360759705   -1.81243413280637
C        -3.18647846097577    1.40346463293093   -0.60340538079552
C        -2.49447889072399    2.75011503559173   -0.64519442363192
C        -2.93781383131995   -0.70315359767121   -1.83145429372796
C        -1.94365455024483   -1.42428299278552   -2.58891724321373
C        -1.57107238602049   -2.59013008210989   -1.83193501261613
C        -2.33828113896636   -2.59096957530962   -0.61221311042854
C        -3.18302383408265   -1.42677446644780   -0.61640699273153
C        -0.98590739319352   -0.72659497007246   -3.31306622562045
C        -0.98315447636026    0.71275677262989   -3.30641366451872
C         0.38183316538332    1.15716902868091   -3.30866223216718
C         1.23346050615182   -0.00434991045123   -3.31362161107579
C         0.38704142618244   -1.17089756375474   -3.31282919015452
Cl       -1.92076350138120    0.00317442248131    5.24179547484828
Cl       -3.70052210243444    4.08319781084283   -0.94994662278926
Cl        2.51362513449816   -4.09051977835046    2.87845352162886
63
 energy: -142.095637745638 gnorm: 0.007854238921 xtb: 6.4.1 (a3dbbd7)
C        -1.29563454491919    0.00525329648661    3.52685005703575
C        -0.37110606766897   -1.17354168488876    3.30720341215820
C         0.98840178029838   -0.71934926819790    3.26761101911244
C         0.98779168171465    0.72044385631199    3.27238890189511
C        -0.36353244905819    1.17653863415714    3.29687942078027
C         2.34641656446744   -2.58712268556909    0.57457797900491
C         3.16062263541652   -1.41917121512559    0.57529380596263
C         2.92309645576082   -0.69573272537108    1.80383950070074
C         1.96259343897666   -1.41085846864035    2.56977281341506
C         1.68783309200687   -2.74497398806397    1.92444617053255
C         3.18670909248221    1.41957479129523    0.58227873619964
C         2.34876486054958    2.59131868058850    0.58714368093638
C         1.59471240335354    2.58816856432836    1.81215153230773
C         1.96218001819230    1.41904586774822    2.55945136884697
C         2.94806975073824    0.69769323340243    1.80811760907170
C        -0.35652998700332    3.43584098943228    0.58913306675865
C        -1.73202177875858    2.99828471187275    0.61003666475889
C        -1.95608420933855    2.30348816856734    1.78528044353316
C        -0.71903662602210    2.27966934902039    2.56222048875286
C         0.26819851345753    3.00135304000039    1.81050737635928
C        -3.39391988966116    0.71254937268356    0.56141394745782
C        -3.40086336605620   -0.72139838244416    0.56196829548297
C        -2.77919724882195   -1.14985231454436    1.78827063497001
C        -2.41970567214730    0.02430129639585    2.54619206847469
C        -2.77613600287060    1.14292009994879    1.81631066717019
C        -1.74200044573450   -2.99420639043494    0.57766055510857
C        -0.36139509973856   -3.42274828250728    0.58984125697340
C         0.23387686972459   -3.00773741992827    1.80865491646485
C        -0.72753733469698   -2.26562237067500    2.54485315806964
C        -1.97976185244511   -2.27522718389580    1.79247490138561
C        -0.24236598655303   -3.01190386157331   -1.81657012993459
C         0.75098915015985   -2.28859768046385   -2.57743840179472
C         1.97335052068441   -2.28480826822553   -1.81978469126011
C         1.74310501780492   -2.99980993817897   -0.59410391629405
C         0.36690218180347   -3.45874602704645   -0.60096885313618
C         2.79419066776027   -1.15978527311080   -1.82638539335395
C         2.41432029064797    0.00178444018154   -2.58454012755749
C         2.78911818727664    1.16957834959003   -1.82302138578550
C         3.40484385079927    0.72352635681154   -0.59924350331179
C         3.40209245878357   -0.71902054727138   -0.60439223790741
C         1.96535999664188    2.28637651606615   -1.81510736028219
C         0.73590620439931    2.28021054409191   -2.56965554323112
C        -0.25681992189663    2.99410388360493   -1.81792381186053
C         0.37174435034669    3.45533121980621   -0.58594229917599
C         1.73767675378901    3.01207497701903   -0.59233569842425
C        -1.56864404028193    2.58114026177782   -1.83152472806225
C        -1.93286878582894    1.41380718161280   -2.56407019018111
C        -2.92946569458224    0.69042824200808   -1.81336235794693
C        -3.18791517055912    1.40525016095675   -0.60432317733984
C        -2.49585078402202    2.75209040860212   -0.64648507605564
C        -2.93862146512344   -0.70165721693254   -1.83212761848442
C        -1.94378352511097   -1.42292426602139   -2.58902462674977
C        -1.57117714406604   -2.58850869833885   -1.83213885424739
C        -2.33697751487603   -2.58852846097869   -0.61207679978354
C        -3.18334944661764   -1.42529773064822   -0.61684177747875
C        -0.98648850000469   -0.72503390771495   -3.31348124009510
C        -0.98396611010147    0.71421630953449   -3.30704549534563
C         0.38106818008971    1.15879458124139   -3.30949660514874
C         1.23266683249016   -0.00273782212022   -3.31392356263795
C         0.38646159707101   -1.16948519871854   -3.31198384099138
Cl       -1.91908883466771    0.00404003473034    5.24123597004919
Cl       -3.70167945230070    4.08533067049143   -0.95178478988735
Cl        2.51919508172722   -4.10796127364848    2.88725423309825
63
 energy: -142.095730849430 gnorm: 0.004633681884 xtb: 6.4.1 (a3dbbd7)
C        -1.29576239603778    0.00562077320485    3.52651205834026
C        -0.37144297446452   -1.17344529563819    3.30892537406836
C         0.98939038056310   -0.72145031539610    3.26888516689637
C         0.98733050197862    0.71860093727501    3.26981092875119
C        -0.36340625652378    1.17576737648301    3.29497303418951
C         2.34832787860679   -2.59146496920655    0.57706941777779
C         3.15843962483211   -1.42031788277623    0.57547214426388
C         2.92065437727229   -0.69702354329398    1.80415899286534
C         1.96459466849143   -1.41516417247091    2.57314016744047
C         1.69329433652072   -2.75154055169807    1.92911187956870
C         3.18523674093228    1.41947969243730    0.58186081263410
C         2.34827980486837    2.59204840598089    0.58686625834528
C         1.59416529453944    2.58874564248977    1.81168310454576
C         1.96111968634001    1.41852828193253    2.55801019672227
C         2.94599919563527    0.69664269151379    1.80672966443627
C        -0.35703812628669    3.43658137266890    0.58877988666796
C        -1.73260810466216    2.99907514065673    0.60985533599887
C        -1.95662417436054    2.30404798426941    1.78515378313710
C        -0.71929122152946    2.27971894020975    2.56177177129413
C         0.26766888325217    3.00165077088500    1.80989028179153
C        -3.39450215899881    0.71298248130323    0.56144030237796
C        -3.40087792405982   -0.72107271189065    0.56194217265098
C        -2.77851683246240   -1.14925580774567    1.78793070664026
C        -2.41989363559959    0.02465498412625    2.54606691767162
C        -2.77673226870166    1.14354110119216    1.81639688681013
C        -1.73950464217076   -2.99202715768862    0.57732450689778
C        -0.35840777431603   -3.42225512725852    0.59074289938580
C         0.23713001267008   -3.00515234449918    1.80751777424919
C        -0.72474176841079   -2.26562400936627    2.54490251219872
C        -1.97710480241915   -2.27330158588586    1.79142005817999
C        -0.24227804866994   -3.01208416878801   -1.81627507565387
C         0.75075253260117   -2.28751457776728   -2.57621544994180
C         1.97248078031140   -2.28370594841222   -1.81762825569671
C         1.74404196171465   -3.00149363171379   -0.59287482044296
C         0.36728851656757   -3.46085361029262   -0.60237244620604
C         2.79321277049117   -1.15910081708345   -1.82584660365071
C         2.41406910592797    0.00241161423077   -2.58500094848926
C         2.78875433115875    1.17020752358206   -1.82347614327504
C         3.40333097177785    0.72368650071527   -0.59930350791692
C         3.39984412793657   -0.71869550348447   -0.60340650537570
C         1.96527784826753    2.28731484124938   -1.81569437701592
C         0.73571025370107    2.28104487693264   -2.57016392645579
C        -0.25712037222071    2.99480231766145   -1.81827441297734
C         0.37148601875980    3.45633090217305   -0.58631079549141
C         1.73750868142222    3.01320123673022   -0.59273796245657
C        -1.56889320859141    2.58150789794591   -1.83165844795985
C        -1.93310220555153    1.41421256416570   -2.56421522171267
C        -2.92976707154114    0.69069385698333   -1.81350811012749
C        -3.18841488650309    1.40564003300759   -0.60441041230879
C        -2.49633484818431    2.75262680090870   -0.64670271683883
C        -2.93879098111523   -0.70140461850621   -1.83233773503978
C        -1.94363828510217   -1.42261835198409   -2.58919783437694
C        -1.57104349959646   -2.58809318490670   -1.83250414525327
C        -2.33601629749782   -2.58765221900729   -0.61204747477240
C        -3.18307547172331   -1.42495889072818   -0.61685362515849
C        -0.98662757464877   -0.72458429606789   -3.31376245697083
C        -0.98418353814791    0.71466233654552   -3.30727304357550
C         0.38082787588910    1.15942714027978   -3.30988312078431
C         1.23234111276004   -0.00210069925593   -3.31402471099967
C         0.38636519849318   -1.16907071247912   -3.31169922737803
Cl       -1.91835457479058    0.00617161487982    5.24143927489753
Cl       -3.70211974789950    4.08580297510255   -0.95282838549712
Cl        2.51602572638596   -4.11222536534259    2.88691418718729
63
 energy: -142.095770485340 gnorm: 0.002543105429 xtb: 6.4.1 (a3dbbd7)
C        -1.29577483676588    0.00592866724342    3.52676808213514
C        -0.37187379462741   -1.17306166337234    3.30987553844615
C         0.98956793980019   -0.72183450317178    3.26922374826970
C         0.98740630328722    0.71805793115551    3.26919714168441
C        -0.36314447558957    1.17545485143982    3.29448234020065
C         2.34838367159898   -2.59237364951555    0.57769787384806
C         3.15728478938721   -1.42026393852705    0.57524022530570
C         2.91946170986336   -0.69709223570177    1.80407245299012
C         1.96486011584795   -1.41634293177446    2.57395993565847
C         1.69495696124626   -2.75364224563075    1.93054223018495
C         3.18490473507341    1.41946051017157    0.58178856366210
C         2.34829032375447    2.59232104801785    0.58704773475876
C         1.59414863791806    2.58901079567760    1.81177685066454
C         1.96095976713550    1.41851396580991    2.55784573408123
C         2.94537926230762    0.69638497890829    1.80619059282897
C        -0.35712816657603    3.43653727818080    0.58890780585062
C        -1.73269728843475    2.99900795994876    0.61009782160173
C        -1.95670153243419    2.30393187126540    1.78542271153196
C        -0.71928244607323    2.27975011667838    2.56205413903452
C         0.26759083179304    3.00158738490848    1.80990070370830
C        -3.39451810323847    0.71278813473376    0.56173782139497
C        -3.40066913340207   -0.72128785729757    0.56212300386231
C        -2.77835527567581   -1.14928946001230    1.78811020381228
C        -2.41991531883205    0.02449424410654    2.54636829599544
C        -2.77690676483247    1.14352308680131    1.81678535003394
C        -1.73856662146872   -2.99123579979024    0.57719045857853
C        -0.35709909448003   -3.42166301645790    0.59083969701622
C         0.23852916453285   -3.00263326636526    1.80617915124344
C        -0.72362895892334   -2.26513740246645    2.54470445682322
C        -1.97608083895018   -2.27262957761029    1.79092789725692
C        -0.24214340919319   -3.01261267551803   -1.81658667403134
C         0.75084676497173   -2.28732089200572   -2.57595810933695
C         1.97242655565669   -2.28332593958272   -1.81704823803834
C         1.74418531713367   -3.00166105668202   -0.59277113005670
C         0.36737431899960   -3.46182095003424   -0.60344518259531
C         2.79312529375872   -1.15893550685239   -1.82589755400516
C         2.41419639261195    0.00257856250965   -2.58529466612232
C         2.78885049883679    1.17032169320493   -1.82370923446271
C         3.40295271518245    0.72377784763865   -0.59931423847789
C         3.39912380909167   -0.71839397826048   -0.60309303234836
C         1.96542096916767    2.28746127678098   -1.81576283109574
C         0.73577732332306    2.28103968639979   -2.57011086044999
C        -0.25708596356494    2.99466686795876   -1.81811782301582
C         0.37153681222271    3.45632797589124   -0.58616391071846
C         1.73760566294858    3.01339737133550   -0.59265104815816
C        -1.56877044003497    2.58117204728393   -1.83138378749779
C        -1.93298908435499    1.41395160693511   -2.56399570739205
C        -2.92966432417546    0.69037437835396   -1.81328513261719
C        -3.18837425514135    1.40533329173801   -0.60416804906317
C        -2.49629455680298    2.75234583194158   -0.64647537458691
C        -2.93867621979149   -0.70169306154037   -1.83224599288529
C        -1.94344820768054   -1.42285464159179   -2.58925881298215
C        -1.57089917175794   -2.58830243688580   -1.83280498713228
C        -2.33563750815111   -2.58775029752410   -0.61207290468047
C        -3.18273656519765   -1.42517041290316   -0.61667580837431
C        -0.98654549997826   -0.72472827590498   -3.31384627685158
C        -0.98412172549411    0.71452768833429   -3.30722199319914
C         0.38085397721969    1.15940798808551   -3.30988485604572
C         1.23234746186560   -0.00205617202312   -3.31398949597455
C         0.38651773778216   -1.16921444734095   -3.31177719161105
Cl       -1.91826540634253    0.00844595629477    5.24193697196747
Cl       -3.70214385899086    4.08538080992223   -0.95315731344530
Cl        2.51000655051855   -4.11075587422506    2.88338324190382
63
 energy: -142.095783818919 gnorm: 0.001399584788 xtb: 6.4.1 (a3dbbd7)
C        -1.29566777421364    0.00593350079341    3.52711678456711
C        -0.37200571844355   -1.17288768119934    3.31012146363422
C         0.98948537385526   -0.72140006728092    3.26904114450695
C         0.98767926643769    0.71829157225948    3.26966137918836
C        -0.36297860691713    1.17547676984098    3.29479053180145
C         2.34786809195274   -2.59145484254403    0.57724226652552
C         3.15729355435857   -1.41983470981944    0.57503021473324
C         2.91955330002909   -0.69669091852424    1.80395055210769
C         1.96448400129071   -1.41562209474761    2.57341594576649
C         1.69477667791932   -2.75371400799629    1.93052488825609
C         3.18522006447542    1.41951809436792    0.58188276952927
C         2.34845436096040    2.59227674225629    0.58724127287334
C         1.59434876601828    2.58901273306784    1.81199867584230
C         1.96127081570283    1.41870899099563    2.55823086189154
C         2.94577834448794    0.69661141953277    1.80634137605430
C        -0.35703901239742    3.43623090590875    0.58911154952063
C        -1.73257167063443    2.99864681910020    0.61031673538340
C        -1.95656569594052    2.30362315023046    1.78565063841802
C        -0.71918722922359    2.27974591864869    2.56241006859533
C         0.26772350679979    3.00144400409170    1.81011418602341
C        -3.39432728019113    0.71247376979309    0.56194117380393
C        -3.40054786601337   -0.72157898557943    0.56226791177637
C        -2.77847987440566   -1.14952998884186    1.78838839146803
C        -2.41984157168403    0.02423944116876    2.54666836556343
C        -2.77679594473813    1.14325821687023    1.81703449298623
C        -1.73881537128193   -2.99149910549420    0.57724001483521
C        -0.35717210089390   -3.42126103302936    0.59059324791051
C         0.23840578540147   -3.00139800713016    1.80541221531097
C        -0.72377532314599   -2.26463570480463    2.54442579358272
C        -1.97632752128184   -2.27288942874948    1.79096697205028
C        -0.24199667992142   -3.01296787253148   -1.81689606694801
C         0.75105485834875   -2.28759403304878   -2.57625157541675
C         1.97273202571787   -2.28341999546547   -1.81737187117296
C         1.74409187776280   -3.00119297426438   -0.59309985686903
C         0.36738761020152   -3.46181233666246   -0.60371568866690
C         2.79345284289493   -1.15902298657848   -1.82612955965256
C         2.41441048371772    0.00251295528135   -2.58535301153800
C         2.78904274185295    1.17022920161521   -1.82372526888298
C         3.40325595963050    0.72382153619821   -0.59931727977993
C         3.39950694126077   -0.71828213396510   -0.60323809512171
C         1.96550285505268    2.28726433305669   -1.81561975456095
C         0.73585101693357    2.28076381432166   -2.56990902740507
C        -0.25700679255064    2.99435080478632   -1.81791263591920
C         0.37162276383469    3.45597742523106   -0.58596050205392
C         1.73768079634224    3.01315304612983   -0.59247894628237
C        -1.56865326148360    2.58081300247369   -1.83116815340004
C        -1.93286976475412    1.41362082671454   -2.56380165177457
C        -2.92951287416864    0.69003863284495   -1.81307341771978
C        -3.18819115306340    1.40495847891625   -0.60396990780459
C        -2.49613231976072    2.75194021328340   -0.64624698662127
C        -2.93853513319247   -0.70200144993688   -1.83208370482612
C        -1.94334678625202   -1.42316390675080   -2.58920536917532
C        -1.57081688283265   -2.58862519052938   -1.83289653300776
C        -2.33569829382453   -2.58817129043860   -0.61210643989080
C        -3.18261476541466   -1.42547224655923   -0.61653762853787
C        -0.98643999911896   -0.72499606981823   -3.31380656874264
C        -0.98402690351892    0.71425966812930   -3.30709833845984
C         0.38093598532664    1.15917274165599   -3.30974344770775
C         1.23247795285111   -0.00222763856695   -3.31392845101550
C         0.38667623211596   -1.16946057229973   -3.31193105724398
Cl       -1.91851726543312    0.00957801204341    5.24229611774971
Cl       -3.70208412305621    4.08489976864277   -0.95295360057852