63
 energy: -142.095787161958 gnorm: 0.000129921706 xtb: 6.4.1 (a3dbbd7)
C        -1.29552399116810    0.00571762485423    3.52714889328470
C        -0.37173105469622   -1.17307184395127    3.30981538185922
C         0.98948944647277   -0.72100744784780    3.26881315585983
C         0.98780550753961    0.71869601261538    3.27020674055403
C        -0.36299959641017    1.17563911827381    3.29520179334263
C         2.34781620117886   -2.59046924569429    0.57658863590695
C         3.15804822903805   -1.41966762615186    0.57509777401860
C         2.92037848866376   -0.69646810609711    1.80396690412596
C         1.96436828532710   -1.41451189966241    2.57282935723692
C         1.69433712108232   -2.75346972508083    1.93033874442264
C         3.18554968537611    1.41958460518475    0.58193319490793
C         2.34849914583213    2.59208580022904    0.58717189259256
C         1.59443757509609    2.58881432513953    1.81199667287493
C         1.96152477878137    1.41878611151898    2.55844802515618
C         2.94633465465543    0.69689738926252    1.80672094554543
C        -0.35696331024832    3.43610577653274    0.58912691486506
C        -1.73244939729415    2.99848500564108    0.61027957488962
C        -1.95643390650509    2.30350481265367    1.78561281904764
C        -0.71911722988635    2.27966729431811    2.56237923887754
C         0.26783353198358    3.00138943820195    1.81018412717248
C        -3.39419548487265    0.71238683843158    0.56188853723068
C        -3.40060272385085   -0.72162884982742    0.56226019486658
C        -2.77856597190023   -1.14964628304024    1.78842785206123
C        -2.41972091915620    0.02416178782696    2.54664613513110
C        -2.77656908405197    1.14307649049032    1.81693092746215
C        -1.73948090986376   -2.99215472515649    0.57738353989603
C        -0.35793265595496   -3.42132251168166    0.59039425324068
C         0.23751405398002   -3.00196992542170    1.80563785353082
C        -0.72447051212296   -2.26450552770079    2.54431972800167
C        -1.97706317118059   -2.27347529546693    1.79131532282481
C        -0.24189986185650   -3.01284590438369   -1.81679576426119
C         0.75116052252346   -2.28784394181833   -2.57650972364522
C         1.97296119834890   -2.28367182532672   -1.81785961717941
C         1.74411460196887   -3.00091509410228   -0.59329649609942
C         0.36748514427074   -3.46129715929128   -0.60318813260681
C         2.79367888933963   -1.15912378302102   -1.82617697218916
C         2.41442636749604    0.00240492607525   -2.58516900068046
C         2.78904811263285    1.17015266829324   -1.82358688750635
C         3.40361343812573    0.72382437303397   -0.59932512833170
C         3.40012079814479   -0.71837933295373   -0.60351932803255
C         1.96541770515287    2.28710346736122   -1.81552615841431
C         0.73581571267181    2.28064995207595   -2.56986726284335
C        -0.25702010250692    2.99429186473494   -1.81792102255586
C         0.37159777468017    3.45582501069757   -0.58597886377119
C         1.73761595821671    3.01293546830710   -0.59248374908149
C        -1.56870365810658    2.58083177025309   -1.83122970343488
C        -1.93288073702141    1.41359036940675   -2.56381878483436
C        -2.92947304712903    0.69002044061335   -1.81306599980435
C        -3.18810721577746    1.40491674661366   -0.60399320866214
C        -2.49608135621391    2.75187268675639   -0.64625387870904
C        -2.93847679623932   -0.70202335334201   -1.83200216185754
C        -1.94333165769997   -1.42322051202989   -2.58904941297374
C        -1.57078461101808   -2.58868137571580   -1.83269115588696
C        -2.33587685866427   -2.58833688042432   -0.61206389705765
C        -3.18273167369724   -1.42553626226504   -0.61654053522488
C        -0.98639826356697   -0.72505648491094   -3.31369644468104
C        -0.98401284288234    0.71417441240461   -3.30703649917904
C         0.38095726822730    1.15906985662982   -3.30967172851821
C         1.23254459452159   -0.00232292738190   -3.31389826508290
C         0.38668454657308   -1.16947333759790   -3.31187166424420
Cl       -1.91871601973767    0.00889439528856    5.24221733383821
Cl       -3.70210520930033    4.08486481828951   -0.95256502390563
Cl        2.50397402055969   -4.10614493157634    2.87958056571266
