108
 energy: -319.957394702896 gnorm: 3.393317171071 xtb: 6.4.1 (a3dbbd7)
C        -1.23626340000000    0.00000000000000    3.32997640000000
C        -0.38202640000000   -1.17575640000000    3.32997640000000
C         1.00015810000000   -0.72665740000000    3.32997640000000
C         1.00015810000000    0.72665740000000    3.32997640000000
C        -0.38202640000000    1.17575640000000    3.32997640000000
C         2.34433560000000   -2.60145750000000    0.59464210000000
C         3.19857260000000   -1.42570110000000    0.59464210000000
C         2.96246730000000   -0.69904370000000    1.83090550000000
C         1.96230920000000   -1.42570110000000    2.59495830000000
C         1.58028280000000   -2.60145750000000    1.83090550000000
C         3.19857260000000    1.42570110000000    0.59464210000000
C         2.34433560000000    2.60145750000000    0.59464210000000
C         1.58028280000000    2.60145750000000    1.83090550000000
C         1.96230920000000    1.42570110000000    2.59495830000000
C         2.96246730000000    0.69904370000000    1.83090550000000
C        -0.36750900000000    3.48258920000000    0.59464210000000
C        -1.74969350000000    3.03349030000000    0.59464210000000
C        -1.98579880000000    2.30683290000000    1.83090550000000
C        -0.74953540000000    2.30683290000000    2.59495830000000
C         0.25062270000000    3.03349030000000    1.83090550000000
C        -3.42570570000000    0.72665740000000    0.59464210000000
C        -3.42570570000000   -0.72665740000000    0.59464210000000
C        -2.80757400000000   -1.17575640000000    1.83090550000000
C        -2.42554760000000    0.00000000000000    2.59495830000000
C        -2.80757400000000    1.17575640000000    1.83090550000000
C        -1.74969350000000   -3.03349030000000    0.59464210000000
C        -0.36750900000000   -3.48258920000000    0.59464210000000
C         0.25062270000000   -3.03349030000000    1.83090550000000
C        -0.74953540000000   -2.30683290000000    2.59495830000000
C        -1.98579880000000   -2.30683290000000    1.83090550000000
C        -0.25062270000000   -3.03349030000000   -1.83090550000000
C         0.74953540000000   -2.30683290000000   -2.59495830000000
C         1.98579880000000   -2.30683290000000   -1.83090550000000
C         1.74969350000000   -3.03349030000000   -0.59464210000000
C         0.36750900000000   -3.48258920000000   -0.59464210000000
C         2.80757400000000   -1.17575640000000   -1.83090550000000
C         2.42554760000000    0.00000000000000   -2.59495830000000
C         2.80757400000000    1.17575640000000   -1.83090550000000
C         3.42570570000000    0.72665740000000   -0.59464210000000
C         3.42570570000000   -0.72665740000000   -0.59464210000000
C         1.98579880000000    2.30683290000000   -1.83090550000000
C         0.74953540000000    2.30683290000000   -2.59495830000000
C        -0.25062270000000    3.03349030000000   -1.83090550000000
C         0.36750900000000    3.48258920000000   -0.59464210000000
C         1.74969350000000    3.03349030000000   -0.59464210000000
C        -1.58028280000000    2.60145750000000   -1.83090550000000
C        -1.96230920000000    1.42570110000000   -2.59495830000000
C        -2.96246730000000    0.69904370000000   -1.83090550000000
C        -3.19857260000000    1.42570110000000   -0.59464210000000
C        -2.34433560000000    2.60145750000000   -0.59464210000000
C        -2.96246730000000   -0.69904370000000   -1.83090550000000
C        -1.96230920000000   -1.42570110000000   -2.59495830000000
C        -1.58028280000000   -2.60145750000000   -1.83090550000000
C        -2.34433560000000   -2.60145750000000   -0.59464210000000
C        -3.19857260000000   -1.42570110000000   -0.59464210000000
C        -1.00015810000000   -0.72665740000000   -3.32997640000000
C        -1.00015810000000    0.72665740000000   -3.32997640000000
C         0.38202640000000    1.17575640000000   -3.32997640000000
C         1.23626340000000    0.00000000000000   -3.32997640000000
C         0.38202640000000   -1.17575640000000   -3.32997640000000
C        -1.76086815247998    0.00000000000000    4.78849957557021
F        -0.76911826531252    0.00000000000000    5.67468926254662
F        -2.50968386795825   -1.06794314680471    5.04863888333743
F        -2.50968386795825    1.06794314680471    5.04863888333743
C        -0.54413818249354   -1.67468516033722    4.78849957845317
F        -0.23767107904745   -0.73147481112462    5.67468925997942
F        -1.79120914301982   -2.05683909935453    5.04863874564184
F         0.24013968171955   -2.71686350152345    5.04863903502921
C         1.42457227037960    1.03501233722714    4.78849957248258
F         0.62223011468481    0.45207589682711    5.67468926529602
F         2.65809836182651    0.61117154425495    5.04863869666891
F         1.40265511061956    2.33913928186680    5.04863905501621
C         3.37204091334889   -3.72927672645244    0.86730596148276
F         4.06564647311728   -3.51265957144659    1.98125763710228
F         4.25569947457670   -3.84739838595791   -0.11965645964809
F         2.78580317558591   -4.91533944031226    1.00324916143779
C         2.82790274436383   -2.05459160758554    3.71645040671519
F         3.82797483682855   -2.78118494419178    3.22571836876305
F         3.37293748548841   -1.13053297859378    4.50255013394648
F         2.11749631416700   -2.85850222732984    4.50254863174647
C         2.84103082519036    3.32439911178427   -2.62817407941587
F         2.23127406184888    4.50005340761388   -2.75037746012491
F         3.10404037880940    2.89718378306489   -3.85992609894427
F         4.01248672303644    3.55720929213525   -2.04303264409737
C         4.58877084110522    2.05459160147071    0.86730597290559
F         4.59709252483521    2.78118520641283    1.98125951001435
F         4.97417519512416    2.85850196315549   -0.11965482382298
F         5.53562669678859    1.13053295630600    1.00324569798425
C        -2.28376457660886    3.72927671755932   -2.62817408867206
F        -3.59030321655004    3.51265997057978   -2.75037870097715
F        -1.79618325340527    3.84739782561575   -3.85992562899768
F        -2.14318168460923    4.91533956626621   -2.04303190988614
C        -3.37204091334889   -3.72927672645244   -0.86730596148276
F        -4.06564647311728   -3.51265957144659   -1.98125763710228
F        -2.78580317558591   -4.91533944031226   -1.00324916143779
F        -4.25569947457670   -3.84739838595791    0.11965645964809
C        -4.03961820246674   -1.67468514775899    2.62817407948106
F        -4.96930660042402   -0.73147479244129    2.75037763231441
F        -4.62303373288711   -2.71686348978894    2.04303253910982
F        -3.71458666614022   -2.05683907990832    3.85992603200073
C         1.76086815247998    0.00000000000000   -4.78849957557021
F         0.76911826531252    0.00000000000000   -5.67468926254662
F         2.50968386795825    1.06794314680471   -5.04863888333743
F         2.50968386795825   -1.06794314680471   -5.04863888333743
C        -2.84103082519036   -3.32439911178427    2.62817407941587
F        -2.23127406184888   -4.50005340761388    2.75037746012491
F        -4.01248672303644   -3.55720929213525    2.04303264409737
F        -3.10404037880940   -2.89718378306488    3.85992609894427
108
 energy: -321.444061350241 gnorm: 1.991549621446 xtb: 6.4.1 (a3dbbd7)
C        -1.23798448470226    0.00657631261581    3.32432099307577
C        -0.37597389472951   -1.17610010969401    3.32558230366693
C         0.99442557394278   -0.72429748127216    3.33259988321208
C         1.00205169286522    0.72902098568927    3.33422169004189
C        -0.38512234068548    1.18446914603505    3.33152867754818
C         2.35365374664504   -2.60500597831465    0.59712432262052
C         3.19732621755000   -1.41426675171483    0.59567522340404
C         2.96263935580666   -0.69509344812519    1.82133630369093
C         1.97136661290745   -1.43347638415664    2.60116816153935
C         1.56940234587976   -2.60707145477828    1.82618226270019
C         3.21112974687550    1.43349340972620    0.59803882847138
C         2.33455289302789    2.60382180224280    0.59414854542297
C         1.58106883668523    2.59808850271232    1.82955949582744
C         1.96912422926195    1.43056148079946    2.58095448591517
C         2.95363970696358    0.69602730025739    1.83327180979108
C        -0.36595036524352    3.48150234256888    0.59717762456764
C        -1.75021201393564    3.03098819682674    0.59589857678535
C        -1.98561036236056    2.30776049448441    1.82894404113378
C        -0.75013136606441    2.30618139232788    2.59069985214927
C         0.24832836184704    3.03513744260488    1.82814532161223
C        -3.42472515955642    0.72946304361705    0.59538354938066
C        -3.42699580491989   -0.72236888622018    0.59055404016917
C        -2.80055057803153   -1.15938172442905    1.81864479171144
C        -2.43266704901464    0.00529558456978    2.58925596378921
C        -2.80683518942027    1.17634684629286    1.82619753656513
C        -1.73994730294189   -3.03760180718063    0.59906196844430
C        -0.36552579719993   -3.48159286322472    0.59329231164900
C         0.25400466329536   -3.03012253484256    1.82717255683317
C        -0.74757626933043   -2.31638370737446    2.59235826288569
C        -1.96713657783308   -2.30387055873940    1.81978426735701
C        -0.25045231630466   -3.03172171540655   -1.83131077855486
C         0.74797055063915   -2.30630330801430   -2.59445657038602
C         1.98308176371829   -2.30851436263562   -1.82847206788478
C         1.74105080163963   -3.03135199887157   -0.60682077817457
C         0.36863342224202   -3.47975524781048   -0.59524673594053
C         2.80706018903513   -1.17337759057465   -1.83142197495105
C         2.43309777595542   -0.00231642632866   -2.58102586789614
C         2.80957473584501    1.15970605866101   -1.82867308685152
C         3.42045978875421    0.71867831594737   -0.60649353935674
C         3.42545431350051   -0.72501970635814   -0.59503508818683
C         1.99256159849278    2.31405698990952   -1.83442170703675
C         0.73990270064119    2.30861806739340   -2.59201267304103
C        -0.23691196177465    3.03175241021650   -1.83219958725056
C         0.36820532784980    3.48052364000727   -0.59536868394638
C         1.74481368943800    3.03128417992573   -0.58487080769113
C        -1.58916221281237    2.60563920735858   -1.83385314786395
C        -1.96406630527990    1.41549449308196   -2.59344135588398
C        -2.95982276929123    0.70133559912208   -1.83135353539183
C        -3.19563727272268    1.42657981193202   -0.59450846325462
C        -2.34553232928621    2.60166205737482   -0.58594297807348
C        -2.96149436099447   -0.70160268896731   -1.82839475360736
C        -1.96109630422918   -1.42745285927842   -2.59272787503888
C        -1.57321421980441   -2.60117510487122   -1.83659995435669
C        -2.35375346272870   -2.60459097681124   -0.59954304011643
C        -3.19778201023786   -1.41614850908660   -0.60031459958911
C        -0.99797629536463   -0.72719316898075   -3.32947246713494
C        -0.99788992219313    0.72568302447132   -3.32901809831811
C         0.37445873178119    1.18024366272970   -3.33108881731350
C         1.23786034526486    0.00006270603186   -3.33220021084488
C         0.37518795831089   -1.18023663249093   -3.33063598345608
C        -1.78748780487208    0.02417122694477    4.77293842820570
F        -0.85320172455935    0.06228690168400    5.70211825576054
F        -2.62752348032612   -0.92090671041883    5.06134158064252
F        -2.51637916594167    1.08153817144610    5.05009709665532
C        -0.53390274555883   -1.70720207916853    4.77275200837011
F        -0.19953878617048   -0.83404557791960    5.70132930741480
F        -1.69114938075070   -2.21467082258086    5.06267010449344
F         0.23916051013375   -2.72612544056268    5.05265453001672
C         1.44087531179776    1.04722356057970    4.78072410599543
F         0.68756738020615    0.49977347187719    5.69101139035088
F         2.65979025697565    0.62170860578240    5.05317755996024
F         1.40352308273135    2.34528042530554    5.05027539369564
C         3.37350726335394   -3.73471486266507    0.85887624099357
F         4.08660138972195   -3.55516223006694    1.91837990166569
F         4.25718494022741   -3.84910422869964   -0.12544075396153
F         2.78419647128955   -4.91854241489120    1.00246218317984
C         2.82844512579625   -2.05131592575328    3.72221177288945
F         3.82463222943276   -2.74634889136796    3.29495496943535
F         3.37703981911328   -1.13526777847246    4.50554940938277
F         2.12451044341074   -2.86201101015499    4.50476799848933
C         2.84309214119343    3.32724589196399   -2.63033449013571
F         2.23099755476481    4.50271101626434   -2.75116969323628
F         3.10529875573539    2.89926084132215   -3.86056345506385
F         4.01326408333249    3.55899351437301   -2.04477289650001
C         4.59270416201120    2.05648328498504    0.86817804647135
F         4.59831967431604    2.78285435316257    1.98312834752668
F         4.97645189501485    2.85915507290410   -0.11837836371755
F         5.53727165411784    1.12991210166994    1.00371677622952
C        -2.28543252093770    3.73190966805050   -2.63038351304774
F        -3.59288027733586    3.51335371854541   -2.75129173165040
F        -1.79624780791831    3.84794111989103   -3.86162731107293
F        -2.14365947870326    4.91718001002476   -2.04278702305273
C        -3.36989807467104   -3.73037725966733   -0.87601386591244
F        -4.06844078362946   -3.51413697199221   -1.98324001431550
F        -2.78637047120837   -4.91780357884169   -1.00279030197416
F        -4.26291803937212   -3.85091903393546    0.11509088761586
C        -4.03158797147747   -1.64333590902571    2.60175717274717
F        -4.97500735465090   -0.72926973538909    2.75308518380929
F        -4.68850961937948   -2.70504226513084    2.01936757247460
F        -3.75113938433861   -2.02215109882484    3.91521007203169
C         1.76190140898402   -0.00009800815544   -4.79137242633214
F         0.76820293073629   -0.00009467073844   -5.67719175356912
F         2.51003040011941    1.06695803866125   -5.05104685921575
F         2.51064120479593   -1.06933484247340   -5.04967919864958
C        -2.80639513061612   -3.32881492579337    2.60690369138506
F        -2.23044546172272   -4.50528944442354    2.75209603037114
F        -4.02009091795056   -3.62092926190154    2.03251145509727
F        -3.08467924461035   -2.94258675813819    3.90774481467497
108
 energy: -322.717973371633 gnorm: 1.626403217037 xtb: 6.4.1 (a3dbbd7)
C        -1.24187380051701    0.01490107093637    3.32829014655621
C        -0.36807350486150   -1.17702690927218    3.32253062474745
C         0.98896840415107   -0.72055983773615    3.33020426275532
C         1.00701397389584    0.73503300155514    3.35436331862846
C        -0.38807732290549    1.19608914067797    3.31567191496459
C         2.36728976201681   -2.62009954458567    0.60166931558916
C         3.19435771581240   -1.40011308468349    0.59496814170650
C         2.96270460170521   -0.69030764437258    1.80868180611729
C         1.98499506450256   -1.44305557888332    2.60975764989057
C         1.55467957557279   -2.60461483803514    1.82069772553626
C         3.23178960250282    1.44543939756470    0.60383270410929
C         2.32091687834590    2.60571948640223    0.59120313056777
C         1.58177154610760    2.59343577101722    1.82696497390733
C         1.97676965382022    1.43629049770739    2.56154727729206
C         2.94015469500926    0.69234400790594    1.83497872391167
C        -0.36436621911442    3.48021518964103    0.60215175256103
C        -1.75065846080551    3.02694476259424    0.59766424815096
C        -1.98647318445942    2.31112446216541    1.82791479262406
C        -0.75094228802931    2.30379235794948    2.58269777636229
C         0.24549518123041    3.03810287724011    1.82367515234124
C        -3.42334764597567    0.73114299776022    0.59506394308534
C        -3.42603414682437   -0.71345032336080    0.57772851557599
C        -2.81054439322489   -1.14930685308814    1.81690753701045
C        -2.44061762883499    0.01702336807061    2.58021229120185
C        -2.80279735847802    1.17644113161062    1.81925571927646
C        -1.72245229158166   -3.04310799185262    0.60061799734718
C        -0.36556193618863   -3.47642211553492    0.59004312158059
C         0.25746233839703   -3.02362927297436    1.82096000724670
C        -0.74235763766332   -2.32757003379698    2.58637307257556
C        -1.95613556212799   -2.31295922162285    1.81844081776530
C        -0.25011044968516   -3.02899019603371   -1.83159236415298
C         0.74619777669120   -2.30663249468252   -2.59270703078001
C         1.97966524481915   -2.31005842722994   -1.82671231344021
C         1.72846340796230   -3.02835991196543   -0.62217368552231
C         0.37074582349561   -3.47924424737288   -0.59829292472688
C         2.80481445367849   -1.17046273641723   -1.83251822393305
C         2.44098936240128   -0.00664216124159   -2.56392444285615
C         2.80915955070399    1.13888191608444   -1.81693851225745
C         3.41426941037379    0.70791231411955   -0.61951925584735
C         3.42388048950928   -0.72230194877430   -0.59549215741133
C         2.00472647039077    2.33323492181894   -1.84765389932389
C         0.72706565870734    2.30071208423827   -2.58548134178155
C        -0.21927329100062    3.02832117317138   -1.82520295085820
C         0.36913863707832    3.47648628674074   -0.59593062909823
C         1.73784567705535    3.02831250538650   -0.57303498242193
C        -1.60222391843838    2.62158147831423   -1.84572739499625
C        -1.96487217837719    1.40253854316531   -2.59117558507160
C        -2.95616850817560    0.70336087132424   -1.83070514760441
C        -3.19236904705753    1.42659252646765   -0.59498633801811
C        -2.34557003750641    2.59217277354260   -0.57482861582444
C        -2.96025904032566   -0.70388528313248   -1.82713866956671
C        -1.96032644127989   -1.42805507867737   -2.58941159421440
C        -1.56301058665183   -2.58991920911663   -1.84389454035081
C        -2.36930550305719   -2.62007483502772   -0.60826675382824
C        -3.19442365044021   -1.40232876759629   -0.60308095281399
C        -0.99466002660734   -0.72713850426441   -3.32843617869059
C        -0.99686062265272    0.72349095658755   -3.32568877019251
C         0.36513166747305    1.18447749169461   -3.32068286961015
C         1.24221311570118    0.00024562511021   -3.35890799934494
C         0.36501194644956   -1.18473156581167   -3.31839432937913
C        -1.81523611679192    0.03248435162476    4.75403821635758
F        -0.91039970596526    0.10005550772660    5.74141771447502
F        -2.67396551440766   -0.86450818547418    5.08262996986570
F        -2.51917721200826    1.09189068211688    5.04951276436167
C        -0.53461021469017   -1.73581234737073    4.75363673633520
F        -0.18122714260396   -0.89867088052729    5.74178447549709
F        -1.65587598563552   -2.27742689342036    5.08502386816097
F         0.23114307279271   -2.73316479716570    5.05719063446247
C         1.46025079309853    1.06299301848570    4.77452466962128
F         0.75141147098404    0.54803476946083    5.71457428444919
F         2.66382697797601    0.63751199355529    5.05943635717830
F         1.40486339767233    2.35589974252897    5.05210283719592
C         3.37677290973346   -3.74229399056312    0.85198595790193
F         4.10768895211198   -3.59124881549325    1.86904467327085
F         4.25874929677183   -3.85128085029187   -0.13326193356386
F         2.78151517862936   -4.92315070755499    1.00115154656794
C         2.83232053835837   -2.05042508265487    3.72653159906415
F         3.82792411888765   -2.72113989556091    3.35179689277715
F         3.38353279027941   -1.14320584804492    4.50882286854875
F         2.13576111214670   -2.86740349680989    4.50686134055541
C         2.84758489258317    3.33307748540119   -2.63495436261998
F         2.23068376198346    4.50697914979026   -2.75241871619300
F         3.10751252265792    2.90267890229523   -3.86196196410833
F         4.01475817836283    3.56196584545756   -2.04750416708179
C         4.59984769686322    2.05976297997778    0.86983364864911
F         4.60051248093222    2.78530204762591    1.98619170052274
F         4.98050698939716    2.86023838780622   -0.11640380952906
F         5.54000514946155    1.12869296927371    1.00453823746828
C        -2.28888976146261    3.73800984206305   -2.63492572862242
F        -3.59647080457152    3.51471412861418   -2.75263025021781
F        -1.79627595320257    3.84913783821172   -3.86431687450229
F        -2.14428244580638    4.92017478553543   -2.04237688290708
C        -3.37035100918473   -3.73454080652784   -0.88692390842602
F        -4.07222109390177   -3.51585315148371   -1.98704004595867
F        -2.78692387441014   -4.92100756754069   -1.00285242609549
F        -4.27186665131483   -3.85564057299713    0.10287876092582
C        -4.03257467970865   -1.60127090058010    2.57316278954704
F        -4.98642388605264   -0.71981085563248    2.75692339810372
F        -4.79788272310801   -2.62105079793867    1.99670657477252
F        -3.85248845581466   -1.91741766610189    3.96082969999580
C         1.76441674525517    0.00015727232325   -4.79995762393334
F         0.76667323780304   -0.00046569675849   -5.68161105888709
F         2.51088201672460    1.06571789996789   -5.05528311925518
F         2.51201994696080   -1.07147549215522   -5.05144884725722
C        -2.76473685196017   -3.34759017499227    2.59086122850517
F        -2.22315767818183   -4.52034485419988    2.75346110164265
F        -3.97305011603427   -3.74767231686405    2.04138168309433
F        -3.02034151404393   -3.06991954729405    3.93082454341050
108
 energy: -323.606213634919 gnorm: 0.718593555251 xtb: 6.4.1 (a3dbbd7)
C        -1.24888032862679    0.02139723123593    3.34900121287164
C        -0.36567587431065   -1.18256473496722    3.34049412002061
C         0.98704726751176   -0.71476413402311    3.32070244283344
C         1.01198658006527    0.74135645128158    3.37638670685465
C        -0.38968575200741    1.20748576758903    3.29855046255593
C         2.38350736813645   -2.63674535260124    0.60718177652608
C         3.19064597861539   -1.38650376214713    0.59613977174251
C         2.96324827074036   -0.68655769233847    1.79587769403086
C         1.99731969240353   -1.45231590755503    2.61900062580193
C         1.54395671063332   -2.60293209810122    1.81697956436179
C         3.25235956777432    1.45687861376765    0.60914337564087
C         2.30856189505081    2.60724903133807    0.58852836915370
C         1.58201115241057    2.58994198742789    1.82466480979751
C         1.98362508125638    1.44089380144357    2.54305469631390
C         2.92724786363330    0.69015305778597    1.83708361451539
C        -0.36279043448127    3.47815392759035    0.60795169797626
C        -1.75084714978439    3.02347483989968    0.60106987814222
C        -1.98710968632667    2.31556229947707    1.82767779700076
C        -0.75130994489816    2.30069338337454    2.57878114436556
C         0.24334518620764    3.04154759964813    1.81830723963794
C        -3.42334204253928    0.72882031997551    0.59323749210270
C        -3.41951025034542   -0.70347494983858    0.56058084485286
C        -2.84081432680959   -1.15591646195661    1.83153880876143
C        -2.44358266301029    0.03274212427292    2.56402846359459
C        -2.79831415014029    1.17150890924038    1.81712235921720
C        -1.69540311816716   -3.04166321589313    0.59484266622322
C        -0.37421142306196   -3.47205812712426    0.58872839984624
C         0.25558304434510   -3.01726081765126    1.81950582963213
C        -0.72993516684958   -2.33354483630238    2.57308474759393
C        -1.96942860447880   -2.33846429770125    1.83322778530444
C        -0.25016895443454   -3.02670156670229   -1.83393261495242
C         0.74363243952699   -2.30568368727489   -2.59338151777400
C         1.97739534082139   -2.30889766351305   -1.82582667881190
C         1.71283076430665   -3.02516138446545   -0.63354529245794
C         0.37721774495890   -3.47725328734452   -0.60276880907783
C         2.80340447311283   -1.17100025597655   -1.83206057177357
C         2.44615320205795   -0.00765652263183   -2.54789541521226
C         2.80731464218705    1.12042276300574   -1.80941897852298
C         3.40697142374724    0.69699095956010   -0.63011630610645
C         3.42371038025208   -0.72036578135303   -0.59596307634306
C         2.01759592916128    2.35209115609185   -1.86134603624402
C         0.71606747549834    2.29339192548607   -2.58091076320876
C        -0.20433621947165    3.02444561795635   -1.81738069903560
C         0.36939800197005    3.47292448620250   -0.59840428486264
C         1.73145707447094    3.02489148971881   -0.56267816966537
C        -1.61456526570011    2.63645078873706   -1.85695378931915
C        -1.96450086049192    1.39022918731058   -2.58885057767758
C        -2.95316718814503    0.70466526840320   -1.83008050744198
C        -3.18943118196054    1.42746915204029   -0.59622124459127
C        -2.34683441125932    2.58422248413841   -0.56513364147625
C        -2.95868946743870   -0.70513206626677   -1.82721550658457
C        -1.96004452422048   -1.42801552795234   -2.58636136951894
C        -1.55363978649380   -2.58104472813709   -1.84964465705949
C        -2.38536433760584   -2.63669710993337   -0.61687640162031
C        -3.19067239621144   -1.38806995072299   -0.60203976817145
C        -0.99212248488321   -0.72696652704680   -3.32762151690608
C        -0.99683698647621    0.72176169141836   -3.32326949400396
C         0.35717679801212    1.18967863279632   -3.31104956390712
C         1.24674789867663    0.00035016766046   -3.38410475002330
C         0.35610317965117   -1.18907980941367   -3.30853501222008
C        -1.84563242785051    0.04721555371296    4.74193649983776
F        -1.01483846974753    0.19960733955272    5.77245877098038
F        -2.71243016136771   -0.80546135119366    5.09873149187940
F        -2.52650971101333    1.11470719147758    5.04164853616045
C        -0.53207051963708   -1.76943819655936    4.74289989306366
F        -0.11834800043181   -1.02752477781585    5.77422340092930
F        -1.61627670989955   -2.33214329554887    5.10115435073572
F         0.23420842659680   -2.74871163071134    5.05469779140118
C         1.47197951176895    1.07315478180043    4.77398537624628
F         0.80592085976526    0.58881434255385    5.73241188979439
F         2.66887922174572    0.65286470903378    5.06118161308261
F         1.40618696250206    2.36549002432435    5.04869465671521
C         3.38023073613581   -3.75119302062378    0.84587849644856
F         4.12833992975793   -3.61921796296503    1.83429300999747
F         4.25982328404402   -3.85293114728206   -0.14337175956752
F         2.77769098382281   -4.92734358543722    0.99919628661679
C         2.83462363401673   -2.05107709622850    3.73443774485165
F         3.83533007535755   -2.70341398781363    3.39481706497336
F         3.38821967430949   -1.14810039576381    4.51121404147347
F         2.14667456569759   -2.87216991909940    4.50706643643280
C         2.85268494620198    3.33926570153575   -2.63973765359431
F         2.23000738397501    4.51029271673108   -2.75324814635494
F         3.10932701692532    2.90572353452928   -3.86286323220984
F         4.01583685795521    3.56447037745627   -2.05001456500265
C         4.60841242588914    2.06341631171839    0.87156473990464
F         4.60175949999519    2.78697701780824    1.98840971376584
F         4.98387721752869    2.86085227426042   -0.11434688113994
F         5.54209770743640    1.12738468516997    1.00519147788951
C        -2.29302999951794    3.74453326888540   -2.63942923986182
F        -3.59877944596232    3.51558115684766   -2.75363231278139
F        -1.79605187901531    3.84963424263233   -3.86610176897614
F        -2.14449704876502    4.92200914731143   -2.04200852602565
C        -3.37690176248812   -3.74240378959820   -0.89058256136904
F        -4.07339543220487   -3.51602438342437   -1.99032090776487
F        -2.78583014854733   -4.92293142042139   -1.00364725863067
F        -4.27686167942844   -3.85676026911139    0.08560074255485
C        -4.05835717503206   -1.58129968306794    2.57724831992925
F        -4.99159386420698   -0.70101164957197    2.75099194961439
F        -4.89798481542939   -2.48500895760223    1.99117481445667
F        -3.96712839071536   -1.79086152317148    3.95445009211522
C         1.76741257016420   -0.00001345769485   -4.80856654132500
F         0.76543409847605   -0.00067906233314   -5.68440565739424
F         2.51119056264736    1.06405744535281   -5.05858131384076
F         2.51315880403626   -1.07338593080606   -5.05243434903000
C        -2.75296422764128   -3.37700017901521    2.59699898904368
F        -2.20469722704882   -4.53242017183717    2.74787188323537
F        -3.87556796737694   -3.88351846677303    2.06690106691691
F        -2.93529149971045   -3.21635959089720    3.91343121231278
108
 energy: -323.926897623600 gnorm: 0.418626838293 xtb: 6.4.1 (a3dbbd7)
C        -1.26589774563918    0.02913738327645    3.38925942807706
C        -0.36962526287622   -1.19254210671314    3.37643483742569
C         0.98540161999987   -0.70458940392083    3.30988084580826
C         1.01482534749304    0.75207923731364    3.40193979660732
C        -0.38863093513506    1.21528301652520    3.27712160248051
C         2.40367293624738   -2.65950780159981    0.60787271486930
C         3.18178678357322   -1.37704691310024    0.59361679797504
C         2.95815806067187   -0.68263641844804    1.78365483793901
C         2.01926983375704   -1.46447892643580    2.64035849853697
C         1.54127361145051   -2.59457401776328    1.80813828947508