64
 energy: -146.699654515018 gnorm: 0.000208339567 xtb: 6.4.1 (a3dbbd7)
C        -1.28712137971404   -0.01028982984976    3.54530029356918
C        -0.36127390186244   -1.18886996252120    3.30294148584073
C         0.98808444224108   -0.72626201626457    3.26216953685841
C         0.98297535348022    0.71375778249790    3.25547797647907
C        -0.37028146535558    1.16782677423473    3.28526185058150
C         2.34672904344854   -2.58243194814186    0.57383486301625
C         3.19661130250131   -1.41943607469760    0.57193644589658
C         2.96066106784986   -0.69830962953559    1.79635529209225
C         1.96267606213158   -1.41656205818489    2.54885968134104
C         1.58749830470389   -2.57584860209478    1.79948784143377
C         3.19689804791454    1.40970803968860    0.57109382846435
C         2.34714664659180    2.57325533455922    0.57092353013536
C         1.58164916876669    2.56200258424862    1.79195653662027
C         1.95767600546778    1.40480701049467    2.54381861857375
C         2.95962022458023    0.68839150880388    1.79556167220158
C        -0.35900311832512    3.41933289078419    0.56867836438482
C        -1.72989984185332    3.02300497615220    0.56638523101884
C        -2.09339321323792    2.47096265048812    1.93317236248979
C        -0.73024968916338    2.27561072958937    2.56551467185688
C         0.25101915722328    2.96631708535425    1.79194271972869
C        -3.33613495188758    0.74005499451035    0.58759949353401
C        -3.33467092131600   -0.70714875664151    0.57964046537615
C        -2.72248887737749   -1.14838022473535    1.81455663375002
C        -2.34777628194294   -0.03137332883542    2.50563909927101
C        -2.72905359195101    1.14197210489330    1.74329194505639
C        -1.71742035827276   -3.03380373897555    0.58870646723227
C        -0.35564995706436   -3.44101026885245    0.58305541864096
C         0.25981990301944   -2.98939079758628    1.80790391680765
C        -0.71798339124065   -2.30144127210670    2.58910907172486
C        -2.08349338084355   -2.48386392195863    1.95551163269651
C        -0.22822251872152   -3.00714746898197   -1.82172769885772
C         0.76282296324680   -2.29131718730664   -2.58791918536175
C         1.98892124998609   -2.29268412318079   -1.83289366272952
C         1.75292765030676   -3.00980313049947   -0.60529381224796
C         0.38199443395269   -3.44966345035604   -0.60147398137750
C         2.80872247398429   -1.17022056495956   -1.83554257581354
C         2.43005996410824   -0.00490949450564   -2.59267228235826
C         2.81095901025313    1.16094532206319   -1.83634374052764
C         3.42496876147854    0.71539536000783   -0.61159829380819
C         3.42387474237144   -0.72527349016805   -0.61082437766520
C         1.99291460062086    2.28488058322818   -1.83484506364227
C         0.76525434612710    2.28447205696902   -2.58830528930116
C        -0.22498182744059    3.00197340865176   -1.82455336107791
C         0.38437000001328    3.44059834803110   -0.60695020033453
C         1.75792720993501    3.00304729855073   -0.60850108381152
C        -1.54737798574697    2.57217096314866   -1.80557590890189
C        -1.93135094697875    1.40813518265960   -2.56755033431672
C        -2.93321823562395    0.70776651429273   -1.84228793425674
C        -3.39256049039000    1.54462903003350   -0.66189208676321
C        -2.31328393005916    2.60802527630230   -0.60068790629494
C        -2.91443547196079   -0.67101469964714   -1.81994678214254
C        -1.92492497830327   -1.39726849893482   -2.56195306534781
C        -1.54506633626008   -2.56627927886356   -1.80242215990334
C        -2.29392763752809   -2.58058179207762   -0.57924987198954
C        -3.14530718970696   -1.40003421758145   -0.58148722085043
C        -0.97232171877419   -0.71722231353570   -3.30954837930451
C        -0.97196096060621    0.71707345851014   -3.30870191705196
C         0.39763535530849    1.16104751048763   -3.31519188677301
C         1.24535919817884   -0.00441031590083   -3.31963770485876
C         0.39800892641498   -1.16862020342244   -3.31736197063267
Cl       -1.97052226900399    0.00241770832754    5.21562299304857
Cl       -3.13858633525567    3.59705596629249    2.88010342275152
Cl       -3.11361135453383   -3.65382449291527    2.87384961354656
Cl       -5.03172233131242    2.24917480063991   -0.96152518807539
