64
 energy: -146.692433920704 gnorm: 0.056407159020 xtb: 6.4.1 (a3dbbd7)
C        -1.30218366851932   -0.01626696224128    3.54564680993175
C        -0.37984339945270   -1.18420590719770    3.29337235395127
C         0.96959983919439   -0.72173984512199    3.23668055601016
C         0.96452125945451    0.71093032255592    3.23016666859317
C        -0.39196905781760    1.15988530053532    3.27576872973510
C         2.34494863663867   -2.55948428945427    0.55947686492134
C         3.20495377514098   -1.40929782969658    0.54994974248035
C         2.94800585806677   -0.69251959587843    1.76918920856571
C         1.93968975497426   -1.39044673557731    2.51332504795258
C         1.57376395732145   -2.54662487702119    1.76952360653454
C         3.20816639470440    1.40326077987027    0.55194997648603
C         2.34448599329361    2.55039559342863    0.56047968221185
C         1.56324070529145    2.53461845860700    1.76551437332355
C         1.93606264797396    1.38360114418849    2.51303085171439
C         2.94703351417807    0.68680679238608    1.76930798858581
C        -0.36454368702141    3.38770277569827    0.56561883818400
C        -1.73984891801052    3.00494688926640    0.57177925945717
C        -2.10808954413340    2.46595037096695    1.93284549731488
C        -0.74865407618769    2.25905948774932    2.56026548743681
C         0.24145226908619    2.93681483869317    1.78277333474410
C        -3.30919363285728    0.73239363629369    0.57516712500263
C        -3.35108323458430   -0.71753205451313    0.57263931049608
C        -2.69803256759434   -1.14563614209669    1.79493342503983
C        -2.33556421341842   -0.04200702657091    2.48779049992320
C        -2.71870380744035    1.13481272424275    1.72384532369902
C        -1.71573333265157   -3.02910984086642    0.60633383713392
C        -0.34808546327284   -3.43163023432385    0.58254799531203
C         0.25828033714772   -2.96398503114127    1.79882206173487
C        -0.72870882103229   -2.29068654752718    2.58231821350896
C        -2.09007537192972   -2.48805802346159    1.96338850930148
C        -0.21983440453058   -2.97559818066106   -1.80622273256328
C         0.77414460748499   -2.27752714261679   -2.57554337778413
C         2.00454987391538   -2.28276643298212   -1.83990470274440
C         1.75604048941558   -2.99445412903989   -0.61165182251947
C         0.39044820993868   -3.42675997081454   -0.59475960140675
C         2.82533167105836   -1.16917440914554   -1.84767994136881
C         2.44982840778620   -0.00519951609431   -2.60433631043516
C         2.83445380569620    1.15934595893584   -1.84935096599021
C         3.44274678018080    0.71485720911440   -0.62563884784622
C         3.44190601430926   -0.72235324045570   -0.62572544927853
C         2.01433207738545    2.27223517165210   -1.84099317728876
C         0.78059653074961    2.26721038806510   -2.57607232399017
C        -0.21345046588346    2.96235141036363   -1.80936848495848
C         0.38750602037632    3.39388266061889   -0.59465929227690
C         1.76023880789156    2.97762294865664   -0.61403967737127
C        -1.53254013293925    2.55603883375740   -1.78672450275425
C        -1.91674760834011    1.40757429524098   -2.55999109321129
C        -2.93058839558194    0.72058474140690   -1.82975334993504
C        -3.40082564475372    1.54886491642719   -0.66018399398959
C        -2.31442397159367    2.59394315270103   -0.59129460848247
C        -2.90937618070692   -0.64712795715343   -1.80496274143583
C        -1.90761822506045   -1.37355335962215   -2.52712755936063
C        -1.53039550667814   -2.53917726824239   -1.77040462054054
C        -2.28454517432805   -2.57525893652581   -0.55216859210595
C        -3.14567869760739   -1.39494930030248   -0.57165377011520
C        -0.95351576915926   -0.71020952669263   -3.27526539404609
C        -0.95285757283763    0.71916918260034   -3.28592639133638
C         0.41156118003835    1.15391240065174   -3.30582191603297
C         1.26666337233849   -0.00557736630750   -3.32066929065679
C         0.41184430713907   -1.15710434408119   -3.30257560992829
Cl       -2.01610151971898    0.00526494555296    5.20462647003701
Cl       -3.16892702674554    3.56675376740673    2.89490501299908
Cl       -3.17051999625562   -3.57435978887165    2.92877939178452
Cl       -5.06162923293406    2.24070681534140   -0.86149386271186
64
 energy: -146.698735279877 gnorm: 0.021636180805 xtb: 6.4.1 (a3dbbd7)
C        -1.29007797221000   -0.01352436224042    3.54676148129508
C        -0.36735192139267   -1.19110384207269    3.30532973829304
C         0.98280650376799   -0.72638033769148    3.25488827043598
C         0.97793870671093    0.71243088615750    3.24764396092101
C        -0.37717519420677    1.16626453984917    3.28487405590521
C         2.34841832569314   -2.57673890724339    0.56885111623877
C         3.20222724537832   -1.41731020329231    0.56467783937707
C         2.95898110330949   -0.69728552370656    1.78812759808565
C         1.95516184970825   -1.40699868553374    2.53535660801107
C         1.58268537761865   -2.56661284118031    1.78715879004016
C         3.20441794851222    1.40915097739655    0.56526875548862
C         2.34885918192243    2.56759390303013    0.56743110526913
C         1.57566062943441    2.55275269555823    1.78105257736954
C         1.95095509730743    1.39594797320469    2.53228670698943
C         2.95840245525360    0.68824343829569    1.78766193225457
C        -0.36121394030587    3.41064719114511    0.56654366064164
C        -1.73644478718115    3.02304537393158    0.56751093762795
C        -2.09720243376623    2.47167622435164    1.93205021213257
C        -0.73621260338522    2.27196985267063    2.56571044419983
C         0.24844790147562    2.95742211378724    1.78848653005224
C        -3.32587545645456    0.73910012063152    0.58361848868037
C        -3.34068503501913   -0.71125919203190    0.57630635753490
C        -2.71251859700177   -1.14711001064633    1.80886802964006
C        -2.34276566349698   -0.03628796538014    2.50036176449877
C        -2.72557659384124    1.14111329875871    1.73559113391718
C        -1.72165055486446   -3.03892845755155    0.59534034532728
C        -0.35403959563576   -3.43997448355414    0.58227718585182
C         0.25909386199347   -2.98282480721077    1.80536552167083
C        -0.72208633566292   -2.30251880089525    2.59096332062613
C        -2.08592723798135   -2.48876154309292    1.95928783580102
C        -0.22395557652947   -2.99582420513783   -1.81823039348353
C         0.76896455544457   -2.28757100493785   -2.58507613428454
C         1.99695677754463   -2.29057322356480   -1.83667430490930
C         1.75592694352565   -3.00767257444574   -0.60810484692226
C         0.38551204080832   -3.44085812801265   -0.59887581592628
C         2.81789609612321   -1.17040437177951   -1.84123405143600
C         2.44016299674333   -0.00460656214216   -2.59888062029015
C         2.82254532206324    1.16199628812156   -1.84219818054747
C         3.43512152171469    0.71632140603021   -0.61674666131956
C         3.43391386635599   -0.72439758306870   -0.61603908411238
C         2.00216328545344    2.28259978388971   -1.83881561020995
C         0.77156079912115    2.28022784234987   -2.58672272465299
C        -0.22103291961196    2.98669441406998   -1.82080450419888
C         0.38633112092145    3.42345302412365   -0.60286101207501
C         1.76046993710805    2.99680912565300   -0.61149689397963
C        -1.54374738199306    2.56776785130754   -1.80040080966037
C        -1.92799664936199    1.40774029467452   -2.56655143373900
C        -2.93918883538980    0.71256804442432   -1.84191508898862
C        -3.39744429646941    1.54800903951178   -0.66381668293918
C        -2.31760282912259    2.60827853884181   -0.59943591981810
C        -2.91515268916987   -0.66318634401547   -1.81901081373725
C        -1.91767587791682   -1.38918542595225   -2.55069242933876
C        -1.53873306627470   -2.55701426436589   -1.79215843688880
C        -2.29184737937739   -2.58327595123587   -0.57147539156740
C        -3.14426358882936   -1.39932407482392   -0.58026911141328
C        -0.96392882634334   -0.71577115736448   -3.29822848931509
C        -0.96461696143830    0.71808447429104   -3.29985818773714
C         0.40283131347493    1.15984516697281   -3.31546311193223
C         1.25481096013282   -0.00449198997496   -3.32260177393956
C         0.40472154434427   -1.16452385103851   -3.31434331846600
Cl       -1.99902610282252    0.00488714861907    5.20582695296190
Cl       -3.15667588995067    3.57571206010032    2.88820233819830
Cl       -3.14793389046480   -3.60770423513294    2.90404786003690
Cl       -5.04980980890138    2.24276791924446   -0.90394956790376
64
 energy: -146.699578995713 gnorm: 0.007113475323 xtb: 6.4.1 (a3dbbd7)
C        -1.28660625607316   -0.01113613821161    3.54652394832873
C        -0.36170545188647   -1.19044833087673    3.30535614454672
C         0.98829020827360   -0.72714139426219    3.26220404630176
C         0.98323570743713    0.71339896712491    3.25484963521665
C        -0.37069691783115    1.16770228759926    3.28576594982570
C         2.34814855045814   -2.58267753148613    0.57334842198770
C         3.19887015440736   -1.41992928765722    0.57145146394364
C         2.96194344156488   -0.69866417974460    1.79609828615884
C         1.96250104577129   -1.41515211466335    2.54696532637399
C         1.58747239125061   -2.57539452094700    1.79720137019627
C         3.19970896230503    1.41058926839171    0.57096546074551
C         2.34875634085174    2.57368313307533    0.57067364188395
C         1.58129149191008    2.56116230510025    1.78973880857350
C         1.95748237869644    1.40298063539165    2.54208064295312
C         2.96115191373192    0.68869568886625    1.79529051045085
C        -0.35926675489902    3.41965441468534    0.56783473419365
C        -1.73170435239379    3.02537745311312    0.56632082427200
C        -2.09353954482780    2.47244235390943    1.93287966500148
C        -0.73064399121349    2.27563357964396    2.56558481824946
C         0.25125089364178    2.96582504730139    1.79120451263600
C        -3.33315537736086    0.74042143079024    0.58669715997188
C        -3.33541770982716   -0.70826352479966    0.57808894089036
C        -2.71937963059678   -1.14786195325436    1.81343348999242
C        -2.34635886389190   -0.03303279503827    2.50473083605620
C        -2.72835738880770    1.14239525537893    1.74105205341025
C        -1.72010138790610   -3.03735287185574    0.59030540515865
C        -0.35570603771753   -3.44172557995008    0.58271318455475
C         0.26017111123893   -2.98966272017445    1.80783800438248
C        -0.71823018326488   -2.30347115728725    2.59045785225525
C        -2.08395855180352   -2.48706763322071    1.95694694262194
C        -0.22724472983824   -3.00570031196851   -1.82236710880911
C         0.76436950237396   -2.29151929745579   -2.58827259391207
C         1.99076700477284   -2.29315800211273   -1.83399431041145
C         1.75397618626376   -3.01090877982184   -0.60577426315710
C         0.38267225239926   -3.44797076770450   -0.60080060040800
C         2.81072153830663   -1.17048948672608   -1.83665006066760
C         2.43210260966293   -0.00479249230501   -2.59407009261749
C         2.81346287113599    1.16174950576906   -1.83736981341188
C         3.42756389800186    0.71596678915068   -0.61213565201789
C         3.42640628352917   -0.72521641204246   -0.61122248965485
C         1.99496927873384    2.28581587179317   -1.83618173959909
C         0.76656290270730    2.28482298769492   -2.58921391929782
C        -0.22421827394016    2.99977613903441   -1.82512559867899
C         0.38533709815930    3.43847324162700   -0.60652592627528
C         1.75913056828543    3.00360992632570   -0.60934610617537
C        -1.54726160489414    2.57244551218481   -1.80578563406170
C        -1.93153140656304    1.40810033184564   -2.56810161757038
C        -2.93711692372075    0.70896897870458   -1.84365005835269
C        -3.39485340434471    1.54667008838254   -0.66389568127354
C        -2.31497752615593    2.60985076401311   -0.60168061321733
C        -2.91503571896374   -0.66999812067813   -1.82107789756770
C        -1.92375365377341   -1.39644324175081   -2.56094163174511
C        -1.54399530105111   -2.56519887104957   -1.80154573461585
C        -2.29372905716002   -2.58214593902136   -0.57869129395601
C        -3.14572441280943   -1.40086395970407   -0.58249213031853
C        -0.97062370484511   -0.71768085415143   -3.30863912069992
C        -0.97077850611280    0.71746808799927   -3.30696832843297
C         0.39823631463598    1.16146604174078   -3.31666697481783
C         1.24711725590862   -0.00442096334843   -3.32121624661052
C         0.39944244660528   -1.16812445416543   -3.31810289768125
Cl       -1.98107240882365    0.00410519971919    5.21177918665695
Cl       -3.14510958998087    3.58879088828109    2.88350607745002
Cl       -3.12565764806118   -3.64069809979221    2.88360543254660
Cl       -5.03909155508933    2.24738571326658   -0.94418859213043
64
 energy: -146.699644775807 gnorm: 0.002874265664 xtb: 6.4.1 (a3dbbd7)
C        -1.28662156074749   -0.01042188371826    3.54592241798178
C        -0.36106568404531   -1.18949777151957    3.30397339323826
C         0.98849466067692   -0.72675815507735    3.26270463580288
C         0.98340206544872    0.71364816390313    3.25567709287404
C        -0.36997874133686    1.16784800583567    3.28547171675244
C         2.34723997038897   -2.58290198925369    0.57398045806781
C         3.19724605454046   -1.41982342187413    0.57230732320483
C         2.96131123483031   -0.69856343902283    1.79688561543932
C         1.96318420153969   -1.41660503405746    2.54900601648132
C         1.58791737911999   -2.57637482673302    1.79927185404819
C         3.19760665856136    1.41018764300582    0.57153755446325
C         2.34770934495304    2.57384236123410    0.57111904677962
C         1.58186837242612    2.56231103428033    1.79169509026288
C         1.95805126800313    1.40454739480400    2.54387884971930
C         2.96035930510032    0.68856875653713    1.79604638143693
C        -0.35907297530340    3.42011261891341    0.56837462594396
C        -1.73034585224688    3.02417654041584    0.56627390627514
C        -2.09318630778761    2.47173760478919    1.93319097658414
C        -0.72999449251856    2.27582958527093    2.56545668721410
C         0.25126075782514    2.96663867470072    1.79179291419568
C        -3.33513431444129    0.74023232407413    0.58749677918866
C        -3.33428483767682   -0.70739570129595    0.57894941013989
C        -2.72147002020578   -1.14802338289855    1.81428542088422
C        -2.34747479264985   -0.03191298341373    2.50558727907624
C        -2.72903575509979    1.14226005980061    1.74269628634009
C        -1.71843803688811   -3.03527755492956    0.58902276458599
C        -0.35575972780371   -3.44139645728071    0.58282646916972
C         0.26007956070165   -2.98990548918104    1.80793487837762
C        -0.71770468796403   -2.30234300813432    2.58951253931094
C        -2.08343010387972   -2.48515584173679    1.95581075761464
C        -0.22802643714181   -3.00733380389492   -1.82240281505390
C         0.76308777992509   -2.29174538167749   -2.58832927240301
C         1.98910450374914   -2.29306088312710   -1.83313027900973
C         1.75312027516505   -3.01041735249058   -0.60529776117658
C         0.38208457410550   -3.44951887819013   -0.60134306524754
C         2.80872081720393   -1.17027624252703   -1.83550768018904
C         2.43002013083632   -0.00489112941132   -2.59267219795674
C         2.81102077988630    1.16120115384556   -1.83621726006773
C         3.42513643267950    0.71555719846335   -0.61137295737967
C         3.42406419755790   -0.72526639341185   -0.61051745685797
C         1.99313949183815    2.28551596925892   -1.83511443292054
C         0.76538641844834    2.28491135327804   -2.58876557333211
C        -0.22486836992532    3.00207833003022   -1.82518935201413
C         0.38468913614788    3.44091076445549   -0.60703585653681
C         1.75821021506721    3.00375527113052   -0.60863712633565
C        -1.54749416149746    2.57253145400850   -1.80604452490499
C        -1.93161458120282    1.40805579356828   -2.56792931413389
C        -2.93474452283310    0.70804352699404   -1.84305602190102
C        -3.39326809272909    1.54537159574424   -0.66288517726290
C        -2.31368621576095    2.60884746728017   -0.60133707937146
C        -2.91448821534247   -0.67105627142598   -1.82055303765705
C        -1.92488208774168   -1.39746143298379   -2.56229717914367
C        -1.54499649941007   -2.56642677889916   -1.80274787010401
C        -2.29378703552714   -2.58104517766048   -0.57955938795376
C        -3.14561524426944   -1.40058418632596   -0.58219044970408
C        -0.97209302950125   -0.71761035311379   -3.31006086965795
C        -0.97193265534601    0.71720307442280   -3.30856334506784
C         0.39748205365782    1.16129273595843   -3.31577903852354
C         1.24540154917056   -0.00445120090867   -3.32012406084092
C         0.39816639100586   -1.16870047508465   -3.31799831245416
Cl       -1.97306220964040    0.00333017493088    5.21474737756552
Cl       -3.13999413220753    3.59494961675812    2.88136685096006
Cl       -3.11663822475276   -3.65128486881626    2.87645550313494
Cl       -5.03386719854372    2.24910760306014   -0.95780206831053
64
 energy: -146.699653906565 gnorm: 0.000802380594 xtb: 6.4.1 (a3dbbd7)
C        -1.28698795533716   -0.01025532227717    3.54549845600949
C        -0.36118252865867   -1.18898367483594    3.30314357265489
C         0.98818212123164   -0.72641230614655    3.26235239994210
C         0.98308206674717    0.71372780571020    3.25556603109758
C        -0.37014382876777    1.16781394641237    3.28525641285670
C         2.34679529985981   -2.58257631832277    0.57393515946756
C         3.19665343640398   -1.41953900670137    0.57214341407690
C         2.96077054769587   -0.69837916571735    1.79659885466061
C         1.96290153667995   -1.41670851112884    2.54909856273322
C         1.58769078363928   -2.57612170070075    1.79959050645711
C         3.19690632021704    1.40982460843443    0.57129985853908
C         2.34720051017672    2.57343514615292    0.57103725883429
C         1.58175078172305    2.56220722661762    1.79204559276124
C         1.95783224966569    1.40485159264685    2.54400750385923
C         2.95974856593146    0.68844019434748    1.79578071155231
C        -0.35905544782090    3.41958574679125    0.56860903046380
C        -1.72994599356432    3.02325276184415    0.56635606106119
C        -2.09332683183342    2.47117383577230    1.93324616216492
C        -0.73012699999176    2.27565291519206    2.56543803613046
C         0.25106452201909    2.96643412694551    1.79192400087417
C        -3.33591542422329    0.74006223249121    0.58766534177894
C        -3.33430626583973   -0.70714956936480    0.57942256206986
C        -2.72229730709454   -1.14821339029327    1.81450329051466
C        -2.34783706352482   -0.03147627077203    2.50574250445780
C        -2.72918442288734    1.14207106152691    1.74326005911209
C        -1.71761599211357   -3.03413109744362    0.58870119935733
C        -0.35568144074439   -3.44108335744070    0.58294550936137
C         0.25989085504311   -2.98952028514896    1.80786909226846
C        -0.71782959626800   -2.30160532917217    2.58909604152376
C        -2.08339284145829   -2.48409670104680    1.95543816454257
C        -0.22819629072621   -3.00737350457246   -1.82198974297372
C         0.76279967961550   -2.29148610694643   -2.58806363237444
C         1.98881360009169   -2.29278754916082   -1.83288790750566
C         1.75289442309168   -3.00992639451673   -0.60525051811325
C         0.38198932359001   -3.44977540183725   -0.60148814539643
C         2.80847482744438   -1.17019251107678   -1.83538764685325
C         2.42979594291487   -0.00491205790358   -2.59248162348017
C         2.81068087379240    1.16095932474396   -1.83614304223209
C         3.42470934314671    0.71539445874691   -0.61143643027656
C         3.42364366732839   -0.72525534609580   -0.61063616651779
C         1.99280007851418    2.28505396894578   -1.83480614346724
C         0.76518469565116    2.28460278191101   -2.58838112067132
C        -0.22499134218518    3.00222035927131   -1.82478729287934
C         0.38441025151029    3.44093027537013   -0.60701888539244
C         1.75789556868778    3.00326844572934   -0.60846363784587
C        -1.54740113223981    2.57223673980553   -1.80572333849654
C        -1.93141245582702    1.40806364828502   -2.56766071465340
C        -2.93352050833002    0.70777967039436   -1.84250253631683
C        -3.39261195067681    1.54471494005907   -0.66215007235079
C        -2.31325676988929    2.60815262753225   -0.60087365340898
C        -2.91433418186112   -0.67111366893684   -1.82010655068711
C        -1.92499132580123   -1.39741351786224   -2.56218808890632
C        -1.54511014729615   -2.56643301285901   -1.80263125524966
C        -2.29381284663864   -2.58061032573816   -0.57944074500865
C        -3.14538411986280   -1.40022125960971   -0.58174192053367
C        -0.97235128607049   -0.71735643490859   -3.30988782824282
C        -0.97204601232600    0.71709773583297   -3.30882918211387
C         0.39751418593015    1.16109739031437   -3.31526622854243
C         1.24520319744867   -0.00443222984388   -3.31967701511066
C         0.39794887087861   -1.16869656614822   -3.31757224430924
Cl       -1.97042899446883    0.00272965037233    5.21571171340575
Cl       -3.13840853915885    3.59706698979318    2.88039101098150
Cl       -3.11373932124967   -3.65391399912185    2.87412769441612
Cl       -5.03189218534207    2.24936578633523   -0.96153041043498
64
 energy: -146.699654513960 gnorm: 0.000208553869 xtb: 6.4.1 (a3dbbd7)
C        -1.28712137971404   -0.01028982984976    3.54530029356918
C        -0.36127390186244   -1.18886996252120    3.30294148584073
C         0.98808444224108   -0.72626201626457    3.26216953685841
C         0.98297535348022    0.71375778249790    3.25547797647907
C        -0.37028146535558    1.16782677423473    3.28526185058150
C         2.34672904344854   -2.58243194814186    0.57383486301625
C         3.19661130250131   -1.41943607469760    0.57193644589658
C         2.96066106784986   -0.69830962953559    1.79635529209225
C         1.96267606213158   -1.41656205818489    2.54885968134104
C         1.58749830470389   -2.57584860209478    1.79948784143377
C         3.19689804791454    1.40970803968860    0.57109382846435
C         2.34714664659180    2.57325533455922    0.57092353013536
C         1.58164916876669    2.56200258424862    1.79195653662027
C         1.95767600546778    1.40480701049467    2.54381861857375
C         2.95962022458023    0.68839150880388    1.79556167220158
C        -0.35900311832512    3.41933289078419    0.56867836438482
C        -1.72989984185332    3.02300497615220    0.56638523101884
C        -2.09339321323792    2.47096265048812    1.93317236248979
C        -0.73024968916338    2.27561072958937    2.56551467185688
C         0.25101915722328    2.96631708535425    1.79194271972869
C        -3.33613495188758    0.74005499451035    0.58759949353401
C        -3.33467092131600   -0.70714875664151    0.57964046537615
C        -2.72248887737749   -1.14838022473535    1.81455663375002
C        -2.34777628194294   -0.03137332883542    2.50563909927101
C        -2.72905359195101    1.14197210489330    1.74329194505639
C        -1.71742035827276   -3.03380373897555    0.58870646723227
C        -0.35564995706436   -3.44101026885245    0.58305541864096
C         0.25981990301944   -2.98939079758628    1.80790391680765
C        -0.71798339124065   -2.30144127210670    2.58910907172486
C        -2.08349338084355   -2.48386392195863    1.95551163269651
C        -0.22822251872152   -3.00714746898197   -1.82172769885772
C         0.76282296324680   -2.29131718730664   -2.58791918536175
C         1.98892124998609   -2.29268412318079   -1.83289366272952
C         1.75292765030676   -3.00980313049947   -0.60529381224796
C         0.38199443395269   -3.44966345035604   -0.60147398137750
C         2.80872247398429   -1.17022056495956   -1.83554257581354
C         2.43005996410824   -0.00490949450564   -2.59267228235826
C         2.81095901025313    1.16094532206319   -1.83634374052764
C         3.42496876147854    0.71539536000783   -0.61159829380819
C         3.42387474237144   -0.72527349016805   -0.61082437766520
C         1.99291460062086    2.28488058322818   -1.83484506364227
C         0.76525434612710    2.28447205696902   -2.58830528930116
C        -0.22498182744059    3.00197340865176   -1.82455336107791
C         0.38437000001328    3.44059834803110   -0.60695020033453
C         1.75792720993501    3.00304729855073   -0.60850108381152
C        -1.54737798574697    2.57217096314866   -1.80557590890189
C        -1.93135094697875    1.40813518265960   -2.56755033431672
C        -2.93321823562395    0.70776651429273   -1.84228793425674
C        -3.39256049039000    1.54462903003350   -0.66189208676321
C        -2.31328393005916    2.60802527630230   -0.60068790629494
C        -2.91443547196079   -0.67101469964714   -1.81994678214254
C        -1.92492497830327   -1.39726849893482   -2.56195306534781
C        -1.54506633626008   -2.56627927886356   -1.80242215990334
C        -2.29392763752809   -2.58058179207762   -0.57924987198954
C        -3.14530718970696   -1.40003421758145   -0.58148722085043
C        -0.97232171877419   -0.71722231353570   -3.30954837930451
C        -0.97196096060621    0.71707345851014   -3.30870191705196
C         0.39763535530849    1.16104751048763   -3.31519188677301
C         1.24535919817884   -0.00441031590083   -3.31963770485876
C         0.39800892641498   -1.16862020342244   -3.31736197063267
Cl       -1.97052226900399    0.00241770832754    5.21562299304857
Cl       -3.13858633525567    3.59705596629249    2.88010342275152
Cl       -3.11361135453383   -3.65382449291527    2.87384961354656
Cl       -5.03172233131242    2.24917480063991   -0.96152518807539
