62
 energy: -137.516358696592 gnorm: 0.145344418345 xtb: 6.4.1 (a3dbbd7)
C        -1.29770965891222    0.00000000000000    3.53163224767276
C        -0.37107604425475   -1.17478800586359    3.31058196643012
C         0.97979757550459   -0.72157705231961    3.28110534952822
C         0.97979757550459    0.72157705231961    3.28110534952822
C        -0.37107604425475    1.17478800586360    3.31058196643013
C         2.33544184946295   -2.58264348698296    0.58346340581249
C         3.18207169571150   -1.41543014636129    0.58234433372313
C         2.94373959867916   -0.69404060100004    1.80708186552027
C         1.95046398470883   -1.41556779135961    2.56176558167067
C         1.57767488865866   -2.57871801508103    1.80912454278211
C         3.18207169571150    1.41543014636129    0.58234433372313
C         2.33544184946295    2.58264348698296    0.58346340581249
C         1.57767488865866    2.57871801508103    1.80912454278211
C         1.95046398470883    1.41556779135961    2.56176558167066
C         2.94373959867916    0.69404060100004    1.80708186552027
C        -0.36119281684147    3.44519252612879    0.58582996047390
C        -1.73469290191499    3.00153459982720    0.58916793337350
C        -1.97220713510261    2.29308475607878    1.81059639720294
C        -0.73400332666893    2.27691900303500    2.56853480078419
C         0.25309257506893    2.99789064535074    1.80898867763471
C        -3.39649784746455    0.71758744312072    0.57410478167568
C        -3.39649784746455   -0.71758744312072    0.57410478167568
C        -2.77168037603652   -1.14964415915414    1.80664876434809
C        -2.42168465399864    0.00000000000000    2.56054627302143
C        -2.77168037603652    1.14964415915414    1.80664876434809
C        -1.73469290191499   -3.00153459982719    0.58916793337351
C        -0.36119281684148   -3.44519252612879    0.58582996047390
C         0.25309257506893   -2.99789064535073    1.80898867763471
C        -0.73400332666892   -2.27691900303499    2.56853480078419
C        -1.97220713510261   -2.29308475607878    1.81059639720295
C        -0.24585893810850   -3.00970705822685   -1.82232538763502
C         0.74439012833927   -2.28841876480361   -2.57822875384061
C         1.97268106729833   -2.28861170675520   -1.82114897801170
C         1.74031203428013   -3.00832022201671   -0.59623578829480
C         0.36724813466371   -3.45114129717027   -0.59443426078026
C         2.79027372790168   -1.16551010025889   -1.82330670861298
C         2.41077011246349    0.00000000000000   -2.58030971859023
C         2.79027372790168    1.16551010025889   -1.82330670861298
C         3.40598095600767    0.72109250237888   -0.59875668403540
C         3.40598095600767   -0.72109250237888   -0.59875668403540
C         1.97268106729833    2.28861170675520   -1.82114897801170
C         0.74439012833927    2.28841876480360   -2.57822875384062
C        -0.24585893810850    3.00970705822685   -1.82232538763502
C         0.36724813466371    3.45114129717027   -0.59443426078026
C         1.74031203428013    3.00832022201671   -0.59623578829480
C        -1.56847069976934    2.58049680433801   -1.82122736601016
C        -1.94730857051169    1.41533687195356   -2.58360676406823
C        -2.94243160962768    0.69434475341889   -1.82977489504240
C        -3.17479380115303    1.41444285760430   -0.60326970185865
C        -2.32688654321742    2.58113588269429   -0.60086409487791
C        -2.94243160962768   -0.69434475341889   -1.82977489504240
C        -1.94730857051169   -1.41533687195356   -2.58360676406823
C        -1.56847069976934   -2.58049680433801   -1.82122736601016
C        -2.32688654321742   -2.58113588269429   -0.60086409487790
C        -3.17479380115303   -1.41444285760429   -0.60326970185865
C        -0.99138524268633   -0.72097607833148   -3.31029871234527
C        -0.99138524268633    0.72097607833148   -3.31029871234528
C         0.38054100031802    1.16548515734434   -3.30884687187952
C         1.22668597234242    0.00000000000000   -3.30783368151334
C         0.38054100031802   -1.16548515734434   -3.30884687187952
Cl       -1.93737486741132   -0.00000000000005    5.25509316806359
Cl        3.65701766215967    0.00000000000000   -3.89292811129859
62
 energy: -137.541273715928 gnorm: 0.065847487575 xtb: 6.4.1 (a3dbbd7)
C        -1.29882365984422    0.00000000000000    3.53138549077179
C        -0.37172366711719   -1.17474186192233    3.30975910055376
C         0.98036015013083   -0.72127058025015    3.28442356081642
C         0.98036015013083    0.72127058025015    3.28442356081642
C        -0.37172366711719    1.17474186192234    3.30975910055377
C         2.33949177390432   -2.58550847919961    0.59213229366460
C         3.18226065457057   -1.41835724047986    0.59105502860560
C         2.94648614323568   -0.69310358712593    1.81428297272403
C         1.95107601236414   -1.41517690000218    2.56679350044498
C         1.57989524902133   -2.57918913726831    1.81495367337116
C         3.18226065457057    1.41835724047986    0.59105502860560
C         2.33949177390432    2.58550847919961    0.59213229366459
C         1.57989524902133    2.57918913726831    1.81495367337116
C         1.95107601236414    1.41517690000218    2.56679350044497
C         2.94648614323568    0.69310358712593    1.81428297272403
C        -0.36003251982899    3.44254844160013    0.58748234027362
C        -1.73614246428079    3.00094507538405    0.59089408490499
C        -1.97291540590191    2.29420075001641    1.80682321131905
C        -0.73239081346461    2.27612810535826    2.56789923902805
C         0.25450011274235    2.99740363085192    1.81198711713239
C        -3.39769764787793    0.71781950019884    0.57247019607325
C        -3.39769764787793   -0.71781950019884    0.57247019607325
C        -2.77152089271679   -1.14948772468756    1.80446760794792
C        -2.42027871981556    0.00000000000000    2.55648767440226
C        -2.77152089271679    1.14948772468756    1.80446760794792
C        -1.73614246428079   -3.00094507538404    0.59089408490499
C        -0.36003251982900   -3.44254844160013    0.58748234027362
C         0.25450011274235   -2.99740363085191    1.81198711713239
C        -0.73239081346461   -2.27612810535825    2.56789923902805
C        -1.97291540590191   -2.29420075001640    1.80682321131906
C        -0.24612715481257   -3.00767519881139   -1.82166521340704
C         0.73580091446153   -2.28777565709907   -2.57165012971712
C         1.96738824454847   -2.28463173944458   -1.80563109855781
C         1.74256763049980   -3.01159035675498   -0.58846626188329
C         0.36781691416712   -3.44878187557134   -0.59083644909912
C         2.78504753565369   -1.17209090253926   -1.80627917151473
C         2.48448364659128   -0.00000000000000   -2.65550621652969
C         2.78504753565369    1.17209090253926   -1.80627917151473
C         3.39832840861404    0.72174428397723   -0.59121591874262
C         3.39832840861404   -0.72174428397723   -0.59121591874262
C         1.96738824454847    2.28463173944458   -1.80563109855781
C         0.73580091446153    2.28777565709907   -2.57165012971713
C        -0.24612715481257    3.00767519881139   -1.82166521340704
C         0.36781691416712    3.44878187557134   -0.59083644909912
C         1.74256763049980    3.01159035675497   -0.58846626188329
C        -1.57534435733869    2.58005910345096   -1.81957986347072
C        -1.95840015313455    1.41593873681573   -2.58432684719178
C        -2.95197541538547    0.69401524308326   -1.83101428035253
C        -3.17872399531900    1.41454617043227   -0.60411102297416
C        -2.32912546673819    2.58083190360226   -0.60348361088912
C        -2.95197541538547   -0.69401524308327   -1.83101428035253
C        -1.95840015313455   -1.41593873681574   -2.58432684719178
C        -1.57534435733870   -2.58005910345095   -1.81957986347072
C        -2.32912546673819   -2.58083190360226   -0.60348361088912
C        -3.17872399531900   -1.41454617043226   -0.60411102297416
C        -1.00781653679760   -0.72033570202556   -3.31213649636183
C        -1.00781653679760    0.72033570202556   -3.31213649636183
C         0.36701266304858    1.15874094547884   -3.30039682964367
C         1.20477490263135   -0.00000000000000   -3.32133774157745
C         0.36701266304858   -1.15874094547884   -3.30039682964367
Cl       -1.93683957654623   -0.00000000000006    5.25471498391349
Cl        3.75864286762167   -0.00000000000000   -3.99477869239911
62
 energy: -137.547809129135 gnorm: 0.015287699658 xtb: 6.4.1 (a3dbbd7)
C        -1.30035206517559    0.00000000000000    3.53189585080188
C        -0.37277422130742   -1.17478066087075    3.31138630507124
C         0.98032367128833   -0.72111050924346    3.29039516058077
C         0.98032367128833    0.72111050924347    3.29039516058077
C        -0.37277422130742    1.17478066087075    3.31138630507124
C         2.33943087546634   -2.58273073138267    0.59780790171746
C         3.17899962094877   -1.41795031980803    0.59420337801414
C         2.94669574153936   -0.69219334457726    1.81943849450677
C         1.95087789919883   -1.41476005688095    2.57274614351104
C         1.58115878897695   -2.57941559236420    1.82101408050806
C         3.17899962094877    1.41795031980803    0.59420337801414
C         2.33943087546634    2.58273073138267    0.59780790171746
C         1.58115878897696    2.57941559236419    1.82101408050806
C         1.95087789919883    1.41476005688096    2.57274614351104
C         2.94669574153937    0.69219334457726    1.81943849450678
C        -0.36001838409732    3.44002361492332    0.58954090563899
C        -1.73826449306032    3.00024497308870    0.59407271033819
C        -1.97353970739946    2.29389756093040    1.80413283429863
C        -0.73130758245831    2.27508254084835    2.56948899413545
C         0.25477232028078    2.99619910872517    1.81572978498634
C        -3.40129921651020    0.71826649740669    0.57278003120357
C        -3.40129921651018   -0.71826649740670    0.57278003120356
C        -2.77338272715908   -1.14919745306707    1.80421407144598
C        -2.41936612168770    0.00000000000000    2.55311445881344
C        -2.77338272715909    1.14919745306708    1.80421407144598
C        -1.73826449306032   -3.00024497308867    0.59407271033818
C        -0.36001838409733   -3.44002361492332    0.58954090563899
C         0.25477232028078   -2.99619910872517    1.81572978498634
C        -0.73130758245831   -2.27508254084834    2.56948899413545
C        -1.97353970739943   -2.29389756093037    1.80413283429862
C        -0.24553745454256   -3.00181262068876   -1.82135078739746
C         0.73082406707876   -2.28903574067683   -2.57011409246181
C         1.96800445165779   -2.27692247494462   -1.80053404396579
C         1.74053315219535   -3.00358067287655   -0.58488776834480
C         0.36695548323693   -3.44367409832031   -0.58726793932266
C         2.78686967737160   -1.17424152363092   -1.80492779762465
C         2.55297330107053   -0.00000000000000   -2.72243871075902
C         2.78686967737160    1.17424152363091   -1.80492779762465
C         3.38794976033274    0.72151666914223   -0.59250399992194
C         3.38794976033273   -0.72151666914223   -0.59250399992194
C         1.96800445165779    2.27692247494461   -1.80053404396579
C         0.73082406707877    2.28903574067685   -2.57011409246185
C        -0.24553745454255    3.00181262068878   -1.82135078739748
C         0.36695548323694    3.44367409832031   -0.58726793932267
C         1.74053315219536    3.00358067287655   -0.58488776834480
C        -1.58184936194188    2.57943538665848   -1.81649621154469
C        -1.96510410770622    1.41541562180849   -2.58214642352686
C        -2.96189743506197    0.69406234170853   -1.83149162758140
C        -3.18455852444735    1.41470106078113   -0.60335003306605
C        -2.33125879341710    2.58008588505687   -0.60457610394910
C        -2.96189743506194   -0.69406234170853   -1.83149162758139
C        -1.96510410770621   -1.41541562180848   -2.58214642352683
C        -1.58184936194187   -2.57943538665847   -1.81649621154467
C        -2.33125879341709   -2.58008588505686   -0.60457610394909
C        -3.18455852444733   -1.41470106078112   -0.60335003306604
C        -1.01332251444952   -0.71938193919319   -3.30659048422617
C        -1.01332251444953    0.71938193919318   -3.30659048422619
C         0.36622807499674    1.15117527779228   -3.29164455810905
C         1.19507813687988   -0.00000000000000   -3.31551505572967
C         0.36622807499674   -1.15117527779228   -3.29164455810904
Cl       -1.94191103400570   -0.00000000000010    5.25122338659279
Cl        3.83071095403195   -0.00000000000002   -4.07619081485799
62
 energy: -137.548145950121 gnorm: 0.008895129794 xtb: 6.4.1 (a3dbbd7)
C        -1.30144467746149    0.00000000000017    3.53319852740632
C        -0.37326111423078   -1.17454033963903    3.31309804452674
C         0.98023094488191   -0.72118340238337    3.29336803091545
C         0.98023094488196    0.72118340238343    3.29336803091549
C        -0.37326111423072    1.17454033963941    3.31309804452682
C         2.33835947511479   -2.58009905372290    0.59848233859395
C         3.17720835054584   -1.41619939446423    0.59337076050163
C         2.94568119785755   -0.69188546736040    1.82012052052823
C         1.95069014117466   -1.41469875692080    2.57494352130450
C         1.58104656196209   -2.57912144326683    1.82287063166430
C         3.17720835054578    1.41619939446424    0.59337076050166
C         2.33835947511490    2.58009905372317    0.59848233859392
C         1.58104656196210    2.57912144326710    1.82287063166443
C         1.95069014117465    1.41469875692081    2.57494352130445
C         2.94568119785744    0.69188546736032    1.82012052052816
C        -0.36036246818894    3.43841888291216    0.59036789671689
C        -1.73929292371408    2.99996119800770    0.59563886487989
C        -1.97402800608541    2.29328755617240    1.80430313516478
C        -0.73150701183405    2.27444504664391    2.57084106334035
C         0.25437100493624    2.99514162757435    1.81711429079224
C        -3.40347581895269    0.71850393345961    0.57348257011456
C        -3.40347581895322   -0.71850393345949    0.57348257011470
C        -2.77480010077014   -1.14903092157225    1.80491480576202
C        -2.41930975892043    0.00000000000011    2.55250431992775
C        -2.77480010076962    1.14903092157224    1.80491480576187
C        -1.73929292371441   -2.99996119800829    0.59563886488032
C        -0.36036246818893   -3.43841888291209    0.59036789671700
C         0.25437100493622   -2.99514162757431    1.81711429079229
C        -0.73150701183416   -2.27444504664375    2.57084106334037
C        -1.97402800608627   -2.29328755617306    1.80430313516547
C        -0.24561058590119   -2.99969120379771   -1.82123621011522
C         0.73039700812453   -2.29064781538110   -2.57107196237292
C         1.97088359672433   -2.27512826656070   -1.80303416158324
C         1.73915600676063   -2.99766725951773   -0.58496533311445
C         0.36642946493057   -3.43995692317136   -0.58611076048211
C         2.79351064522856   -1.17462149318870   -1.81179585928171
C         2.56998112776193    0.00000000000016   -2.73715681669643
C         2.79351064522857    1.17462149318904   -1.81179585928165
C         3.38638825230395    0.72139068902341   -0.59540873390291
C         3.38638825230392   -0.72139068902336   -0.59540873390295
C         1.97088359672430    2.27512826656086   -1.80303416158311
C         0.73039700812428    2.29064781538050   -2.57107196237188
C        -0.24561058590143    2.99969120379714   -1.82123621011472
C         0.36642946493046    3.43995692317145   -0.58611076048205
C         1.73915600676058    2.99766725951779   -0.58496533311437
C        -1.58360840244861    2.57934563461157   -1.81505756513804
C        -1.96596095864039    1.41495257169658   -2.58064507714518
C        -2.96471997039631    0.69417845567950   -1.83117861940786
C        -3.18723447494754    1.41496141177327   -0.60261648197238
C        -2.33219307274414    2.57986301540652   -0.60399156414356
C        -2.96471997039708   -0.69417845567946   -1.83117861940833
C        -1.96596095864084   -1.41495257169688   -2.58064507714583
C        -1.58360840244904   -2.57934563461208   -1.81505756513862
C        -2.33219307274486   -2.57986301540703   -0.60399156414370
C        -3.18723447494833   -1.41496141177356   -0.60261648197249
C        -1.01204475533769   -0.71898057595256   -3.30254258010421
C        -1.01204475533759    0.71898057595268   -3.30254258010367
C         0.36962925409733    1.14953760499827   -3.29025257138810
C         1.19776914909288    0.00000000000014   -3.31130878174698
C         0.36962925409724   -1.14953760499825   -3.29025257138860
Cl       -1.94821285188244    0.00000000000067    5.24905722721559
Cl        3.83760382364726    0.00000000000059   -4.09208550072504
62
 energy: -137.548264493225 gnorm: 0.004690707955 xtb: 6.4.1 (a3dbbd7)
C        -1.30171124732463    0.00000000000468    3.53408835091057
C        -0.37323396621501   -1.17452884843390    3.31408364571672
C         0.98036363456943   -0.72132611562386    3.29490404851323
C         0.98036363457092    0.72132611562673    3.29490404851449
C        -0.37323396621317    1.17452884844403    3.31408364571837
C         2.33772751571279   -2.57889512773702    0.59868138531249
C         3.17577231973745   -1.41498039883911    0.59274511751802
C         2.94478617326912   -0.69174372345763    1.82022042830341
C         1.95064198678476   -1.41496755961391    2.57601905656556
C         1.58093580798472   -2.57924933396328    1.82385613281262
C         3.17577231973587    1.41498039884057    0.59274511751857
C         2.33772751571540    2.57889512774476    0.59868138531185
C         1.58093580798509    2.57924933397096    1.82385613281583
C         1.95064198678457    1.41496755961534    2.57601905656436
C         2.94478617326569    0.69174372345687    1.82022042830138
C        -0.36045855220971    3.43802971635191    0.59067222510756
C        -1.73968772654566    3.00022373183635    0.59640740468375
C        -1.97400572508033    2.29307731190165    1.80433380933496
C        -0.73149205042237    2.27430727042299    2.57160445746696
C         0.25416527103521    2.99466546289813    1.81766609008812
C        -3.40419539358170    0.71868072630462    0.57358001084429
C        -3.40419539359547   -0.71868072630193    0.57358001084789
C        -2.77522570659989   -1.14900960677334    1.80511667972709
C        -2.41853260522606    0.00000000000286    2.55161420095382
C        -2.77522570658559    1.14900960677262    1.80511667972320
C        -1.73968772655620   -3.00022373185286    0.59640740469452
C        -0.36045855221037   -3.43802971635088    0.59067222511032
C         0.25416527103394   -2.99466546289723    1.81766609008994
C        -0.73149205042626   -2.27430727041920    2.57160445746884
C        -1.97400572510393   -2.29307731191984    1.80433380935354
C        -0.24567938801217   -2.99939238681946   -1.82145995372007
C         0.73003057884957   -2.29262001223233   -2.57189104394818
C         1.97228893427412   -2.27429742420387   -1.80449886882138
C         1.73840246429390   -2.99420981548109   -0.58510008984042
C         0.36622789288915   -3.43787059096720   -0.58557221688853
C         2.79721655022336   -1.17464032225843   -1.81638050810506
C         2.57781059877957    0.00000000000458   -2.74367280311306
C         2.79721655022388    1.17464032226826   -1.81638050810350
C         3.38490681100700    0.72131264937035   -0.59691041685869
C         3.38490681100582   -0.72131264936753   -0.59691041685966
C         1.97228893427312    2.27429742420792   -1.80449886881648
C         0.73003057884296    2.29262001221569   -2.57189104391897
C        -0.24567938801762    2.99939238680381   -1.82145995370533
C         0.36622789288642    3.43787059096869   -0.58557221688594
C         1.73840246429223    2.99420981548232   -0.58510008983786
C        -1.58430940938253    2.57980176819454   -1.81440060480089
C        -1.96588535906354    1.41488888511427   -2.58000537013309
C        -2.96539786410800    0.69425063085074   -1.83112609613502
C        -3.18822020376988    1.41521784289114   -0.60242934246422
C        -2.33236122570684    2.58005755222738   -0.60375046936817
C        -2.96539786412962   -0.69425063085055   -1.83112609614860
C        -1.96588535907652   -1.41488888512252   -2.58000537015188
C        -1.58430940939529   -2.57980176820904   -1.81440060481789
C        -2.33236122572739   -2.58005755224212   -0.60375046937279
C        -3.18822020379229   -1.41521784289969   -0.60242934246790
C        -1.01059658074425   -0.71869678486613   -3.29963913821817
C        -1.01059658074156    0.71869678486963   -3.29963913820423
C         0.37233579645977    1.14896365113152   -3.28934379725879
C         1.20000828506928    0.00000000000394   -3.30684991283699
C         0.37233579645736   -1.14896365113046   -3.28934379727264
Cl       -1.95251256864921    0.00000000002001    5.24686924757856
Cl        3.83298365933523    0.00000000001457   -4.09658726970661
62
 energy: -137.548303469384 gnorm: 0.002519980564 xtb: 6.4.1 (a3dbbd7)
C        -1.30168646743417   -0.00000000002347    3.53441043392074
C        -0.37305835930514   -1.17454906018455    3.31412867055856
C         0.98046322739079   -0.72139026370981    3.29496470595089
C         0.98046322738396    0.72139026369808    3.29496470594707
C        -0.37305835931349    1.17454906013381    3.31412867054946
C         2.33775214071571   -2.57897756676844    0.59873030938669
C         3.17538253824447   -1.41469650360974    0.59265827320967
C         2.94453829519868   -0.69173270193215    1.82011361692861
C         1.95069221782509   -1.41517930856511    2.57608004390861
C         1.58098674878812   -2.57948369383006    1.82406334500247
C         3.17538253825073    1.41469650360659    0.59265827320537
C         2.33775214070413    2.57897756673523    0.59873030939059
C         1.58098674878680    2.57948369379668    1.82406334498840
C         1.95069221782422    1.41517930856113    2.57608004391413
C         2.94453829521046    0.69173270194000    1.82011361693492
C        -0.36035024935625    3.43837729470657    0.59060479079415
C        -1.73961309853300    3.00053671631654    0.59642897258319
C        -1.97379319447191    2.29312663718883    1.80416562013355
C        -0.73137251950933    2.27437668143081    2.57161978798059
C         0.25421458226286    2.99462780327377    1.81760062170767
C        -3.40395167703405    0.71871678175787    0.57330764590359
C        -3.40395167696445   -0.71871678177395    0.57330764588310
C        -2.77504125202656   -1.14903141134190    1.80494121389133
C        -2.41799880677907   -0.00000000001827    2.55100194976836
C        -2.77504125209360    1.14903141134032    1.80494121391374
C        -1.73961309848567   -3.00053671623813    0.59642897252667
C        -0.36035024935673   -3.43837729471279    0.59060479077797
C         0.25421458226701   -2.99462780327780    1.81760062169741
C        -0.73137251949311   -2.27437668145277    2.57161978797501
C        -1.97379319436251   -2.29312663710786    1.80416562004317
C        -0.24558515246175   -3.00002941177582   -1.82173060872633
C         0.72985879300453   -2.29363944367118   -2.57207918365292
C         1.97234251039033   -2.27411020949333   -1.80444028112625
C         1.73839669153571   -2.99359842341643   -0.58508265187653
C         0.36635200634248   -3.43768514017203   -0.58553272354891
C         2.79746726978995   -1.17447896092103   -1.81719590777793
C         2.57928495775183   -0.00000000002276   -2.74508006317654
C         2.79746726978638    1.17447896087324   -1.81719590778523
C         3.38405985007916    0.72129839414513   -0.59696115833991
C         3.38405985008336   -0.72129839415502   -0.59696115833405
C         1.97234251039261    2.27411020947188   -1.80444028114557
C         0.72985879303839    2.29363944374778   -2.57207918379037
C        -0.24558515243119    3.00002941184970   -1.82173060879350
C         0.36635200635880    3.43768514016398   -0.58553272355727
C         1.73839669154506    2.99359842341156   -0.58508265188636
C        -1.58424342587878    2.58026838981634   -1.81440474552095
C        -1.96554799275439    1.41505406778817   -2.58011859449406
C        -2.96489691904266    0.69425082892076   -1.83126221884843
C        -3.18797739996323    1.41528001302183   -0.60260515825147
C        -2.33210298580497    2.58027848134437   -0.60388528187618
C        -2.96489691895151   -0.69425082892544   -1.83126221879449
C        -1.96554799269804   -1.41505406775137   -2.58011859440870
C        -1.58424342582226   -2.58026838974730   -1.81440474544320
C        -2.33210298571020   -2.58027848127414   -0.60388528185930
C        -3.18797739986012   -1.41528001298263   -0.60260515823943
C        -1.00999325019216   -0.71857135668340   -3.29879007253998
C        -1.00999325020300    0.71857135666391   -3.29879007260962
C         0.37324803588688    1.14886590471509   -3.28867253190885
C         1.20051563246049   -0.00000000002233   -3.30397201954731
C         0.37324803589415   -1.14886590472412   -3.28867253184248
Cl       -1.95366366105060   -0.00000000007403    5.24566035269461
Cl        3.82524477528542   -0.00000000006081   -4.09508668767833
62
 energy: -137.548314670536 gnorm: 0.001337594131 xtb: 6.4.1 (a3dbbd7)
C        -1.30170707951833    0.00000000021510    3.53448570740571
C        -0.37301113034547   -1.17456882581444    3.31386869915192
C         0.98040979915370   -0.72138128287421    3.29453762189912
C         0.98040979922189    0.72138128295367    3.29453762194129
C        -0.37301113026049    1.17456882628328    3.31386869923822
C         2.33798680618348   -2.57938404369129    0.59875240577564
C         3.17561723682499   -1.41488803293189    0.59282015908539
C         2.94464890957372   -0.69176423637801    1.82004456589642
C         1.95070590606792   -1.41520901073115    2.57581881339039
C         1.58106546797083   -2.57958365877104    1.82394647815283
C         3.17561723676180    1.41488803294533    0.59282015912366
C         2.33798680631360    2.57938404402641    0.59875240574042
C         1.58106546798956    2.57958365910299    1.82394647831157
C         1.95070590607197    1.41520901074492    2.57581881333689
C         2.94464890944243    0.69176423627544    1.82004456582184
C        -0.36024011461594    3.43870202925999    0.59047004231941
C        -1.73945899010375    3.00064474031873    0.59620215529807
C        -1.97369457744065    2.29323064041618    1.80401618139556
C        -0.73133260679427    2.27444867092944    2.57137344345472
C         0.25430841990487    2.99472043870709    1.81740452093053
C        -3.40358311710457    0.71867600729385    0.57306250373334
C        -3.40358311778682   -0.71867600716304    0.57306250392631
C        -2.77480534718560   -1.14903837337387    1.80474664392586
C        -2.41796119864759    0.00000000015129    2.55086588706811
C        -2.77480534651436    1.14903837334752    1.80474664372574
C        -1.73945899055063   -3.00064474108938    0.59620215584415
C        -0.36024011460715   -3.43870202917762    0.59047004246198
C         0.25430841985852   -2.99472043865578    1.81740452100192
C        -0.73133260695060   -2.27444867072428    2.57137344349196
C        -1.97369457852241   -2.29323064124924    1.80401618227096
C        -0.24542572403978   -3.00057182976357   -1.82184487770573
C         0.72993802761003   -2.29373013760218   -2.57192582242547
C         1.97211262360044   -2.27424310809381   -1.80394708942193
C         1.73865484893557   -2.99419979976092   -0.58500246352195
C         0.36653371693693   -3.43824818492317   -0.58565472702529
C         2.79667879840269   -1.17441359864247   -1.81633230553694
C         2.57870514115559    0.00000000021731   -2.74486540164603
C         2.79667879844356    1.17441359910512   -1.81633230546567
C         3.38402920264167    0.72132443300194   -0.59655989116096
C         3.38402920259657   -0.72132443292575   -0.59655989121524
C         1.97211262359157    2.27424310831235   -1.80394708923782
C         0.72993802728286    2.29373013682388   -2.57192582105432
C        -0.24542572435188    3.00057182904524   -1.82184487705106
C         0.36653371677994    3.43824818502588   -0.58565472693974
C         1.73865484886657    2.99419979982889   -0.58500246342336
C        -1.58396203543036    2.58045121333243   -1.81460675611238
C        -1.96532075082748    1.41520190333471   -2.58039381848755
C        -2.96437285898822    0.69423021884094   -1.83140469806373
C        -3.18750607309967    1.41522450427870   -0.60280756917211
C        -2.33186803764822    2.58034929680942   -0.60409080190879
C        -2.96437285992979   -0.69423021881357   -1.83140469864206
C        -1.96532075138111   -1.41520190370859   -2.58039381933055
C        -1.58396203597431   -2.58045121399212   -1.81460675687285
C        -2.33186803855797   -2.58034929748245   -0.60409080208374
C        -3.18750607409988   -1.41522450467757   -0.60280756930717
C        -1.01002047364453   -0.71856322394325   -3.29912619665845
C        -1.01002047352938    0.71856322412302   -3.29912619596575
C         0.37306035919605    1.14891740583643   -3.28832744199274
C         1.20010658653193    0.00000000020332   -3.30292524052842
C         0.37306035910289   -1.14891740577136   -3.28832744265906
Cl       -1.95309723385871    0.00000000094712    5.24544631264427
Cl        3.81980851243038    0.00000000068809   -4.09285985245751
62
 energy: -137.548316801523 gnorm: 0.000374728938 xtb: 6.4.1 (a3dbbd7)
C        -1.30181991999099    0.00000000708540    3.53451698794799
C        -0.37309812850112   -1.17458922452923    3.31367559406882
C         0.98026850008267   -0.72134235383668    3.29418640904054
C         0.98026850238073    0.72134235860113    3.29418641098140
C        -0.37309812571316    1.17458923975549    3.31367559645757