62
 energy: -137.491147128572 gnorm: 0.199934129733 xtb: 6.4.1 (a3dbbd7)
C        -1.23626340000000    0.00000000000000    3.32997640000000
C        -0.38202640000000   -1.17575640000000    3.32997640000000
C         1.00015810000000   -0.72665740000000    3.32997640000000
C         1.00015810000000    0.72665740000000    3.32997640000000
C        -0.38202640000000    1.17575640000000    3.32997640000000
C         2.34433560000000   -2.60145750000000    0.59464210000000
C         3.19857260000000   -1.42570110000000    0.59464210000000
C         2.96246730000000   -0.69904370000000    1.83090550000000
C         1.96230920000000   -1.42570110000000    2.59495830000000
C         1.58028280000000   -2.60145750000000    1.83090550000000
C         3.19857260000000    1.42570110000000    0.59464210000000
C         2.34433560000000    2.60145750000000    0.59464210000000
C         1.58028280000000    2.60145750000000    1.83090550000000
C         1.96230920000000    1.42570110000000    2.59495830000000
C         2.96246730000000    0.69904370000000    1.83090550000000
C        -0.36750900000000    3.48258920000000    0.59464210000000
C        -1.74969350000000    3.03349030000000    0.59464210000000
C        -1.98579880000000    2.30683290000000    1.83090550000000
C        -0.74953540000000    2.30683290000000    2.59495830000000
C         0.25062270000000    3.03349030000000    1.83090550000000
C        -3.42570570000000    0.72665740000000    0.59464210000000
C        -3.42570570000000   -0.72665740000000    0.59464210000000
C        -2.80757400000000   -1.17575640000000    1.83090550000000
C        -2.42554760000000    0.00000000000000    2.59495830000000
C        -2.80757400000000    1.17575640000000    1.83090550000000
C        -1.74969350000000   -3.03349030000000    0.59464210000000
C        -0.36750900000000   -3.48258920000000    0.59464210000000
C         0.25062270000000   -3.03349030000000    1.83090550000000
C        -0.74953540000000   -2.30683290000000    2.59495830000000
C        -1.98579880000000   -2.30683290000000    1.83090550000000
C        -0.25062270000000   -3.03349030000000   -1.83090550000000
C         0.74953540000000   -2.30683290000000   -2.59495830000000
C         1.98579880000000   -2.30683290000000   -1.83090550000000
C         1.74969350000000   -3.03349030000000   -0.59464210000000
C         0.36750900000000   -3.48258920000000   -0.59464210000000
C         2.80757400000000   -1.17575640000000   -1.83090550000000
C         2.42554760000000    0.00000000000000   -2.59495830000000
C         2.80757400000000    1.17575640000000   -1.83090550000000
C         3.42570570000000    0.72665740000000   -0.59464210000000
C         3.42570570000000   -0.72665740000000   -0.59464210000000
C         1.98579880000000    2.30683290000000   -1.83090550000000
C         0.74953540000000    2.30683290000000   -2.59495830000000
C        -0.25062270000000    3.03349030000000   -1.83090550000000
C         0.36750900000000    3.48258920000000   -0.59464210000000
C         1.74969350000000    3.03349030000000   -0.59464210000000
C        -1.58028280000000    2.60145750000000   -1.83090550000000
C        -1.96230920000000    1.42570110000000   -2.59495830000000
C        -2.96246730000000    0.69904370000000   -1.83090550000000
C        -3.19857260000000    1.42570110000000   -0.59464210000000
C        -2.34433560000000    2.60145750000000   -0.59464210000000
C        -2.96246730000000   -0.69904370000000   -1.83090550000000
C        -1.96230920000000   -1.42570110000000   -2.59495830000000
C        -1.58028280000000   -2.60145750000000   -1.83090550000000
C        -2.34433560000000   -2.60145750000000   -0.59464210000000
C        -3.19857260000000   -1.42570110000000   -0.59464210000000
C        -1.00015810000000   -0.72665740000000   -3.32997640000000
C        -1.00015810000000    0.72665740000000   -3.32997640000000
C         0.38202640000000    1.17575640000000   -3.32997640000000
C         1.23626340000000    0.00000000000000   -3.32997640000000
C         0.38202640000000   -1.17575640000000   -3.32997640000000
Cl       -1.84886636902500    0.00000000000000    5.03315507598844
Cl       -3.54443019171709    3.91845930637349   -0.91304312534438
62
 energy: -137.537374234771 gnorm: 0.114926204337 xtb: 6.4.1 (a3dbbd7)
C        -1.24973044417675    0.00386899345417    3.35827391372076
C        -0.36455852762254   -1.18028269709431    3.33068549761448
C         1.00169048217479   -0.72455410569323    3.31681019032872
C         1.00517013413193    0.72447483262805    3.31801993398214
C        -0.35955408373568    1.18338334594595    3.33248539381900
C         2.33474564253200   -2.59005431893331    0.59142672854277
C         3.18495648462834   -1.42072106979833    0.58955834409123
C         2.95263778368554   -0.69727760964067    1.82078702559819
C         1.96017886051885   -1.42218074826549    2.58316492767020
C         1.57850703697178   -2.59022501578745    1.82388785812338
C         3.18824290430669    1.41760707058857    0.59024962341016
C         2.34170893949624    2.58902940177381    0.59339610272042
C         1.58966009676498    2.59149788301915    1.82699015914158
C         1.96512740009941    1.42039629006375    2.58416852266641
C         2.95519734571712    0.69360519954388    1.82089586568534
C        -0.35409080160896    3.45048952798293    0.60204543906686
C        -1.73012362309464    3.01151932929550    0.61841566032012
C        -1.95800967574379    2.29348457215764    1.81593199774618
C        -0.72372011846747    2.29317500330378    2.58871255575553
C         0.26722935213468    3.02241784172268    1.83445306240540
C        -3.42054677622479    0.70794359553023    0.57496671280080
C        -3.41710397057023   -0.73357512274790    0.57613763049542
C        -2.79503033761874   -1.16959751584619    1.80136233131960
C        -2.43054713319883    0.00869710688570    2.54254114322997
C        -2.79090930868885    1.15932260294313    1.80570964332140
C        -1.74091570704019   -3.01752046922359    0.59319779369658
C        -0.36504007120161   -3.46214190162568    0.59492292551214
C         0.25391428266652   -3.01982406388055    1.82732467968265
C        -0.73473225075333   -2.29087558383935    2.58505617357361
C        -1.97407883744626   -2.29166478700485    1.81816935600263
C        -0.25030669663938   -3.02119207118176   -1.82125643088369
C         0.74484168550471   -2.29758573693965   -2.58239740962600
C         1.97465979506629   -2.29813935956574   -1.82225492918825
C         1.74104315530777   -3.01994565915166   -0.59202659290279
C         0.36484966851067   -3.46568468202608   -0.58967867934454
C         2.79314452737445   -1.17096032005085   -1.82399340901194
C         2.41297001216498   -0.00204234012882   -2.58435904919990
C         2.79255771460729    1.16862364616808   -1.82367338969078
C         3.40952661217823    0.72186850172830   -0.59399659783840
C         3.40923807894154   -0.72484922755230   -0.59432098294030
C         1.97449805686595    2.29405593915453   -1.82212298172130
C         0.74514055905057    2.29594492163830   -2.58601542366449
C        -0.24649250528181    3.01424748362035   -1.82104648084184
C         0.37101601349639    3.46179200458970   -0.58402787614736
C         1.74344358251134    3.01717172595060   -0.59064473259310
C        -1.56703150660644    2.60051787994272   -1.83326418575426
C        -1.94662042782228    1.42278792527567   -2.58045656956196
C        -2.94636447192904    0.68842602404936   -1.82969523548053
C        -3.18878948878806    1.39171985064215   -0.60258627113649
C        -2.40170379441340    2.64180764690263   -0.60778686932352
C        -2.94621045526338   -0.70429507159542   -1.82854508874100
C        -1.95121256285070   -1.42405131950470   -2.58757321188659
C        -1.57349847270924   -2.59358934605526   -1.82401364553030
C        -2.33533324242452   -2.59417194439026   -0.59551372244607
C        -3.18888880373665   -1.42973269119613   -0.60422050381141
C        -0.99511579195612   -0.72443729665469   -3.31609355268746
C        -0.99326658136002    0.72291337173726   -3.31775100931169
C         0.37991140499383    1.16870984353202   -3.31866586894967
C         1.22914229595656   -0.00195068842557   -3.31662093421252
C         0.38006941743840   -1.17212142713891   -3.31525953712055
Cl       -1.87627217874924    0.00417850130662    5.10343813982005
Cl       -3.62251723881699    3.98802563423500   -0.93321220967093
62
 energy: -137.558409385735 gnorm: 0.056754576792 xtb: 6.4.1 (a3dbbd7)
C        -1.28553741976884    0.00702984100646    3.47961743059243
C        -0.35054837249166   -1.17639462143888    3.28303258074417
C         0.99561144963075   -0.72181751925008    3.28345037834005
C         1.00204790830735    0.72027188969120    3.28663842786851
C        -0.34186170329762    1.18310280721917    3.28988724454047
C         2.32897262656944   -2.57976697908768    0.58665380123050
C         3.17498696905472   -1.41636203970690    0.58527450667384
C         2.94517548991392   -0.69594407109233    1.81134477190768
C         1.95815164840712   -1.42133088003388    2.56594926949233
C         1.57690481111163   -2.58116617277430    1.81256928976431
C         3.18079246540664    1.41214426871020    0.58840664996315
C         2.34153529479146    2.57975762429949    0.59434600793504
C         1.59700964420645    2.58284206870433    1.82100263352075
C         1.96749723789080    1.41704880243946    2.57019021145410
C         2.95031255558010    0.68908614183414    1.81277058427813
C        -0.34404581419493    3.42775873398452    0.60211302344243
C        -1.71113912666513    2.99068294490387    0.63981850941381
C        -1.93767834635793    2.28831073852324    1.79279425113330
C        -0.70410878484354    2.28362405299067    2.56706741289548
C         0.27853683752939    3.01411144545548    1.82823659339559
C        -3.39966828382878    0.69333161976011    0.56418991757156
C        -3.41045839157145   -0.73744649897020    0.56501113997006
C        -2.77749475623312   -1.16030746723005    1.78074057734059
C        -2.43260189847301    0.02008402143222    2.52061051881965
C        -2.77020806312771    1.13548947069105    1.80191810153880
C        -1.73468294276632   -3.00431404241077    0.58495122939780
C        -0.36442431426232   -3.44692244701425    0.58677020620294
C         0.25465992023276   -3.00834861465374    1.81357654824487
C        -0.72372600528447   -2.27470079354837    2.55488227273291
C        -1.97058570493417   -2.28179550177083    1.79953177771750
C        -0.24720172075087   -3.00914773235257   -1.81618475167907
C         0.74541043761296   -2.28905089806266   -2.57226269022848
C         1.96796331558040   -2.28913008545976   -1.81454660891938
C         1.73596279335241   -3.00717343293709   -0.59203396165574
C         0.36482052925600   -3.45099832859410   -0.59053197958399
C         2.78405870803039   -1.16441933504219   -1.81627371720143
C         2.40620805007164   -0.00293094116327   -2.57259615073029
C         2.78289308736436    1.16311919040310   -1.81423135535322
C         3.39800964593853    0.71893125232431   -0.59089179609086
C         3.39694208185524   -0.72161744529227   -0.59273424580191
C         1.96653024702770    2.28206761316660   -1.81103772230359
C         0.74375198045272    2.28083583425875   -2.57554626132962
C        -0.24431090617972    2.97977957754954   -1.81217665013804
C         0.37444596335606    3.44546253464741   -0.57737205712647
C         1.73715283315582    3.00312235155110   -0.58578092717009
C        -1.54388590981961    2.55994828364473   -1.82694337349562
C        -1.92808401138535    1.40477499308426   -2.56536413014520
C        -2.92258983175375    0.67795353589465   -1.81464624793525
C        -3.16647096704039    1.36632869802297   -0.59844252232571
C        -2.47631970776343    2.72042597136994   -0.62912116986896
C        -2.93568455899248   -0.71136685994992   -1.82680022487275
C        -1.94190045634855   -1.42335986228688   -2.58319253494577
C        -1.56616685556358   -2.58679012826379   -1.82160605900395
C        -2.32983805315176   -2.58855668928174   -0.60287586898454
C        -3.18079603613821   -1.43277746301659   -0.61228565338944
C        -0.98765791335022   -0.72680357242548   -3.30623971392580
C        -0.98218646901242    0.71229886203774   -3.31017409576714
C         0.38142629413469    1.15781243460750   -3.30833956268783
C         1.22789786603813   -0.00496812294239   -3.30436202276874
C         0.38300045433919   -1.16932646888527   -3.30355491617004
Cl       -1.91831636175118    0.00359272541355    5.25609884556365
Cl       -3.71178601983834    4.08236399168994   -0.96118379144343
62
 energy: -137.561663897374 gnorm: 0.027319170867 xtb: 6.4.1 (a3dbbd7)
C        -1.28456759237754    0.00602173941861    3.49384953282553
C        -0.35896858098835   -1.17494241219245    3.30631442199511
C         0.99295399723517   -0.72249865758406    3.28973802070350
C         1.00008295075925    0.71955167021939    3.29355002345839
C        -0.35024766661616    1.18041779305874    3.31023019247626
C         2.33393508620082   -2.58371711622497    0.58538969055586
C         3.18161941396583   -1.42008891590547    0.58380974872194
C         2.95043595562220   -0.69893532301744    1.81111120503771
C         1.95747581225418   -1.41983554645445    2.56629013325501
C         1.57854433357230   -2.57979907429709    1.81156279329586
C         3.18848320380679    1.40972403660064    0.58719858271235
C         2.34712003937972    2.57823995195688    0.59383080010028
C         1.59825583643768    2.57828708436682    1.81998936497773
C         1.96873819784715    1.41257961869841    2.57157278057665
C         2.95659370019244    0.68691250165210    1.81328421938840
C        -0.34993003029422    3.42941902478955    0.59823751444590
C        -1.72465838408145    2.99780659082084    0.62515240942600
C        -1.94516397103633    2.29171486752894    1.79325788843694
C        -0.71044134214062    2.27953609792052    2.57276815072710
C         0.27513310521946    3.00354956067992    1.82313297845085
C        -3.39926154477453    0.70197405651869    0.56316020280080
C        -3.39935491871824   -0.73300931374961    0.56430737227906
C        -2.77503834024901   -1.15983683711355    1.78744841196193
C        -2.42426846537590    0.01769276882245    2.53829166594930
C        -2.77319790982402    1.13836858977425    1.80816305493582
C        -1.73276456886298   -3.00354328291359    0.58302018147365
C        -0.36208297155109   -3.44482429988622    0.58541611031347
C         0.25391235267440   -2.99940727227000    1.81230722641161
C        -0.72720956344492   -2.27261244675797    2.56547226072427
C        -1.96923513599330   -2.28126056697391    1.80139124450813
C        -0.24408165744009   -3.01453076994094   -1.82138338228761
C         0.74921143899226   -2.29398354453630   -2.57781228330342
C         1.97260424108757   -2.29368339230835   -1.81877907405870
C         1.74049223054837   -3.01140252664101   -0.59448434939178
C         0.36780834327164   -3.45357921438464   -0.59305430522392
C         2.78928425924068   -1.16850096590433   -1.82042100882223
C         2.41012591756635   -0.00588513571803   -2.57702290367890
C         2.78627806725772    1.16035338766910   -1.81667741567049
C         3.40510035810048    0.71586631277451   -0.59388172075712
C         3.40392154476179   -0.72558505420732   -0.59610466970072
C         1.96672040577848    2.27859255042755   -1.81037994791893
C         0.73952399770567    2.27713738287820   -2.56916185027425
C        -0.25224794106286    2.98792432781219   -1.81310224191805
C         0.37293248052788    3.44524939505023   -0.57816130639703
C         1.73828724035944    3.00037083045488   -0.58531338314913
C        -1.56200977022757    2.57806008197138   -1.83166730237904
C        -1.93191209726384    1.41051634875628   -2.56600688059618
C        -2.92711653676182    0.68347546284575   -1.81694980205740
C        -3.18085471653990    1.38606973956777   -0.60390660482557
C        -2.48350695119736    2.72776903146271   -0.63609162916974
C        -2.93397049879404   -0.70902743594269   -1.83066983844755
C        -1.94100931323803   -1.42575902143687   -2.58872916906911
C        -1.56454108224824   -2.59147247502099   -1.82770184116826
C        -2.32844518408530   -2.59224722664074   -0.60695733384736
C        -3.17618397135930   -1.43216087326859   -0.61490974905837
C        -0.98580878245150   -0.72831955551253   -3.31113618100362
C        -0.98285733628939    0.71288136455301   -3.30821237427785
C         0.38159588400553    1.15615855855356   -3.30767927607447
C         1.23073631471676   -0.00715670655416   -3.30915757696441
C         0.38573473625529   -1.17285329281479   -3.30950289213919
Cl       -1.92011159805102    0.00646191508378    5.25521833134845
Cl       -3.71588958274646    4.08023491985889   -0.95933626999939
62
 energy: -137.562649055540 gnorm: 0.016385511160 xtb: 6.4.1 (a3dbbd7)
C        -1.28863235653685    0.00564831411877    3.51562567585998
C        -0.36566322577214   -1.17261914904495    3.31273727345040
C         0.98862409046312   -0.72238537323595    3.28817121866613
C         0.99596901151420    0.71925891886735    3.29203725300300
C        -0.35675697053591    1.17761443615971    3.31484593699214
C         2.33649314859489   -2.58515096972118    0.58380354951023
C         3.18513169845091   -1.42165372901873    0.58291708797248
C         2.95156615994761   -0.69941084921737    1.80996506927773
C         1.95551149008252   -1.41811167286883    2.56424116391806
C         1.57878501691421   -2.57840850519708    1.80965649525608
C         3.19287264206953    1.40997762175470    0.58644236768438
C         2.35080478741603    2.57890203062886    0.59301051622858
C         1.59849570266727    2.57649736757526    1.81844600701890
C         1.96750600051200    1.41060759424878    2.57018928668781
C         2.95853659427173    0.68684499140033    1.81270212066934
C        -0.35283713046813    3.42918878581757    0.59523226110381
C        -1.73063970750508    2.99736473733565    0.61690803943202
C        -1.95021279770408    2.29494114461319    1.79058634805721
C        -0.71367646299942    2.27516676338495    2.57079043709899
C         0.27307120916655    2.99586942088402    1.81820645820203
C        -3.39223626308126    0.70540846861759    0.56345551356382
C        -3.39119299714947   -0.73004099058243    0.56415989263295
C        -2.77201454831047   -1.15881527044606    1.79098456303249
C        -2.41666841751291    0.01765470421045    2.54776822210972
C        -2.77306886477636    1.13795038520201    1.81534126470566
C        -1.73233776246590   -3.00433867860236    0.58119279253695
C        -0.36123763030510   -3.44299596566452    0.58359748933537
C         0.25301938174092   -2.99310537966687    1.80971369472066
C        -0.72949397475236   -2.27026217813720    2.56749413694920
C        -1.97020698015614   -2.28249748790801    1.80093391511248
C        -0.24248338030857   -3.01758503925948   -1.82452943945431
C         0.75161859909677   -2.29689462447036   -2.58099447325791
C         1.97553507290392   -2.29598399360088   -1.82145134130411
C         1.74275871985393   -3.01302844992707   -0.59646889250972
C         0.36940756502034   -3.45507555355989   -0.59522663135984
C         2.79297265293944   -1.17040092908652   -1.82240416720988
C         2.41272007578083   -0.00738846059519   -2.57852899084864
C         2.78882393957823    1.15925522085359   -1.81764163563818
C         3.40949529397650    0.71509241647174   -0.59524993910725
C         3.40826157231044   -0.72703313518270   -0.59777062226967
C         1.96660979295476    2.27634036877260   -1.80923179930442
C         0.73714323732459    2.27357795419905   -2.56456963373812
C        -0.25583496815662    2.98888582754019   -1.81229966789004
C         0.37348110254818    3.44575696249744   -0.57861693981009
C         1.73966128536249    2.99970620526606   -0.58544225694115
C        -1.56958465510732    2.58334802557625   -1.83101858633533
C        -1.93187925031199    1.41154785671375   -2.56324959224390
C        -2.92686870391161    0.68582495119715   -1.81378625989435
C        -3.18544719083653    1.39734141974460   -0.60388569542920
C        -2.49149657967150    2.73859094170942   -0.64085462379561
C        -2.93268006008311   -0.70780151312025   -1.83061809265387
C        -1.94057193133764   -1.42681525675460   -2.58986934147459
C        -1.56415018878615   -2.59459337959547   -1.83067180926337
C        -2.32837388460164   -2.59549826184185   -0.60930817516218
C        -3.17354296784369   -1.43212896939310   -0.61518267259167
C        -0.98448315987231   -0.72941092555943   -3.31189538988234
C        -0.98239455008955    0.71208253135270   -3.30555277779300
C         0.38206818144010    1.15430446321041   -3.30648991244799
C         1.23291696438086   -0.00888843616912   -3.31095131872866
C         0.38761462554488   -1.17487506298974   -3.31257077681493
Cl       -1.92615076152439    0.00928988729980    5.25976114751032
Cl       -3.71795385309565    4.08181677956674   -0.95447379250048
62
 energy: -137.563034008278 gnorm: 0.008679275317 xtb: 6.4.1 (a3dbbd7)
C        -1.29238635172440    0.00526118557190    3.53090656597246
C        -0.36920776863198   -1.17102047128897    3.31034872019484
C         0.98577006915411   -0.72217354403109    3.28483240824017
C         0.99279650650028    0.71933958480554    3.28827667465108
C        -0.36061863630895    1.17575001350161    3.31184953664468
C         2.33732632078757   -2.58543747549062    0.58309169883913
C         3.18603174477771   -1.42173862135087    0.58284987048335
C         2.95110848534786   -0.69880323622879    1.80948011259760
C         1.95417069532564   -1.41714311827467    2.56270686607633
C         1.57849772880852   -2.57814399035239    1.80868145697535
C         3.19404898730107    1.41134948205830    0.58637518630813
C         2.35204115190486    2.58054396849181    0.59246300690274
C         1.59786559285703    2.57706376910158    1.81769740072903
C         1.96578658069614    1.41053160621236    2.56866225272442
C         2.95827675699089    0.68766273822941    1.81237588437055
C        -0.35371053846515    3.42921838823766    0.59365439522657
C        -1.73171772364444    2.99477392815771    0.61333584645642
C        -1.95280969773473    2.29709263256830    1.78840016636766
C        -0.71520503022505    2.27374461813387    2.56813946105014
C         0.27178792668619    2.99310015204660    1.81578304446559
C        -3.38648299727659    0.70580769544118    0.56455041068467
C        -3.38806441568572   -0.72874059134347    0.56486895837612
C        -2.77056117155378   -1.15861776078743    1.79283626152424
C        -2.41200242894499    0.01762772571304    2.55153799253723
C        -2.77221441130289    1.13655428296896    1.82034405315674
C        -1.73308529406017   -3.00620607846451    0.58055589417353
C        -0.36152504211258   -3.44294868820486    0.58285154471720
C         0.25246257419885   -2.99115637796476    1.80826237139474
C        -0.73069855563440   -2.26989960248409    2.56657198400522
C        -1.97207355921390   -2.28481128656953    1.80066691698276
C        -0.24227845708465   -3.01850367563343   -1.82546324752764
C         0.75232336996209   -2.29776860630806   -2.58194736954705
C         1.97647066184214   -2.29640927921982   -1.82226258182872
C         1.74326976814651   -3.01329614276343   -0.59714065866548
C         0.36966797441842   -3.45593629957257   -0.59607347467660
C         2.79434448431573   -1.17050950441719   -1.82271287990983
C         2.41365256609105   -0.00738973877270   -2.57866138929483
C         2.79009811832770    1.15975511968855   -1.81791450844971
C         3.41094332451318    0.71576114111593   -0.59540721317247
C         3.40974225549512   -0.72677644898379   -0.59797034691980
C         1.96683229171730    2.27643764241267   -1.80894888203568
C         0.73671034500178    2.27239073835478   -2.56340096370070
C        -0.25617751122071    2.98792106696150   -1.81209537693893
C         0.37433314994168    3.44711966621864   -0.57926669538044
C         1.74073158808289    3.00100543559862   -0.58598639698728
C        -1.56997022640394    2.58141056485529   -1.82870550004971
C        -1.93097006482199    1.41028631929768   -2.56115450688166
C        -2.92559302975960    0.68597900196314   -1.81024428117308
C        -3.18481509068560    1.40146650330996   -0.60164614201702
C        -2.49442390396200    2.74535164664323   -0.64268112156212
C        -2.93266440855895   -0.70746102826890   -1.82933056069774
C        -1.94087356860965   -1.42686670993933   -2.58938225852485
C        -1.56460173127881   -2.59566010196088   -1.83123477304096
C        -2.32901054004915   -2.59735770921506   -0.60980248465760
C        -3.17318954324043   -1.43231616978191   -0.61411402847564
C        -0.98430062343174   -0.72993695849535   -3.31163483189909
C        -0.98203918931787    0.71123743643484   -3.30455865450025
C         0.38244204752061    1.15369807538955   -3.30627566564803
C         1.23388021088108   -0.00946469851833   -3.31140297602832
C         0.38820376276845   -1.17538731655461   -3.31347945655180
Cl       -1.92928401865432    0.01015309106973    5.25758525062950
Cl       -3.71235807150543    4.08094531706096   -0.94953101607112
62
 energy: -137.563139700761 gnorm: 0.003868719799 xtb: 6.4.1 (a3dbbd7)
C        -1.29388179408259    0.00518148821190    3.53547783798932
C        -0.36949888711401   -1.17051896347490    3.30636611778614
C         0.98517603082814   -0.72195762263875    3.28303065469009
C         0.99190715932425    0.71964020220484    3.28623052380324
C        -0.36129884040089    1.17549309071576    3.30813216539379
C         2.33718567868693   -2.58520710554749    0.58321942431407
C         3.18558946855993   -1.42126147949047    0.58310449869013
C         2.95056618635289   -0.69826206621783    1.80959525868292
C         1.95389022569405   -1.41699707371011    2.56236990778594
C         1.57825446738396   -2.57846866974417    1.80871130112017
C         3.19334905034173    1.41216860276146    0.58657373309924
C         2.35152404305550    2.58139595717300    0.59238776212514
C         1.59731843506009    2.57818014646899    1.81774761452984
C         1.96503082345282    1.41118967984224    2.56813443834333
C         2.95751992826557    0.68821863181024    1.81238812353058
C        -0.35348637931115    3.42926741709843    0.59366421136804
C        -1.73053038513505    2.99281382565637    0.61359610208945
C        -1.95297800741210    2.29746034151245    1.78797302176932
C        -0.71543876840639    2.27488598425451    2.56764360968241
C         0.27151760016231    2.99400871447753    1.81594226640269
C        -3.38544858219597    0.70501595966401    0.56532404212576
C        -3.38891808086576   -0.72890906160477    0.56550110482623
C        -2.77065169761821   -1.15884640166187    1.79307451444818
C        -2.41128954759325    0.01757657658171    2.55113818471705
C        -2.77170753838092    1.13560374775180    1.82140578598363
C        -1.73375378265784   -3.00725504611327    0.58082210680498
C        -0.36196776917242   -3.44368870124752    0.58301293539952
C         0.25238157946614   -2.99192806378708    1.80820709229512
C        -0.73088208233531   -2.27064277264394    2.56569058107703
C        -1.97313298266052   -2.28601394324472    1.80079340471819
C        -0.24255983346261   -3.01811805592888   -1.82506780116998
C         0.75210212044810   -2.29740097463345   -2.58154953387665
C         1.97622635930145   -2.29592963664705   -1.82190426544291
C         1.74300849214022   -3.01300037912221   -0.59687962170631
C         0.36940535760147   -3.45601305626674   -0.59587527372090
C         2.79406990594703   -1.16993154655043   -1.82229072066236
C         2.41343425484969   -0.00686862509693   -2.57838072224037
C         2.79008783916081    1.16048558692711   -1.81782472525804
C         3.41048833095957    0.71647577869011   -0.59508518055077
C         3.40935443411528   -0.72611262629895   -0.59756478589059
C         1.96710587316032    2.27739042440517   -1.80927608106826
C         0.73720809131214    2.27286894443257   -2.56425356549886
C        -0.25541502371078    2.98720434404125   -1.81250624881456
C         0.37441261747403    3.44780748142722   -0.57957493916959
C         1.74082627001928    3.00216236022730   -0.58632621697989
C        -1.56773921288135    2.57789338342238   -1.82723060619245
C        -1.93067720833122    1.40892862501397   -2.56071156362296
C        -2.92527285312456    0.68528135640310   -1.80890241213515
C        -3.18338492712918    1.40063542512866   -0.60002680140021
C        -2.49378882129726    2.74684550292018   -0.64233235265402
C        -2.93331191678098   -0.70768979829020   -1.82855052955068
C        -1.94122560317074   -1.42654380841713   -2.58879407443823
C        -1.56492021668648   -2.59527827569374   -1.83066753829828
C        -2.32936967522407   -2.59747577483513   -0.60938348256826
C        -3.17389380314428   -1.43256565340275   -0.61326021703788
C        -0.98463100885558   -0.73002310409985   -3.31143996993700
C        -0.98204576157620    0.71091395390279   -3.30484844746444
C         0.38247035462070    1.15394964740938   -3.30659809916927
C         1.23377552881239   -0.00926338761131   -3.31122414467348
C         0.38801291694298   -1.17513256538916   -3.31314396576043
Cl       -1.92865969419560    0.00940550143293    5.25153620177022
Cl       -3.70473529932864    4.07941486381494   -0.94720868976494
62
 energy: -137.563162597339 gnorm: 0.001542323195 xtb: 6.4.1 (a3dbbd7)
C        -1.29404218163137    0.00523268701667    3.53521916828877
C        -0.36872957540763   -1.17061430418696    3.30469549478035
C         0.98552166069443   -0.72184232024045    3.28282700768279
C         0.99216750541519    0.71983472491482    3.28606276233376
C        -0.36072451375176    1.17585191359255    3.30682667316974