62
 energy: -137.543519366213 gnorm: 0.000121953665 xtb: 6.4.1 (a3dbbd7)
C        -1.30182865040039    0.00926583274486    3.53812148228193
C        -0.37362763502587   -1.16333375356480    3.31011677574988
C         0.97583767740843   -0.71162908636585    3.28017849230500
C         0.97370571261988    0.73022023960333    3.28245964884662
C        -0.37272885309576    1.18522113183744    3.31524287039894
C         2.49784740053655   -2.75107676810180    0.63474734235555
C         3.19482859868472   -1.40651671390111    0.58929271961745
C         2.92922865427320   -0.69038873575823    1.78830505704903
C         1.93557721754084   -1.40881803111968    2.54686720995175
C         1.57508312874573   -2.57896613662289    1.82107377875639
C         3.17943449575268    1.43049372065831    0.58806911976252
C         2.33853857793606    2.60057952334672    0.58831835724443
C         1.57765190211297    2.59408385708241    1.81192548250302
C         1.94748832718721    1.42323702481208    2.55988675754841
C         2.93464466119969    0.70613371805236    1.80566290824035
C        -0.36143501155924    3.45422648847973    0.58625456353554
C        -1.73646590538390    3.00549265896331    0.59449668690043
C        -1.96668171165720    2.30302795191618    1.81001063322451
C        -0.73656527712178    2.28821518894791    2.56954146249106
C         0.25398211279690    3.00951355552436    1.81022716078176
C        -3.39403206803987    0.71111791820082    0.57088340941800
C        -3.40598482077818   -0.71863566289354    0.56856538622056
C        -2.77289128529532   -1.14817792238972    1.79483995773858
C        -2.41792868534893    0.01149218078995    2.55670597270471
C        -2.76630686527140    1.14480175639235    1.80882800012842
C        -1.73698585957133   -2.99618281511408    0.57568313406520
C        -0.37346636495596   -3.43377914260540    0.57378689767998
C         0.25912476564278   -2.97599256595203    1.80684347720220
C        -0.72668146632058   -2.25986802961901    2.56007095489917
C        -1.96745115230526   -2.27586368865013    1.79171704593194
C        -0.26317059019591   -3.00177957448164   -1.83279472551644
C         0.72293205013470   -2.27972687190842   -2.57481778899335
C         1.95039151889421   -2.28171456300043   -1.79514351587316
C         1.73024475852907   -3.00201027613049   -0.61281478966651
C         0.36217865229257   -3.42565000496222   -0.60059103784506
C         2.79044446436491   -1.15288707582616   -1.82480998193821
C         2.40631465621906   -0.00408030603603   -2.57090329966681
C         2.78179315673030    1.17082189007934   -1.81540971162134
C         3.39412430960713    0.72835967024452   -0.58905695350880
C         3.39495238086185   -0.71317074784178   -0.58723952273278
C         1.96863437144874    2.29115461899729   -1.81570359394435
C         0.73590025304592    2.29256212996337   -2.57578739188493
C        -0.24797544200506    3.00731102180345   -1.82402730710947
C         0.36627049353669    3.45520394547414   -0.59137026197046
C         1.73870830340346    3.01744202374215   -0.59305504348771
C        -1.57332647262130    2.57876674207855   -1.81869726688708
C        -1.95399743224917    1.41594798032002   -2.58555173702554
C        -2.95032581475264    0.69420558279760   -1.83346735475307
C        -3.17558280999999    1.41379117382235   -0.60357038181305
C        -2.32684478262226    2.57631531501914   -0.60023816190241
C        -2.95624165178874   -0.69302761497409   -1.83853930769746
C        -1.96383339900925   -1.41398798328162   -2.59681448562885
C        -1.58920714803981   -2.58073514042672   -1.83318874533251
C        -2.35116466892970   -2.58598534652473   -0.61813283527154
C        -3.18662665888631   -1.42026197868665   -0.61264874312963
C        -1.00531619510599   -0.71877899765868   -3.31959852391396
C        -1.00035426862275    0.72315535204846   -3.31420304213190
C         0.37485368252240    1.16347495844849   -3.30726183060837
C         1.21517245727826    0.00317401356051   -3.30661203758576
C         0.36800826299771   -1.16049476240942   -3.31115280487192
Cl       -1.93996770117881    0.00740086520827    5.25570360937486
Cl        3.70609012997039   -4.09429721989365    0.94199412816112
