62
 energy: -137.535629775827 gnorm: 0.044792819052 xtb: 6.4.1 (a3dbbd7)
C        -1.31364098317726    0.00496774813710    3.54622057821524
C        -0.37880613612426   -1.15543464403179    3.30915784030870
C         0.96625039230013   -0.71272272796812    3.27681924447086
C         0.96523873600791    0.72243686981070    3.28286017099093
C        -0.38701531274143    1.17079927579149    3.31687808511483
C         2.33643748886280   -2.58604165624763    0.58656047587241
C         3.40022806276297   -1.51961043926758    0.63107453210880
C         2.93763358564353   -0.70347586403334    1.81335093453457
C         1.94015113517845   -1.39847995248633    2.54041383902545
C         1.56822807554463   -2.56233374489828    1.78695928736378
C         3.17407924576274    1.41018949915731    0.57321186099672
C         2.32963314485665    2.55756697806653    0.57021526350519
C         1.56762920091824    2.55194918770701    1.79607958212696
C         1.93167782160546    1.38786669255256    2.53933610369948
C         2.93075445038708    0.66982474391643    1.80111456167615
C        -0.36610991608472    3.43280257430023    0.59243896988919
C        -1.74033266081343    2.99167841073918    0.59003178855698
C        -1.97629085205339    2.28859566647692    1.80539198182983
C        -0.74135484241124    2.27002875629555    2.58057042517036
C         0.24846050338906    2.97031949012915    1.80529479247034
C        -3.40686749008497    0.71951642962570    0.57029074499886
C        -3.40690166424394   -0.70886017674141    0.57123804425044
C        -2.78853472181322   -1.14270873838948    1.81697872619037
C        -2.42928317289444    0.00484093849209    2.55642231816682
C        -2.78387568078290    1.15540624630666    1.81276572960306
C        -1.74663641531246   -2.98241513694029    0.59676027061814
C        -0.37167721218570   -3.41956002320266    0.59570886719347
C         0.23861882393140   -2.96353955489043    1.80367465230306
C        -0.74329625496312   -2.25766634844100    2.57531932699839
C        -1.98161725152990   -2.27774006050249    1.81305330987315
C        -0.24040342152492   -2.99150735127299   -1.80598267576435
C         0.75050736728384   -2.27196584601267   -2.57137526781584
C         1.96483730812974   -2.27936819540477   -1.82918223271088
C         1.74169211094470   -2.99460063086611   -0.57749097847542
C         0.36619845289057   -3.41522505216453   -0.57526624827964
C         2.78374585400258   -1.15480455580338   -1.81567319293151
C         2.39758208540187    0.01458369618031   -2.59359994311621
C         2.77272061813038    1.16904886061141   -1.84072496609361
C         3.39209699322431    0.70259283449364   -0.60675266943389
C         3.39615454541641   -0.70800973607284   -0.62011967588501
C         1.96381553208181    2.28836056847787   -1.82961825663385
C         0.73793946403408    2.29283614807678   -2.58484090377182
C        -0.24920116685304    3.00566401766307   -1.82150731663840
C         0.36173957122370    3.43397190042314   -0.58604841157526
C         1.73049577990236    3.00439562397765   -0.60098248713199
C        -1.56488052198657    2.57680708002359   -1.81487095818282
C        -1.94613028843395    1.41254714660103   -2.57933428951268
C        -2.94539359879981    0.69775189798063   -1.82791008090271
C        -3.17689452905636    1.41419376085734   -0.60188254164710
C        -2.32920601193068    2.57979441345651   -0.60159288184047
C        -2.94255006007118   -0.69120087615175   -1.82561952896954
C        -1.94879724318247   -1.40869183303645   -2.57556318967362
C        -1.55793024507567   -2.56527040776607   -1.80616593190215
C        -2.32948689213758   -2.57112224789749   -0.59560803963726
C        -3.17806222182419   -1.40708654053134   -0.59850515040918
C        -0.99276971583186   -0.71947128896768   -3.30139158006238
C        -0.99596382857136    0.72461788570772   -3.30671302452342
C         0.37330020299587    1.17142142552034   -3.31958094940536
C         1.21986911663364    0.00792013746473   -3.31690173609314
C         0.37248148882876   -1.15815224018549   -3.31538445093727
Cl       -2.01788023492296   -0.00440729516339    5.23487333209698
Cl        5.07358578072409   -2.21511005152679    0.88621317724449
62
 energy: -137.538134881522 gnorm: 0.022303930324 xtb: 6.4.1 (a3dbbd7)
C        -1.30842880464904    0.00409737093886    3.53817645322059
C        -0.37886116810967   -1.16676189766576    3.30957848005463
C         0.96576047714307   -0.71281503766715    3.27455853316681
C         0.96609433494348    0.72641839368151    3.28339085441543
C        -0.38567214765076    1.17902440236179    3.31656126702250
C         2.33546182647904   -2.59503180734123    0.58347691798610
C         3.39338176211126   -1.51813708771665    0.63223380277143
C         2.94273852054924   -0.69536168813989    1.81861262057690
C         1.94078295856296   -1.39805369016618    2.53793230940752
C         1.56858876267735   -2.56710987542161    1.78532870306304
C         3.17869595126284    1.41747490667202    0.57954578696153
C         2.33013172137292    2.56992551467560    0.57700012988159
C         1.56825806874626    2.56921561323675    1.80279999034399
C         1.93522821366797    1.40531133039637    2.55004577736059
C         2.93323209547767    0.68334425770236    1.80569140860701
C        -0.36627132340269    3.44818109962698    0.58911902090678
C        -1.74007946464568    3.00265094345950    0.59133729295743
C        -1.98243238767755    2.29967558244823    1.81114251190969
C        -0.74401204802003    2.27969650278812    2.57391732146447
C         0.24593443265098    2.99179018386960    1.80636395861622
C        -3.40502216341491    0.72194904608803    0.57409908330514
C        -3.40690557864247   -0.71115804356134    0.57494507850176
C        -2.78429130434078   -1.14444400453655    1.81426981116790
C        -2.43048614417795    0.00550125666868    2.55745134427912
C        -2.78352750949904    1.15835345421886    1.81181902561750
C        -1.74502052170815   -2.99522180105085    0.59369889165790
C        -0.37149783283752   -3.43789101691753    0.59050665790202
C         0.24089923362521   -2.98519246215625    1.80185648716268
C        -0.74436663567326   -2.27247652520488    2.57140462655994
C        -1.98159497255323   -2.28721586874168    1.81498656014938
C        -0.24689929525362   -3.00259840308795   -1.81452647472127
C         0.74837165091898   -2.28205867948225   -2.57412129602164
C         1.97038499543111   -2.29046602782892   -1.83466850189591
C         1.73744480394277   -3.00055804335968   -0.58643319422436
C         0.36347882598575   -3.43365059199060   -0.58719568754213
C         2.78240935544707   -1.15723875416592   -1.81465678824654
C         2.39817750064379    0.00984938314462   -2.58849208626266
C         2.77623802471934    1.16914837612834   -1.83562295542828
C         3.38936606821219    0.70439959650647   -0.60270135508563
C         3.39928923757707   -0.70918344660896   -0.61907450156140
C         1.96567018977076    2.29085179390196   -1.82920069999783
C         0.73902097343303    2.29365164875324   -2.58605686489264
C        -0.24933757227431    3.01075312775385   -1.82387973131540
C         0.36462003352916    3.44804314743313   -0.59194494731999
C         1.73256518189506    3.01182978867910   -0.59987519125909
C        -1.56906772851806    2.58164534686226   -1.81884496690667
C        -1.95044433565989    1.41632195765930   -2.58265680813596
C        -2.94735226816539    0.69888235539952   -1.82821840310661
C        -3.17811607122146    1.41815056716491   -0.60211465534123
C        -2.32981122275773    2.58401609029744   -0.60021539338248
C        -2.94598120754561   -0.69058293644340   -1.82629786248269
C        -1.95256549883715   -1.41120007137053   -2.57838326830804
C        -1.56793461026742   -2.57411226216835   -1.81334084532084
C        -2.33191829903594   -2.57707523880824   -0.59719887950987
C        -3.18042555803871   -1.40880907776742   -0.59875285056957
C        -0.99451559222236   -0.71980310398088   -3.30647638002136
C        -0.99741174567893    0.72483409635681   -3.31133342784917
C         0.37337719457916    1.17099604781686   -3.31880599457945
C         1.21889671150629    0.00509721151663   -3.31620945996882
C         0.37238994440793   -1.16216224630120   -3.31416157911562
Cl       -1.97871134841319   -0.01433465556814    5.24071027858071
Cl        5.05806570120357   -2.22166236083191    0.91998932230209
62
 energy: -137.538634535274 gnorm: 0.007540785379 xtb: 6.4.1 (a3dbbd7)
C        -1.30830348154801    0.00463675931438    3.53305194941106
C        -0.37872403551906   -1.16942641618242    3.30637426177240
C         0.96490224072981   -0.71216935514850    3.27245053845280
C         0.96595750112631    0.72757962251287    3.28097279824652
C        -0.38473708490628    1.18239074384718    3.31507517852871
C         2.33389221532119   -2.59786168839856    0.58205330156984
C         3.39046983095811   -1.51669478015555    0.63013334687659
C         2.94195152915972   -0.69199688268315    1.81864896558234
C         1.94020961902128   -1.39750819461666    2.53568656546181
C         1.56715667222424   -2.56709771679793    1.78350884534019
C         3.18104673770897    1.41866600239282    0.58252279196434
C         2.32882592016688    2.57486142359473    0.58067016627086
C         1.56827593606526    2.57559699248296    1.80589919209106
C         1.93762871286859    1.41425008472480    2.55618809987995
C         2.93247588188434    0.68910927417613    1.80515346854531
C        -0.36706020797262    3.45437504960010    0.58832238216568
C        -1.74030230961991    3.00819218384691    0.59203860212989
C        -1.98573617271195    2.30478149460117    1.81491730151668
C        -0.74601440434433    2.28284242716005    2.56907880495942
C         0.24398238012444    3.00142430045116    1.80679171330165
C        -3.40332300358725    0.72380861699350    0.57572746023172
C        -3.40526858019900   -0.71237569844991    0.57655572391364
C        -2.78166572475680   -1.14373613628576    1.81193035838649
C        -2.43382017548292    0.00638951742407    2.55931117822095
C        -2.78297423752886    1.15933806507650    1.80916041432625
C        -1.74264446089566   -3.00036823461463    0.59182210955836
C        -0.37081191198543   -3.44510482584675    0.58870598678968
C         0.24203525060553   -2.99693771639212    1.80179167841430
C        -0.74556706416722   -2.27709804624578    2.56730481964339
C        -1.98102654161722   -2.28998280534210    1.81722576823642
C        -0.24856088753683   -3.00715454553943   -1.81822602752228
C         0.74755827564029   -2.28704496224974   -2.57589427232107
C         1.97414874676142   -2.29616590007686   -1.83715621620784
C         1.73501104135251   -3.00096830890488   -0.59125711559455
C         0.36275262195386   -3.44186565427162   -0.59323221770632
C         2.77990608284009   -1.15695637409741   -1.81472859793758
C         2.39739053712279    0.00691788350508   -2.58598871526127
C         2.77681789436360    1.16894575973416   -1.83215138936513
C         3.38660676712826    0.70448109803063   -0.60182937984243
C         3.40336045513309   -0.71024385410243   -0.62049370536483
C         1.96501840300345    2.29057178765507   -1.82836138275929
C         0.73878837246640    2.29355289710078   -2.58611785842936
C        -0.24972058435389    3.01273042474411   -1.82365053798650
C         0.36550604514135    3.45425391144116   -0.59426695092175
C         1.73231442405665    3.01366720199851   -0.59813583238822
C        -1.57099595588883    2.58362919836928   -1.82079218888931
C        -1.95200529160787    1.41827634104967   -2.58377539320863
C        -2.94727285982255    0.69901433514145   -1.82845609782384
C        -3.17829280536272    1.41992376959978   -0.60271269441275
C        -2.32942896016724    2.58503562334936   -0.59866842371571
C        -2.94653478430327   -0.69001267120468   -1.82670547612499
C        -1.95304382609647   -1.41273405584827   -2.57926981066243
C        -1.57178985272773   -2.57800414012641   -1.81662786854111
C        -2.33076126952899   -2.57884292267522   -0.59745663585783
C        -3.17954339780828   -1.40838296549342   -0.59891415303927
C        -0.99527530813533   -0.71968139664847   -3.30875396256731
C        -0.99804852335740    0.72440387257630   -3.31300155417540
C         0.37278385988275    1.17090022214258   -3.31755753140821
C         1.21776000688287    0.00404439634724   -3.31577725339587
C         0.37281458747827   -1.16386000508073   -3.31211662630082
Cl       -1.95080610483373   -0.02160112475709    5.24823194787551
Cl        5.04870365078215   -2.22800021459215    0.94585940757534
62
 energy: -137.538677424053 gnorm: 0.003273727791 xtb: 6.4.1 (a3dbbd7)
C        -1.30849231591804    0.00483288478074    3.53182743832110
C        -0.37812493046559   -1.16897344277330    3.30510568826987
C         0.96454377158218   -0.71182696788566    3.27213138933138
C         0.96543931074928    0.72753842279659    3.27954534597194
C        -0.38456850034456    1.18277567102066    3.31471644404961
C         2.33339996267445   -2.59796393530119    0.58185953730657
C         3.38966411870829   -1.51614033799552    0.62938945236133
C         2.94061103511456   -0.69188890360433    1.81839760777611
C         1.94001510874562   -1.39746586854321    2.53514769529773
C         1.56636512625844   -2.56612394978269    1.78253857281310
C         3.18105533667915    1.41741473700674    0.58300165983230
C         2.32773146897515    2.57474001693566    0.58076667973235
C         1.56793391460545    2.57507433323652    1.80564055782421
C         1.93770794565805    1.41519487823290    2.55686480327816
C         2.93202349547609    0.68938182285010    1.80447529834825
C        -0.36753109877419    3.45404536002498    0.58846326752727
C        -1.74068990392279    3.00865182614700    0.59172412259173
C        -1.98607154173840    2.30504895725952    1.81557126350172
C        -0.74652288984655    2.28271596830290    2.56829522708040
C         0.24338056574260    3.00171426703272    1.80649332620406
C        -3.40264828620724    0.72434761628648    0.57584877440627
C        -3.40440216650291   -0.71248071187637    0.57674508035556
C        -2.78108172966649   -1.14294451258104    1.81171502461506
C        -2.43466391211895    0.00663607727327    2.56039275582906
C        -2.78270344877198    1.15938571993446    1.80822096415296
C        -1.74185246067619   -3.00001447574655    0.59116375933042
C        -0.37066865024284   -3.44446795836712    0.58861169299467
C         0.24218410874960   -2.99817377184904    1.80172367820675
C        -0.74590139441222   -2.27688889533967    2.56656135859099
C        -1.98032616613776   -2.28922512520922    1.81812974328509
C        -0.24803255617767   -3.00682903134194   -1.81833747073607
C         0.74746888980685   -2.28714915348996   -2.57656470556225
C         1.97481909799884   -2.29669256276179   -1.83725601671369
C         1.73479343424626   -3.00033022087695   -0.59192573027771
C         0.36281349471474   -3.44183351102503   -0.59396166051170
C         2.77899187726406   -1.15652575456682   -1.81493068834874
C         2.39685367692590    0.00626379568424   -2.58573958832337
C         2.77643465144130    1.16872601016384   -1.83138441781831
C         3.38591716357143    0.70388398816733   -0.60197114406198
C         3.40457995708223   -0.71078538094365   -0.62082129410010
C         1.96435354131172    2.28962250660914   -1.82825453685425
C         0.73855575148327    2.29328523729058   -2.58613136083996
C        -0.24981102953374    3.01261703935725   -1.82318625840367
C         0.36525269649266    3.45424606887094   -0.59436885810022
C         1.73159992300490    3.01284341171066   -0.59765108640789
C        -1.57090857928065    2.58360787617789   -1.82116724484075
C        -1.95185609224422    1.41854446359531   -2.58380705559381
C        -2.94692125006625    0.69902320938820   -1.82863780441874
C        -3.17809168929467    1.41994677954789   -0.60296801517967
C        -2.32916650867844    2.58465293063191   -0.59840284676906
C        -2.94629028202432   -0.68973688301142   -1.82674505060582
C        -1.95261596780020   -1.41289678809276   -2.57911323335886
C        -1.57167657306299   -2.57786465479661   -1.81682347342663
C        -2.32967813701154   -2.57823401514399   -0.59732679389501
C        -3.17874764608949   -1.40747002228061   -0.59883159631522
C        -0.99553522100604   -0.71950505723310   -3.30883742982741
C        -0.99818601590426    0.72412893934910   -3.31303105793118
C         0.37241998816613    1.17088438273879   -3.31739333284297
C         1.21745199545260    0.00412926509912   -3.31576097558078
C         0.37296587139352   -1.16375367084796   -3.31155576923081
Cl       -1.94441906773012   -0.02433878765557    5.25032831110166
Cl        5.04685112315681   -2.22866642442452    0.95257923409618
62
 energy: -137.538686241181 gnorm: 0.001136584499 xtb: 6.4.1 (a3dbbd7)
C        -1.30857976738084    0.00485325897882    3.53139378264768
C        -0.37762222901562   -1.16850535004467    3.30460056780811
C         0.96432084711800   -0.71164656431123    3.27219467237619
C         0.96508893891069    0.72751383064065    3.27890662594310
C        -0.38461970169353    1.18273669451591    3.31465711561673
C         2.33329110605906   -2.59780075850813    0.58180916866254
C         3.38932450344867   -1.51584492404687    0.62911259403846
C         2.93976771290374   -0.69211296480514    1.81834081237175
C         1.94005657790486   -1.39752890190167    2.53496547134070
C         1.56602516052550   -2.56560362056513    1.78201670955559
C         3.18096471215407    1.41640044519851    0.58317072621426
C         2.32712549696523    2.57422623562207    0.58044946907068
C         1.56774339298437    2.57420669147026    1.80517445003429
C         1.93752649505197    1.41508469030926    2.55678286961201
C         2.93208407653891    0.68918312304660    1.80420489928456
C        -0.36767831138006    3.45332275402403    0.58868050208268
C        -1.74092174047298    3.00847108748452    0.59140097503801
C        -1.98608777580566    2.30482525012860    1.81569965025145
C        -0.74670486261074    2.28241159688205    2.56828321941339
C         0.24317287305554    3.00112866783015    1.80627007552221
C        -3.40242524487939    0.72459409780653    0.57580949728181
C        -3.40410934722974   -0.71242187559601    0.57675563462923
C        -2.78105532491834   -1.14251592359028    1.81197394768926
C        -2.43486438891214    0.00667304622785    2.56096705199182
C        -2.78271347578093    1.15951321151856    1.80791621087250
C        -1.74158038229061   -2.99929929025168    0.59087103614611
C        -0.37068079558265   -3.44343004654970    0.58870797836329
C         0.24219784573758   -2.99798378933953    1.80163897623935
C        -0.74613775389294   -2.27659336373414    2.56664475271540
C        -1.97988666802807   -2.28850385899204    1.81870809408812
C        -0.24757740787440   -3.00630395245744   -1.81801261254834
C         0.74743378220714   -2.28675919732746   -2.57687767768439
C         1.97498946801566   -2.29658273433499   -1.83717690542498
C         1.73491825793745   -2.99995597296985   -0.59195200732186
C         0.36289350443869   -3.44114077893017   -0.59392441716675
C         2.77870966788273   -1.15642918177536   -1.81520324425827
C         2.39662767337533    0.00604862961194   -2.58586273108698
C         2.77624072869285    1.16860296165110   -1.83128332739343
C         3.38591104376393    0.70343530839578   -0.60211635269936
C         3.40500023586268   -0.71104856654784   -0.62082082634873
C         1.96409704267156    2.28895183469992   -1.82840993691903
C         0.73853304131746    2.29311935025776   -2.58621158152690
C        -0.24975205316417    3.01236859719841   -1.82289528011197
C         0.36509293429086    3.45371346266283   -0.59421894573027
C         1.73121800335913    3.01210685398837   -0.59748524577545
C        -1.57058776647918    2.58344492309592   -1.82126049956207
C        -1.95161733118983    1.41858764359321   -2.58375782681517
C        -2.94677557190353    0.69910067723567   -1.82875110247378
C        -3.17802468001717    1.41982698444137   -0.60306238001572
C        -2.32900549317174    2.58432697113578   -0.59835275795666
C        -2.94620234864438   -0.68958749958690   -1.82668501337262
C        -1.95234407376361   -1.41288802964913   -2.57886027962641
C        -1.57132497956703   -2.57747919463900   -1.81660854000344
C        -2.32910907979228   -2.57767333211574   -0.59715395339064
C        -3.17847192819404   -1.40680014000228   -0.59870386728597
C        -0.99572600815538   -0.71943154762401   -3.30864471650503
C        -0.99825117933911    0.72397976866593   -3.31294037870403
C         0.37226040276490    1.17085235450073   -3.31751469774004
C         1.21741794482558    0.00426752062042   -3.31585555581821
C         0.37300759057995   -1.16356531453232   -3.31137080932379
Cl       -1.94349902295432   -0.02581499433262    5.25076025337269
Cl        5.04688802432116   -2.22791316622241    0.95419493782357
62
 energy: -137.538687342384 gnorm: 0.000411291163 xtb: 6.4.1 (a3dbbd7)
C        -1.30853043191890    0.00484057919857    3.53129171376409
C        -0.37738138062288   -1.16834874405719    3.30452818108439
C         0.96420387815625   -0.71159334954286    3.27228838244421
C         0.96502893807875    0.72761640923266    3.27889968676417
C        -0.38472313154242    1.18269052184191    3.31471001903766
C         2.33336446705213   -2.59774690381018    0.58177192501448
C         3.38918182811039   -1.51577353156877    0.62909692789006
C         2.93949596811996   -0.69225067018437    1.81839837659714
C         1.94016848026934   -1.39757975194650    2.53490641577067
C         1.56600575944488   -2.56564585782832    1.78191275430191
C         3.18097815410813    1.41605647687257    0.58328192919664
C         2.32699534819536    2.57401005377570    0.58028350341826
C         1.56772126073452    2.57395148926344    1.80502741710187
C         1.93742041632397    1.41494644782063    2.55665394309707
C         2.93239506585719    0.68916372998259    1.80425247384765
C        -0.36760946152682    3.45311261290060    0.58881741420028
C        -1.74097386914278    3.00835206655509    0.59128186952959
C        -1.98610731889582    2.30471385234371    1.81566145308596
C        -0.74673571601400    2.28237464825411    2.56848187467570
C         0.24315285118683    3.00090789075641    1.80623717623792
C        -3.40249052235185    0.72466249083463    0.57577789615035
C        -3.40419562512601   -0.71234867741949    0.57672870709339
C        -2.78119895623259   -1.14244059730335    1.81225556092877
C        -2.43475723720277    0.00661039437671    2.56099020393768
C        -2.78285293276771    1.15971717351973    1.80794666699228
C        -1.74156722044910   -2.99901806284186    0.59081782998492
C        -0.37070921231948   -3.44311731865509    0.58875584024579
C         0.24218697108551   -2.99775199843184    1.80157193117273
C        -0.74631175061666   -2.27666992807556    2.56691654570081
C        -1.97974058442074   -2.28830538380741    1.81895640032245
C        -0.24746666764058   -3.00621997831698   -1.81780798655643
C         0.74741633755200   -2.28658228777935   -2.57694402589653
C         1.97500362209839   -2.29646932722028   -1.83718344750824
C         1.73506966941915   -2.99998884894627   -0.59188294835730
C         0.36292940312272   -3.44090325543849   -0.59384188798737
C         2.77876594038977   -1.15656801307401   -1.81542358421950
C         2.39664743733163    0.00603385436883   -2.58601537231983
C         2.77626035441202    1.16857949538903   -1.83143138947655
C         3.38614046754488    0.70326836191073   -0.60214016603524
C         3.40490943682798   -0.71103396528899   -0.62072252501774
C         1.96413586032559    2.28872486576326   -1.82859166725054
C         0.73861366122614    2.29307098758875   -2.58626972764251
C        -0.24967620700265    3.01226395846813   -1.82281482746996
C         0.36510672182156    3.45348174502808   -0.59411259459692
C         1.73118154750841    3.01188524488975   -0.59743902786153
C        -1.57040718796584    2.58339142006114   -1.82124785742869
C        -1.95153242815858    1.41858394118064   -2.58374463495959
C        -2.94680281947815    0.69918812358776   -1.82878222740352
C        -3.17807948292325    1.41978594483371   -0.60306192224211
C        -2.32895423720507    2.58426809148921   -0.59834309012371
C        -2.94625290667297   -0.68954941531051   -1.82661209174794
C        -1.95229164997005   -1.41286704871228   -2.57872154941489
C        -1.57120230720505   -2.57735855253151   -1.81644148001786
C        -2.32900515288405   -2.57753516063651   -0.59705079703188
C        -3.17856043401403   -1.40654575184717   -0.59862650722876
C        -0.99581108018083   -0.71945024650605   -3.30851187645607
C        -0.99827988739839    0.72395077525699   -3.31290948394725
C         0.37224750444553    1.17081298534110   -3.31765310547841
C         1.21748749148966    0.00431623867675   -3.31594263663473
C         0.37300435451898   -1.16354351731161   -3.31136367593180
Cl       -1.94448031161243   -0.02627695204210    5.25055900635965
Cl        5.04746130628566   -2.22713608677222    0.95366334580206
62
 energy: -137.538687516777 gnorm: 0.000103976577 xtb: 6.4.1 (a3dbbd7)
C        -1.30849763901762    0.00486673603864    3.53125333683315
C        -0.37739497803294   -1.16837889092819    3.30455945485024
C         0.96418683713580   -0.71161260623708    3.27227537608499
C         0.96510549005722    0.72767388543999    3.27901819455811
C        -0.38474420906515    1.18271426387059    3.31471904392821
C         2.33339695371076   -2.59777881704207    0.58175061186074
C         3.38914128533469   -1.51579223793917    0.62909210673732
C         2.93954089149932   -0.69224404530691    1.81840914617802
C         1.94019280526917   -1.39756321501177    2.53489220638773
C         1.56604746895625   -2.56578696575666    1.78199153517527
C         3.18102267958935    1.41614158195800    0.58333458874357
C         2.32705273230962    2.57407294376664    0.58035710628140
C         1.56774689804933    2.57411261448419    1.80514121870922
C         1.93745089391619    1.41500574876374    2.55669994199367
C         2.93248560809466    0.68926600705193    1.80429433663581
C        -0.36756367112270    3.45326290456928    0.58882930679276
C        -1.74095066046737    3.00841203153543    0.59133308935906
C        -1.98615530435684    2.30476209861327    1.81565365746734
C        -0.74673691539600    2.28246189280062    2.56851342046085
C         0.24315107342166    3.00105849961925    1.80628650507996
C        -3.40256692880725    0.72466042252648    0.57578899793473
C        -3.40427317593732   -0.71233304855860    0.57673113298774
C        -2.78122022911103   -1.14247155250141    1.81228051352017
C        -2.43472241760793    0.00658467346819    2.56084242700166
C        -2.78290951743661    1.15978661450722    1.80797713495885
C        -1.74156181515150   -2.99911730571012    0.59085568653845
C        -0.37067949687763   -3.44332210029969    0.58874308712110
C         0.24219856526662   -2.99783332260386    1.80157789207591
C        -0.74635831636075   -2.27679989953009    2.56693673360752
C        -1.97975203801054   -2.28840916308278    1.81895949947896
C        -0.24752898984659   -3.00636243558537   -1.81784072322087
C         0.74742251552501   -2.28666587196987   -2.57691937286969
C         1.97501574480688   -2.29649429394041   -1.83723651891369
C         1.73508222277984   -3.00008445239039   -0.59190802885858
C         0.36293572638991   -3.44105778741208   -0.59389784393493
C         2.77881286884771   -1.15663261420337   -1.81547540239331
C         2.39670208287591    0.00604663766829   -2.58604129710795
C         2.77630741009352    1.16858399585748   -1.83148131056369
C         3.38618896319765    0.70327951424641   -0.60211866439300
C         3.40480579788211   -0.71094974836722   -0.62073504343459
C         1.96418717670544    2.28875945645541   -1.82860539693862
C         0.73864251643034    2.29307040358590   -2.58625400791143
C        -0.24967032399009    3.01228088671046   -1.82283441070228
C         0.36515471911415    3.45355339654965   -0.59412221515024
C         1.73124030148916    3.01197442649297   -0.59740381540376
C        -1.57044221339861    2.58342125856088   -1.82123561877544
C        -1.95157093564748    1.41858602419163   -2.58375546233970
C        -2.94683366399091    0.69920344281535   -1.82876241519349
C        -3.17812114402575    1.41982152440435   -0.60305386255894
C        -2.32896111878201    2.58433521902578   -0.59831955302283
C        -2.94627591872788   -0.68955843923693   -1.82658750528275
C        -1.95232019305018   -1.41286720076270   -2.57872516653051
C        -1.57125902802165   -2.57742179515014   -1.81644587122854
C        -2.32904234999027   -2.57763372191940   -0.59703787922626
C        -3.17862222844172   -1.40657689788621   -0.59861793042807
C        -0.99579556223057   -0.71946748733992   -3.30853202250984
C        -0.99827543890690    0.72397047384302   -3.31292885570189
C         0.37227126808558    1.17079727707824   -3.31765068617758
C         1.21750208182567    0.00429299539523   -3.31595853532671
C         0.37300216107511   -1.16360782883990   -3.31137237971163
Cl       -1.94478208063817   -0.02615733053416    5.25048913932312
Cl        5.04758715429412   -2.22712508769223    0.95336062465241
