180
 energy: -572.601387998728 gnorm: 12.573804193207 xtb: 6.4.1 (a3dbbd7)
C        -1.23626340000000    0.00000000000000    3.32997640000000
C        -0.38202640000000   -1.17575640000000    3.32997640000000
C         1.00015810000000   -0.72665740000000    3.32997640000000
C         1.00015810000000    0.72665740000000    3.32997640000000
C        -0.38202640000000    1.17575640000000    3.32997640000000
C         2.34433560000000   -2.60145750000000    0.59464210000000
C         3.19857260000000   -1.42570110000000    0.59464210000000
C         2.96246730000000   -0.69904370000000    1.83090550000000
C         1.96230920000000   -1.42570110000000    2.59495830000000
C         1.58028280000000   -2.60145750000000    1.83090550000000
C         3.19857260000000    1.42570110000000    0.59464210000000
C         2.34433560000000    2.60145750000000    0.59464210000000
C         1.58028280000000    2.60145750000000    1.83090550000000
C         1.96230920000000    1.42570110000000    2.59495830000000
C         2.96246730000000    0.69904370000000    1.83090550000000
C        -0.36750900000000    3.48258920000000    0.59464210000000
C        -1.74969350000000    3.03349030000000    0.59464210000000
C        -1.98579880000000    2.30683290000000    1.83090550000000
C        -0.74953540000000    2.30683290000000    2.59495830000000
C         0.25062270000000    3.03349030000000    1.83090550000000
C        -3.42570570000000    0.72665740000000    0.59464210000000
C        -3.42570570000000   -0.72665740000000    0.59464210000000
C        -2.80757400000000   -1.17575640000000    1.83090550000000
C        -2.42554760000000    0.00000000000000    2.59495830000000
C        -2.80757400000000    1.17575640000000    1.83090550000000
C        -1.74969350000000   -3.03349030000000    0.59464210000000
C        -0.36750900000000   -3.48258920000000    0.59464210000000
C         0.25062270000000   -3.03349030000000    1.83090550000000
C        -0.74953540000000   -2.30683290000000    2.59495830000000
C        -1.98579880000000   -2.30683290000000    1.83090550000000
C        -0.25062270000000   -3.03349030000000   -1.83090550000000
C         0.74953540000000   -2.30683290000000   -2.59495830000000
C         1.98579880000000   -2.30683290000000   -1.83090550000000
C         1.74969350000000   -3.03349030000000   -0.59464210000000
C         0.36750900000000   -3.48258920000000   -0.59464210000000
C         2.80757400000000   -1.17575640000000   -1.83090550000000
C         2.42554760000000    0.00000000000000   -2.59495830000000
C         2.80757400000000    1.17575640000000   -1.83090550000000
C         3.42570570000000    0.72665740000000   -0.59464210000000
C         3.42570570000000   -0.72665740000000   -0.59464210000000
C         1.98579880000000    2.30683290000000   -1.83090550000000
C         0.74953540000000    2.30683290000000   -2.59495830000000
C        -0.25062270000000    3.03349030000000   -1.83090550000000
C         0.36750900000000    3.48258920000000   -0.59464210000000
C         1.74969350000000    3.03349030000000   -0.59464210000000
C        -1.58028280000000    2.60145750000000   -1.83090550000000
C        -1.96230920000000    1.42570110000000   -2.59495830000000
C        -2.96246730000000    0.69904370000000   -1.83090550000000
C        -3.19857260000000    1.42570110000000   -0.59464210000000
C        -2.34433560000000    2.60145750000000   -0.59464210000000
C        -2.96246730000000   -0.69904370000000   -1.83090550000000
C        -1.96230920000000   -1.42570110000000   -2.59495830000000
C        -1.58028280000000   -2.60145750000000   -1.83090550000000
C        -2.34433560000000   -2.60145750000000   -0.59464210000000
C        -3.19857260000000   -1.42570110000000   -0.59464210000000
C        -1.00015810000000   -0.72665740000000   -3.32997640000000
C        -1.00015810000000    0.72665740000000   -3.32997640000000
C         0.38202640000000    1.17575640000000   -3.32997640000000
C         1.23626340000000    0.00000000000000   -3.32997640000000
C         0.38202640000000   -1.17575640000000   -3.32997640000000
C        -1.76086815247998    0.00000000000000    4.78849957557021
F        -0.76911826531252    0.00000000000000    5.67468926254662
F        -2.50968386795825   -1.06794314680471    5.04863888333743
F        -2.50968386795825    1.06794314680471    5.04863888333743
C        -0.54413818249354   -1.67468516033722    4.78849957845317
F        -0.23767107904745   -0.73147481112462    5.67468925997942
F        -1.79120914301982   -2.05683909935453    5.04863874564184
F         0.24013968171955   -2.71686350152345    5.04863903502921
C         1.42457227037960   -1.03501233722714    4.78849957248258
F         0.62223011468481   -0.45207589682711    5.67468926529602
F         1.40265511061956   -2.33913928186680    5.04863905501621
F         2.65809836182651   -0.61117154425495    5.04863869666890
C         1.42457227037960    1.03501233722714    4.78849957248258
F         0.62223011468481    0.45207589682711    5.67468926529602
F         2.65809836182651    0.61117154425495    5.04863869666891
F         1.40265511061956    2.33913928186680    5.04863905501621
C        -0.54413818249354    1.67468516033722    4.78849957845317
F        -0.23767107904745    0.73147481112462    5.67468925997942
F        -1.79120914301982    2.05683909935453    5.04863874564184
F         0.24013968171955    2.71686350152345    5.04863903502921
C         3.37204091334889   -3.72927672645244    0.86730596148276
F         4.06564647311728   -3.51265957144659    1.98125763710228
F         4.25569947457670   -3.84739838595791   -0.11965645964809
F         2.78580317558591   -4.91533944031226    1.00324916143779
C         4.58877084110522   -2.05459160147071    0.86730597290559
F         4.59709252483521   -2.78118520641283    1.98125951001435
F         4.97417519512416   -2.85850196315549   -0.11965482382298
F         5.53562669678859   -1.13053295630600    1.00324569798425
C         4.25247495652193   -1.01957928511255    2.62817407757680
F         4.45020405360863   -2.32910962270744    2.75037677428969
F         5.33704498641440   -0.51936149478958    2.04303305824604
F         4.21414295278388   -0.51936236815955    3.85992636334025
C         2.28376457660886   -3.72927671755932    2.62817408867206
F         3.59030321655004   -3.51265997057976    2.75037870097715
F         2.14318168460923   -4.91533956626619    2.04303190988612
F         1.79618325340524   -3.84739782561575    3.85992562899767
C         3.37204091334889    3.72927672645244    0.86730596148276
F         4.06564647311728    3.51265957144659    1.98125763710228
F         4.25569947457670    3.84739838595791   -0.11965645964809
F         2.78580317558591    4.91533944031226    1.00324916143779
C         2.28376457660886    3.72927671755932    2.62817408867206
F         3.59030321655004    3.51265997057976    2.75037870097715
F         2.14318168460923    4.91533956626619    2.04303190988612
F         1.79618325340524    3.84739782561575    3.85992562899767
C        -0.53602450593361    4.99908416128281    0.86730591619822
F        -1.22448605650957    5.23152837615597    1.98125850960180
F        -1.18149064144157    5.61404773804446   -0.11965571789346
F         0.63540201352706    5.61404743764837    1.00324736766175
C        -1.08016271022039    3.32439912180418    3.71645041587937
F        -1.46215754230407    4.50005299330749    3.22571838851551
F        -2.06425285383526    2.89718320022386    4.50255037491024
F        -0.03290491502764    3.55721032900471    4.50254840735999
C         0.34440953624153    4.35941144868709    2.62817404748705
F        -0.83992598883967    4.95213069234126    2.75037577510431
F         1.15529636597892    5.23632261667420    2.04303359185445
F         0.80829780400759    4.16837989546168    3.85992670963205
C        -4.92005227074660    1.03501232949151    0.86730592957069
F        -5.35386609588658    0.45207588830481    1.98125865327758
F        -5.70437742108406    0.61117153086585   -0.11965558739362
F        -5.14292645153878    2.33913927311179    1.00324714649869
C        -4.03961820246674   -1.67468514775899    2.62817407948106
F        -4.96930660042402   -0.73147479244129    2.75037763231441
F        -4.62303373288711   -2.71686348978894    2.04303253910982
F        -3.71458666614022   -2.05683907990832    3.85992603200073
C        -4.03961820246674    1.67468514775899    2.62817407948106
F        -4.96930660042401    0.73147479244129    2.75037763231445
F        -4.62303373288714    2.71686348978891    2.04303253910981
F        -3.71458666614023    2.05683907990836    3.85992603200072
C        -2.50473491433418   -4.35941144902977    0.86730593917895
F        -2.08438487052912   -4.95213043104453    1.98125838386969
F        -2.34400857369757   -5.23632280881804   -0.11965581818547
F        -3.81390519137296   -4.16837996597314    1.00324768478856
C         0.34440953624153   -4.35941144868709    2.62817404748705
F        -0.83992598883967   -4.95213069234126    2.75037577510431
F         1.15529636597892   -5.23632261667420    2.04303359185445
F         0.80829780400759   -4.16837989546168    3.85992670963205
C         4.03961820246674   -1.67468514775899   -2.62817407948106
F         4.96930660042401   -0.73147479244129   -2.75037763231445
F         3.71458666614023   -2.05683907990836   -3.85992603200072
F         4.62303373288714   -2.71686348978891   -2.04303253910981
C         4.03961820246674    1.67468514775899   -2.62817407948106
F         4.96930660042402    0.73147479244129   -2.75037763231441
F         3.71458666614022    2.05683907990832   -3.85992603200073
F         4.62303373288711    2.71686348978894   -2.04303253910982
C         4.92005227074660    1.03501232949151   -0.86730592957069
F         5.35386609588658    0.45207588830481   -1.98125865327758
F         5.14292645153878    2.33913927311179   -1.00324714649869
F         5.70437742108406    0.61117153086585    0.11965558739362
C         1.08016271022039    3.32439912180418   -3.71645041587937
F         1.46215754230407    4.50005299330749   -3.22571838851551
F         2.06425285383526    2.89718320022386   -4.50255037491024
F         0.03290491502764    3.55721032900471   -4.50254840735999
C        -2.28376457660886    3.72927671755932   -2.62817408867206
F        -3.59030321655004    3.51265997057978   -2.75037870097715
F        -1.79618325340527    3.84739782561575   -3.85992562899768
F        -2.14318168460923    4.91533956626621   -2.04303190988614
C        -3.37204091334889    3.72927672645244   -0.86730596148276
F        -4.06564647311728    3.51265957144659   -1.98125763710228
F        -2.78580317558591    4.91533944031226   -1.00324916143779
F        -4.25569947457670    3.84739838595791    0.11965645964809
C        -4.25247495652193   -1.01957928511255   -2.62817407757680
F        -4.45020405360857   -2.32910962270745   -2.75037677428973
F        -4.21414295278389   -0.51936236815949   -3.85992636334022
F        -5.33704498641440   -0.51936149478962   -2.04303305824599
C        -4.58877084110522   -2.05459160147071   -0.86730597290559
F        -4.59709252483521   -2.78118520641283   -1.98125951001435
F        -5.53562669678859   -1.13053295630600   -1.00324569798425
F        -4.97417519512416   -2.85850196315549    0.11965482382298
C        -1.42457227037960    1.03501233722714   -4.78849957248258
F        -0.62223011468481    0.45207589682711   -5.67468926529602
F        -2.65809836182651    0.61117154425495   -5.04863869666891
F        -1.40265511061956    2.33913928186680   -5.04863905501621
C         0.54413818249354    1.67468516033722   -4.78849957845317
F         0.23767107904745    0.73147481112462   -5.67468925997942
F        -0.24013968171955    2.71686350152345   -5.04863903502921
F         1.79120914301982    2.05683909935453   -5.04863874564184
C         0.54413818249354   -1.67468516033722   -4.78849957845317
F         0.23767107904745   -0.73147481112462   -5.67468925997942
F        -0.24013968171955   -2.71686350152345   -5.04863903502921
F         1.79120914301982   -2.05683909935453   -5.04863874564184
180
 energy: -582.251456539882 gnorm: 9.887651287148 xtb: 6.4.1 (a3dbbd7)
C        -1.23510538953375    0.00010403855363    3.32196737139055
C        -0.38187344624408   -1.17603899964914    3.32317758262195
C         0.99916320396217   -0.72614652314551    3.32310864419961
C         0.99880206595243    0.72556940922069    3.32108474463553
C        -0.37929726878571    1.16779836423523    3.31667908224352
C         2.33895087476950   -2.59909040094460    0.59039949058024
C         3.19587477423587   -1.42270336696763    0.59135389699715
C         2.95875457173806   -0.69570838184159    1.82966742680169
C         1.96381379770054   -1.42715647991585    2.59401646053226
C         1.57811304783874   -2.59454753625038    1.82647901707335
C         3.19906933268187    1.42645164100338    0.59572371928489
C         2.34272632408506    2.59833436639490    0.59172915928942
C         1.57764562490100    2.59350363825292    1.82732135960613
C         1.96387451962389    1.42672330869723    2.59424405595208
C         2.96320385346974    0.69995215099221    1.83104084118513
C        -0.36745559755247    3.47686759288723    0.59124424477822
C        -1.74990648685032    3.03565897056629    0.59501460925971
C        -1.98666037137905    2.30792774205456    1.83193580719413
C        -0.74898355332187    2.30100560832046    2.58588651272940
C         0.24927896625233    3.02136771200156    1.82236965531756
C        -3.42376717100743    0.72513586675465    0.59318029816174
C        -3.42606715429165   -0.72591109513702    0.59513405508295
C        -2.80810116724286   -1.17575696716551    1.83071893439650
C        -2.42672222110530    0.00058906214380    2.59401075128986
C        -2.80438632964313    1.17464531864325    1.83076946613315
C        -1.75010879823622   -3.03512428974909    0.59540280413985
C        -0.36633286349468   -3.48203614614266    0.59444120444265
C         0.24624865016953   -3.02953219001877    1.82753942722205
C        -0.75023242664638   -2.30796101828531    2.59342074945023
C        -1.98486235729343   -2.30747082690426    1.83170298838054
C        -0.24923672457122   -3.03343009060691   -1.83054907629860
C         0.75031969030113   -2.30893345170464   -2.59128172084616
C         1.98206846026938   -2.30877424053129   -1.83143071189255
C         1.74703362558174   -3.03346315894020   -0.59732408926535
C         0.36800916727365   -3.48243607074122   -0.59595533199009
C         2.80847896023514   -1.17579704225140   -1.83099656750172
C         2.42706688436426    0.00050610913834   -2.59509557541876
C         2.80430009761656    1.17446027934966   -1.83078313663143
C         3.42427238348294    0.72547404929582   -0.59326124160648
C         3.42518782577995   -0.72554514016169   -0.59542540398018
C         1.98519596238242    2.30825427602878   -1.83115038941884
C         0.74974364416377    2.30655837992096   -2.58888278978990
C        -0.24962042711052    3.03464505030844   -1.83096809335477
C         0.36909744955602    3.48272739031428   -0.59599251138400
C         1.74841471032089    3.03444322395711   -0.59582515996017
C        -1.57831039673060    2.59870111650959   -1.83066523034691
C        -1.96385397413580    1.42658008319016   -2.59453831897302
C        -2.96328146526316    0.69995557136097   -1.83158476265319
C        -3.19917631460683    1.42651864736075   -0.59537142518455
C        -2.34335506259169    2.59849315853671   -0.59314692898076
C        -2.95966878947490   -0.69784007418257   -1.83115889650239
C        -1.96168265413042   -1.42779443822544   -2.59440166606347
C        -1.58054628305629   -2.60114040208327   -1.83061792908451
C        -2.34414565288427   -2.60039283608398   -0.59803157061976
C        -3.19673011382405   -1.42623594985395   -0.59346436660407
C        -1.00088650005221   -0.72679947940914   -3.33112532553317
C        -1.00137484723836    0.72456542382267   -3.32653568850162
C         0.38258841457017    1.17117356000883   -3.32564520356814
C         1.23538517297117    0.00118434435039   -3.33158808798270
C         0.38199848375165   -1.17596401210024   -3.33058821252806
C        -1.77000502276264   -0.00266562673886    4.76814987227141
F        -0.84755370123010   -0.00510326070263    5.69933484132060
F        -2.54980864356632   -1.02383810786372    5.05403187280185
F        -2.55889485392044    1.02462173822465    5.05440796624356
C        -0.55053297565792   -1.68922048781791    4.76700074990739
F        -0.26340915264606   -0.80385345443739    5.69996459740384
F        -1.76200502664148   -2.10948631806911    5.05173974142415
F         0.18389067325410   -2.74338498943398    5.05352756639403
C         1.43642197500354   -1.04045922396908    4.76474738863241
F         0.68491868752136   -0.49778462357017    5.70002956287364
F         1.46418540535876   -2.32892040497159    5.05424339081181
F         2.66619870018712   -0.67172380401667    5.05383085588870
C         1.42882948100918    1.03668267611134    4.76732037359066
F         0.68811828810762    0.49459699144771    5.69964046762053
F         2.67032146112647    0.67117187435481    5.05371449921841
F         1.47002981079504    2.33604608744480    5.05615070136978
C        -0.54199425202807    1.66725914293266    4.75419038293223
F        -0.26291981389277    0.80847513088430    5.69927627974551
F        -1.77658843714855    2.08882953432729    5.08232456683166
F         0.21024072747809    2.72608020356829    5.08742059224812
C         3.35438901967993   -3.72610506976165    0.84323590197010
F         4.07891760622302   -3.56152725476628    1.96696151557159
F         4.22417682150109   -3.89879298795335   -0.12413956241310
F         2.81727589855219   -4.92483842824675    0.94740894404639
C         4.58241459055849   -2.03722299650538    0.84317501977744
F         4.64817285068715   -2.77676194925224    1.96845276047923
F         5.01347866592147   -2.81324647853913   -0.12115274583867
F         5.55067469438500   -1.16013080050713    0.95232443282915
C         4.24708398635365   -0.99271045627900    2.62012608348872
F         4.45995465080857   -2.31837643279275    2.80149205719231
F         5.33150583295500   -0.48548364299081    2.09505900929789
F         4.21710866145147   -0.51976219957237    3.86313035637015
C         2.24833295679374   -3.72463673105865    2.60489216964873
F         3.59428658558508   -3.52356202333423    2.80707701391972
F         2.13987566905669   -4.92374915137393    2.09006432014900
F         1.82144103096382   -3.84035751859474    3.88584451538903
C         3.36310678807856    3.72853110216893    0.85886809395275
F         4.10150229814298    3.51054709303538    1.95238784147840
F         4.25769166202198    3.85011709504163   -0.11969455017783
F         2.81805300071311    4.92370739516615    0.94515247462282
C         2.26118269970899    3.72276151104149    2.60774545842866
F         3.59338304428967    3.50972914405560    2.79958872801900
F         2.14543385782192    4.92073386566599    2.09045761112992
F         1.84215226204738    3.83331964129871    3.88403841072409
C        -0.52249967143824    4.98899147177495    0.85240677494882
F        -1.25961987135707    5.25944729931636    1.95271438861971
F        -1.18250306860417    5.61857775579337   -0.12000350024578
F         0.61660769260471    5.64055607859321    0.94483738052140
C        -1.06424601396210    3.29622102833875    3.70584143754658
F        -1.51389413305571    4.50356179211481    3.25011386835445
F        -2.09065836381814    2.92584621409426    4.49400827071751
F        -0.07409854737382    3.56976135622191    4.53085856181360
C         0.35351015508455    4.33447616511059    2.60512088110172
F        -0.82043945305316    4.98277797890916    2.77126607963811
F         1.16127978211743    5.24527066558223    2.08875957536131
F         0.81801481800629    4.21812250389513    3.86242760087901
C        -4.91666088746343    1.03805130922843    0.85889860056879
F        -5.38107939779734    0.44624321049088    1.94474899883158
F        -5.70668152449565    0.61261894358134   -0.11979527445347
F        -5.17299661060042    2.32084666846686    0.95123689788843
C        -4.03688388686705   -1.67799451261974    2.62730944554195
F        -4.96904216237124   -0.75552826237442    2.76075825681010
F        -4.62474494296439   -2.71590121088203    2.04671179462509
F        -3.71663748591492   -2.05874428975895    3.86033825586294
C        -4.03304509770982    1.68015848981360    2.62600588448756
F        -4.95922446232335    0.75310066807264    2.78813480426016
F        -4.59819234828319    2.73905261795095    2.09679627487429
F        -3.71826442063884    2.05827913059809    3.86173579440103
C        -2.50508341686502   -4.35840253763686    0.86644967073988
F        -2.10397603927932   -4.95422484658541    1.97108410470399
F        -2.34426395103434   -5.23797889632287   -0.12066153240317
F        -3.81346315289306   -4.17226741974768    1.00292634435408
C         0.33570640259073   -4.34992835003449    2.61972722069948
F        -0.82140181841516   -4.95402797405396    2.76368909841317
F         1.13305855969588   -5.26082570023933    2.03423558464252
F         0.78299599543227   -4.17835414734502    3.87920520534662
C         4.03638503274407   -1.67737825111354   -2.62832823053142
F         4.96885973044981   -0.75585020416223   -2.76047419741031
F         3.71544717685326   -2.05736859782159   -3.86108086342471
F         4.62410799405252   -2.71813278996854   -2.04544780937311
C         4.03314388484047    1.68045089107364   -2.62646885620056
F         4.95917213754676    0.75326442561920   -2.78831288895953
F         3.71661578942131    2.05661640324214   -3.86292698417822
F         4.59854558398590    2.73899557217416   -2.09657827758197
C         4.91654735376138    1.03863618071104   -0.85943284585956
F         5.38087248334450    0.44632177519307   -1.94455789799712
F         5.17264293318092    2.32036255403679   -0.95116772575946
F         5.70704456447553    0.61247053855749    0.12003311777784
C         1.08173950266549    3.32093047388858   -3.70227849798358
F         1.46276497212732    4.50278849166763   -3.22649099393047
F         2.08302830327660    2.92201790719960   -4.49412320939091
F         0.02991051284367    3.58956470600194   -4.49661268442805
C        -2.27436486644390    3.72975762412779   -2.62556903314237
F        -3.57630078395040    3.51166326298358   -2.79358692129388
F        -1.79851881300787    3.85038817755983   -3.86158847988720
F        -2.11057583598831    4.91882296489847   -2.09650761169309
C        -3.36655713690051    3.72948362198229   -0.85939056846958
F        -4.09784972432890    3.51165394282064   -1.94920933683306
F        -2.82090813136753    4.91825189524194   -0.95135164725404
F        -4.25710833390514    3.85011417929182    0.12005481794959
C        -4.25030457208289   -1.01026528648668   -2.62716984088437
F        -4.44486767210078   -2.31555669732291   -2.79341809127250
F        -4.21496584480926   -0.51922226343809   -3.86258216857197
F        -5.32972994918252   -0.48719204637705   -2.09702695326351
C        -4.58743961879757   -2.05046667079603   -0.85889275330378
F        -4.60589215172498   -2.81125690417624   -1.94839154776115
F        -5.54880042573341   -1.16346285846903   -0.95112577258861
F        -4.97726613347384   -2.85881119817949    0.11742317862112
C        -1.42758679564050    1.03865473400706   -4.77890302640354
F        -0.66515953387092    0.44361472637140   -5.68830581655355
F        -2.66095755164507    0.60996944042010   -5.05119749279704
F        -1.46788376537032    2.32440033426226   -5.05385209256722
C         0.53193942603511    1.68385703172168   -4.75709964768033
F         0.27651966530065    0.74280463988043   -5.69388080078753
F        -0.19827923657555    2.72149161755042   -5.07025848917135
F         1.81067281707117    2.03120364183104   -5.07646077693798
C         0.54509283670540   -1.67754958014310   -4.78553425182465
F         0.24689988742168   -0.75668030906212   -5.67910072286525
F        -0.24084750197920   -2.71811223702701   -5.04966294074648
F         1.79199908356099   -2.05742905031902   -5.05003785719065
180
 energy: -590.596584801775 gnorm: 8.361661747063 xtb: 6.4.1 (a3dbbd7)
C        -1.23391895931380   -0.00022733691117    3.31428560319565
C        -0.38144317197367   -1.17584465458088    3.31538779182386
C         0.99859175427839   -0.72601626953252    3.31823732311711
C         0.99854863670380    0.72396129392655    3.31404515762850
C        -0.37731206119907    1.15878421902605    3.30472857959947
C         2.33555562251592   -2.59762723677559    0.58623824519637
C         3.19452718772018   -1.42043322447638    0.58855445042464
C         2.95684856624806   -0.69378458256728    1.82987793744216
C         1.96514655940282   -1.42908790212694    2.59347998541764
C         1.57863637696771   -2.59215696789496    1.82580463695913
C         3.19935303995311    1.42746846678797    0.59694844212816
C         2.34259833961019    2.59488826524087    0.58824623191442
C         1.57846476651262    2.58852625404368    1.82656840776849
C         1.96551620836902    1.42795730746506    2.59359311466739
C         2.96432490298769    0.70136250206183    1.83133691694832
C        -0.36856329480812    3.47385621042219    0.58685606458313
C        -1.75008522189280    3.03776217516512    0.59541281263818
C        -1.98720819005370    2.30954202999155    1.83331203093050
C        -0.74897261123285    2.29423590719224    2.57718528789893
C         0.24729954443531    3.01675050778697    1.81573775934277
C        -3.42203129697269    0.72319043157657    0.59124701070465
C        -3.42655120780977   -0.72511962532130    0.59585495524281
C        -2.80961810490644   -1.17617213707304    1.83166137286503
C        -2.42772914890475    0.00091122649281    2.59367809468743
C        -2.80108479780616    1.17357929116008    1.83112108322795
C        -1.75095065032080   -3.03806843983387    0.59692920648009
C        -0.36482193441017   -3.48274136783436    0.59302200366388
C         0.24069362267080   -3.02783007783795    1.82429055557476
C        -0.75181189411575   -2.30800158398379    2.59143925618568
C        -1.98276776311162   -2.30851769515684    1.83221993270607
C        -0.24771759003162   -3.03345475603820   -1.83050242952847
C         0.75153238511944   -2.31162057111325   -2.58653340574306
C         1.97715681128591   -2.31077841753953   -1.83077438598052
C         1.74430970400900   -3.03351660437852   -0.60056006010478
C         0.36822952746921   -3.48035971926320   -0.59687887174503
C         2.81027811489161   -1.17614301699039   -1.83292659017619
C         2.42801171591262    0.00122220355228   -2.59512529621386
C         2.80117801751015    1.17321549030479   -1.83184879607149
C         3.42298087999964    0.72403706445104   -0.59141103555844
C         3.42516572545939   -0.72449150393863   -0.59650716640042
C         1.98452917064265    2.30995887863546   -1.83024871425829
C         0.75065576947444    2.30798819162855   -2.58379539026688
C        -0.24838856515880    3.03585373520157   -1.82982759550710
C         0.37119122317599    3.48119593985396   -0.59759342240104
C         1.74654883599106    3.03573945466687   -0.59762004423699
C        -1.57645000148083    2.59608925539404   -1.83154056481663
C        -1.96569317030060    1.42719529790181   -2.59418681256315
C        -2.96358999540578    0.70138113060034   -1.83195391524265
C        -3.19977346286980    1.42735984906055   -0.59699516602801
C        -2.34281496045250    2.59538597232385   -0.59105215280420
C        -2.95702283312195   -0.69680574557322   -1.83220669841690
C        -1.96066688025987   -1.42976615903325   -2.59386708785244
C        -1.58062418795629   -2.59913810525315   -1.82942089953556
C        -2.34348557751767   -2.60067009150319   -0.60213584406549
C        -3.19500060371082   -1.42735618582337   -0.59236920735393
C        -1.00183347949734   -0.72705192591207   -3.33036256408762
C        -1.00302735982915    0.72168230280412   -3.32335622642437
C         0.38316777783052    1.16665978575797   -3.32412131381524
C         1.23454750909410    0.00200785351938   -3.33179934914926
C         0.38216008706153   -1.17654008323691   -3.33419478995198
C        -1.77630394474116   -0.00202764611741    4.75655244685821
F        -0.96220967937151   -0.01499647077232    5.71543714719040
F        -2.57667723036314   -0.99289970952427    5.05881716032546
F        -2.59102860924410    0.98834293522185    5.05586270410964
C        -0.55551447932929   -1.70119862314815    4.75613399029583
F        -0.30653921990623   -0.90958177381899    5.71901977535619
F        -1.74023970134777   -2.14356571886785    5.05276546150003
F         0.14702087755532   -2.75526519314158    5.05683249826717
C         1.44318846511582   -1.04555352352358    4.75418534191686
F         0.78355494971881   -0.56769431726483    5.71737897671039
F         1.50226709877641   -2.31924065714468    5.05816081922149
F         2.66733699355808   -0.71207411311197    5.05732938137416
C         1.42484101420738    1.03785721280151    4.75362652685124
F         0.78812175684512    0.56069250792529    5.71489219563871
F         2.67716152124194    0.71151995066669    5.05669229489934
F         1.52179088239509    2.33328379322433    5.05928789527411
C        -0.53478587039287    1.64927001988137    4.71688347052266
F        -0.30179067006696    0.92507982494184    5.71721140139798
F        -1.76701338277327    2.10196146322284    5.13066134464277
F         0.19852856565760    2.73294300741436    5.13564856071887
C         3.33819380911360   -3.72154122710164    0.82019538214219
F         4.06239399926429   -3.65437208236151    1.93934340722909
F         4.20353281921784   -3.93371408407071   -0.12807392008846
F         2.83796507103250   -4.93032191303688    0.91063214254537