62
 energy: -137.506733919996 gnorm: 0.124249317179 xtb: 6.4.1 (a3dbbd7)
C        -1.29770965891222    0.00000000000000    3.53163224767276
C        -0.37107604425475   -1.17478800586359    3.31058196643012
C         0.97979757550459   -0.72157705231961    3.28110534952822
C         0.97979757550459    0.72157705231961    3.28110534952822
C        -0.37107604425475    1.17478800586360    3.31058196643013
C         2.33544184946295   -2.58264348698296    0.58346340581249
C         3.18207169571150   -1.41543014636129    0.58234433372313
C         2.94373959867916   -0.69404060100004    1.80708186552027
C         1.95046398470883   -1.41556779135961    2.56176558167067
C         1.57767488865866   -2.57871801508103    1.80912454278211
C         3.18207169571150    1.41543014636129    0.58234433372313
C         2.33544184946295    2.58264348698296    0.58346340581249
C         1.57767488865866    2.57871801508103    1.80912454278211
C         1.95046398470883    1.41556779135961    2.56176558167066
C         2.94373959867916    0.69404060100004    1.80708186552027
C        -0.36119281684147    3.44519252612879    0.58582996047390
C        -1.73469290191499    3.00153459982720    0.58916793337350
C        -1.97220713510261    2.29308475607878    1.81059639720294
C        -0.73400332666893    2.27691900303500    2.56853480078419
C         0.25309257506893    2.99789064535074    1.80898867763471
C        -3.39649784746455    0.71758744312072    0.57410478167568
C        -3.39649784746455   -0.71758744312072    0.57410478167568
C        -2.77168037603652   -1.14964415915414    1.80664876434809
C        -2.42168465399864    0.00000000000000    2.56054627302143
C        -2.77168037603652    1.14964415915414    1.80664876434809
C        -1.73469290191499   -3.00153459982719    0.58916793337351
C        -0.36119281684148   -3.44519252612879    0.58582996047390
C         0.25309257506893   -2.99789064535073    1.80898867763471
C        -0.73400332666892   -2.27691900303499    2.56853480078419
C        -1.97220713510261   -2.29308475607878    1.81059639720295
C        -0.24585893810850   -3.00970705822685   -1.82232538763502
C         0.74439012833927   -2.28841876480361   -2.57822875384061
C         1.97268106729833   -2.28861170675520   -1.82114897801170
C         1.74031203428013   -3.00832022201671   -0.59623578829480
C         0.36724813466371   -3.45114129717027   -0.59443426078026
C         2.79027372790168   -1.16551010025889   -1.82330670861298
C         2.41077011246349    0.00000000000000   -2.58030971859023
C         2.79027372790168    1.16551010025889   -1.82330670861298
C         3.40598095600767    0.72109250237888   -0.59875668403540
C         3.40598095600767   -0.72109250237888   -0.59875668403540
C         1.97268106729833    2.28861170675520   -1.82114897801170
C         0.74439012833927    2.28841876480360   -2.57822875384062
C        -0.24585893810850    3.00970705822685   -1.82232538763502
C         0.36724813466371    3.45114129717027   -0.59443426078026
C         1.74031203428013    3.00832022201671   -0.59623578829480
C        -1.56847069976934    2.58049680433801   -1.82122736601016
C        -1.94730857051169    1.41533687195356   -2.58360676406823
C        -2.94243160962768    0.69434475341889   -1.82977489504240
C        -3.17479380115303    1.41444285760430   -0.60326970185865
C        -2.32688654321742    2.58113588269429   -0.60086409487791
C        -2.94243160962768   -0.69434475341889   -1.82977489504240
C        -1.94730857051169   -1.41533687195356   -2.58360676406823
C        -1.56847069976934   -2.58049680433801   -1.82122736601016
C        -2.32688654321742   -2.58113588269429   -0.60086409487790
C        -3.17479380115303   -1.41444285760429   -0.60326970185865
C        -0.99138524268633   -0.72097607833148   -3.31029871234527
C        -0.99138524268633    0.72097607833148   -3.31029871234528
C         0.38054100031802    1.16548515734434   -3.30884687187952
C         1.22668597234242    0.00000000000000   -3.30783368151334
C         0.38054100031802   -1.16548515734434   -3.30884687187952
Cl       -1.93737486741132   -0.00000000000005    5.25509316806359
Cl       -1.48377051199548   -1.08037417682673   -5.01455507609028
62
 energy: -137.527040597662 gnorm: 0.067171219894 xtb: 6.4.1 (a3dbbd7)
C        -1.29824579484094   -0.00213236774617    3.53476664226180
C        -0.37193601406354   -1.17681587279152    3.31181968235997
C         0.97938157387721   -0.72380338760487    3.28076809558775
C         0.97962808113515    0.71862804559638    3.28163224105613
C        -0.37142707413165    1.17194918446392    3.31120219270889
C         2.33647186840514   -2.58229861681110    0.58399727849977
C         3.18397017596917   -1.41505232680087    0.58297880509583
C         2.94493721967170   -0.69542074340312    1.80762645814970
C         1.95018041782116   -1.41776281471323    2.56119974175689
C         1.57759343054747   -2.57992107839908    1.80900693902752
C         3.18381329356147    1.41551201676447    0.58530709475789
C         2.33646484349239    2.58245245922221    0.58629852750879
C         1.57883233378143    2.57696266182994    1.81152499602929
C         1.95107051734816    1.41336685703218    2.56320113587735
C         2.94495973605825    0.69265496699388    1.80876533281613
C        -0.35911652834468    3.44401924107691    0.58787277837038
C        -1.73253898824064    2.99956355635004    0.58958894485556
C        -1.97186955161401    2.29276331220863    1.81177187662454
C        -0.73418249805106    2.27422696288727    2.56909002616984
C         0.25381571187587    2.99624587496419    1.81048044213045
C        -3.39464372079642    0.71750693991951    0.57695431974320
C        -3.40124983435978   -0.71846401151834    0.58271275508829
C        -2.77311923244781   -1.15099408092550    1.81317712167738
C        -2.42238918088794   -0.00087477167360    2.56483252042169
C        -2.77075262077353    1.14867305263352    1.80825291142835
C        -1.73946906678657   -3.00603996657245    0.59843710182081
C        -0.36353722134529   -3.44670289670915    0.58990795775494
C         0.25148240042398   -2.99972469998945    1.80977655207044
C        -0.73525329403882   -2.27894490682708    2.57104801735159
C        -1.97574822205299   -2.29621117353674    1.81788373827575
C        -0.24526275310900   -3.00623806438304   -1.81335805850748
C         0.75117407768031   -2.27712919131017   -2.56254659512289
C         1.98209875758631   -2.28776980384227   -1.81811439419724
C         1.74208864500255   -3.00682885212768   -0.59518778397244
C         0.36697007431081   -3.44959333510540   -0.59267260691269
C         2.79848792438479   -1.16213359364453   -1.82221964723226
C         2.41826505693790    0.00411494739304   -2.57598227939097
C         2.79401253681841    1.16962455593105   -1.82007226568254
C         3.40966663223233    0.72341132700686   -0.59616338876722
C         3.41070670442049   -0.71889794462733   -0.59690053319468
C         1.97363579574634    2.29163299759768   -1.81903394091994
C         0.74528240609821    2.29675353054632   -2.57788420524155
C        -0.24245528711476    3.01755099421170   -1.82308714931661
C         0.36939889836915    3.45282479207634   -0.59262355818767
C         1.74216307546172    3.00993673576497   -0.59348299275789
C        -1.56575059787835    2.58636898871629   -1.82420610792582
C        -1.94216322100885    1.42295391736940   -2.59058695152641
C        -2.93716218441263    0.69649473980458   -1.82672931160061
C        -3.16973359555800    1.41448176103693   -0.60417610844731
C        -2.32268142961056    2.58130511955585   -0.60238849147669
C        -2.93945128543360   -0.69649860504068   -1.81539310652120
C        -1.96233011056394   -1.42399188696959   -2.56218666294893
C        -1.57101582900764   -2.57325127756033   -1.80279106606695
C        -2.33685473795354   -2.58581210543811   -0.58686800904618
C        -3.18263813506848   -1.41904828499135   -0.59031808845616
C        -1.01049134658599   -0.73217422739866   -3.38632194017052
C        -0.99786259506937    0.74394581853694   -3.34580310010521
C         0.37665578924687    1.17200178055906   -3.31033155531733
C         1.22843834880968    0.00574398038994   -3.29701843189107
C         0.39715105204098   -1.15745487913998   -3.28798744021433
Cl       -1.93550166720747   -0.00316849940906    5.25964541351625
Cl       -1.51460064177803   -1.12289102825630   -5.13049186977620
62
 energy: -137.534922102415 gnorm: 0.031898438904 xtb: 6.4.1 (a3dbbd7)
C        -1.29756849769522    0.00036526081006    3.53804955889373
C        -0.37165078438476   -1.17446049780063    3.31512466724611
C         0.97964598536983   -0.72043680726594    3.28287339444676
C         0.97991927773304    0.72107764136416    3.28323952273219
C        -0.37118713503837    1.17443287662989    3.31365740833651
C         2.33593553131390   -2.57978019487908    0.58594300416759
C         3.18522858645939   -1.41305473496920    0.58559805989145
C         2.94503755313348   -0.69302473351311    1.80899040862581
C         1.94967234659954   -1.41526888504065    2.56275886561855
C         1.57801048430934   -2.57726050509089    1.81176236659202
C         3.18675841400982    1.41784677711609    0.58881814454736
C         2.33924127226643    2.58509980426536    0.58989019635079
C         1.58013750772966    2.57905787296758    1.81361579424788
C         1.95215516252883    1.41600842172251    2.56513810530742
C         2.94635849950400    0.69542672977271    1.81137980999615
C        -0.35770201450574    3.44591644543056    0.59083106976986
C        -1.73217245975167    3.00045737549928    0.59292916098626
C        -1.97199420295611    2.29340218680107    1.81447216791192
C        -0.73466143688189    2.27540535200942    2.57067420421267
C         0.25432994710529    2.99783683140103    1.81188015705512
C        -3.39745217697622    0.71636352163599    0.58340262276043
C        -3.40042516810845   -0.71987657260096    0.58953435687758
C        -2.77365495088242   -1.15204443126106    1.82092555659945
C        -2.42238591426481   -0.00089139506404    2.56987779555963
C        -2.77083359731229    1.14809829987481    1.81007509061490
C        -1.74020865065271   -3.00726855687180    0.60538165834555
C        -0.36431583800088   -3.44663669469262    0.59540873330716
C         0.25089021174255   -2.99792279358541    1.81205046901258
C        -0.73479892929745   -2.27735706902204    2.57606878948350
C        -1.97664314152158   -2.29794495198720    1.82547367699687
C        -0.24629057869631   -3.00795029831460   -1.81128034501292
C         0.75125157130436   -2.26988442853506   -2.56067680433717
C         1.98057261638618   -2.28380348676444   -1.81496002984910
C         1.74093149153523   -3.00345232909099   -0.59307455907490
C         0.36410972473546   -3.44547940539243   -0.59302658465154
C         2.80187611541361   -1.15995222228750   -1.81880683202368
C         2.42333573209407    0.00311102753158   -2.56958360299031
C         2.79861633566382    1.17063272446151   -1.81571478176463
C         3.41473121493333    0.72543310785788   -0.59233290636222
C         3.41495471558106   -0.71739580956044   -0.59393866710308
C         1.97854633452039    2.29374109205135   -1.81420101933540
C         0.74984296025281    2.30166926696806   -2.56911614385185
C        -0.23712628324800    3.02176035745474   -1.81724071090159
C         0.37327920820787    3.45781161118416   -0.58839979424590
C         1.74595282529039    3.01311418101042   -0.58956402183665
C        -1.56150838040512    2.58835305434692   -1.81548373488813
C        -1.92539746408087    1.41754277724465   -2.56646224113626
C        -2.93912936274522    0.69614927281297   -1.81981947534676
C        -3.16848421658190    1.41195183405295   -0.60187969807798
C        -2.32182548233355    2.58109325544703   -0.59722149173670
C        -2.92648534752097   -0.70126028193277   -1.80760750350854
C        -1.97602543669132   -1.43485185153665   -2.55839998595901
C        -1.57161694920875   -2.56310822023206   -1.79834379051337
C        -2.33906119603733   -2.58737128578810   -0.57904618276881
C        -3.18206385809674   -1.42309495984813   -0.58113724702909
C        -1.04679571657766   -0.76253326141674   -3.52625238269809
C        -0.98431344376670    0.74792640689417   -3.31318908837997
C         0.37652776704286    1.16936758860085   -3.28933868905004
C         1.22475940903141    0.00168464205839   -3.28104368664865
C         0.40499315281385   -1.15758445257766   -3.28638342525082
Cl       -1.93410116806729    0.00080451585809    5.26323432395272
Cl       -1.56235905334402   -1.15836517304074   -5.30693371421520
62
 energy: -137.536296966319 gnorm: 0.015571489568 xtb: 6.4.1 (a3dbbd7)
C        -1.29665617980863    0.00029649278961    3.54051185354838
C        -0.37069223296908   -1.17481606922243    3.31825066265597
C         0.98062221427738   -0.72050976890587    3.28631810672769
C         0.98099960044176    0.72120176303218    3.28672376053596
C        -0.36997942614036    1.17446878960835    3.31686516626815
C         2.33481394747175   -2.57820175697548    0.58718741713429
C         3.18473326330368   -1.41218229919856    0.58739587010207
C         2.94526524611482   -0.69257381991009    1.81144756149101
C         1.95037374785973   -1.41481423900862    2.56543314979866
C         1.57815612087031   -2.57669274599397    1.81382616512819
C         3.18707822055944    1.41850192051721    0.59092148623483
C         2.33975861913983    2.58569322562385    0.59189462086599
C         1.58085472200264    2.57942832116221    1.81614470225903
C         1.95291259242666    1.41631808030484    2.56820378688142
C         2.94678973623986    0.69606994801544    1.81392028451738
C        -0.35694914403605    3.44538462264211    0.59202801126691
C        -1.73057863491340    2.99867708760447    0.59326142138044
C        -1.97011647521593    2.29233937221850    1.81583106259226
C        -0.73334744895505    2.27521292514214    2.57323461825002
C         0.25517225167640    2.99751884888552    1.81391034866019
C        -3.39607231564141    0.71653516072902    0.58362073559547
C        -3.39740512265473   -0.71859289157797    0.58814983253246
C        -2.77325350923611   -1.15128002583498    1.82136216365401
C        -2.42162117780328   -0.00069269431445    2.57156626738381
C        -2.77001089257495    1.14812956270844    1.81134169101315
C        -1.73826951705560   -3.00417648073555    0.60401727829834
C        -0.36381600277026   -3.44495848080016    0.59595059708001
C         0.25159124470037   -2.99708276210383    1.81384776248681
C        -0.73418876334844   -2.27737498009996    2.57844162172387
C        -1.97540571985129   -2.29676570461049    1.82573593614824
C        -0.24713963888251   -3.00812386251474   -1.81421674598338
C         0.74703992436389   -2.27182467213091   -2.56881805356955
C         1.97354843029444   -2.27907077225066   -1.81409073923554
C         1.73824246446840   -2.99997982750114   -0.59197633575754
C         0.36270096258640   -3.44283306263204   -0.59255758691129
C         2.79709626675186   -1.15817402736443   -1.81699888571192
C         2.41684135723616    0.00318963725088   -2.56926617084016
C         2.79573428494117    1.16988018081408   -1.81455182287837
C         3.41318041276941    0.72592867677559   -0.59090139765399
C         3.41353393030880   -0.71678514104351   -0.59250766992631
C         1.97652198609850    2.29231709780579   -1.81309271637808
C         0.74780921224416    2.29571057440562   -2.56915956565671
C        -0.23728309017178    3.01601413759295   -1.81621012673954
C         0.37321560466915    3.45675335536690   -0.58765776286883
C         1.74594899968315    3.01268040419012   -0.58817623607920
C        -1.55938010126892    2.57928239169306   -1.81608505268086
C        -1.93079880187544    1.41475757749174   -2.57822863291326
C        -2.94067602039558    0.69578878694576   -1.82409177171935
C        -3.16702289842450    1.40958574156262   -0.60250901158498
C        -2.31917621851432    2.57703272391872   -0.59704248964444
C        -2.92555776467479   -0.69995716947139   -1.81579329507120
C        -1.96897249630541   -1.42947373442337   -2.56800230524291
C        -1.57032124530322   -2.56238742551382   -1.80609672301108
C        -2.33349712227223   -2.58258986056564   -0.58277338021985
C        -3.17615921201339   -1.41870541851455   -0.58520687933643
C        -1.04205241018344   -0.75841287890264   -3.51545482615382
C        -0.99038943431575    0.74200446633481   -3.32760835219728
C         0.37295658334038    1.16558212287131   -3.29396560745728
C         1.22118107895143   -0.00126164070484   -3.28719500016411
C         0.39752782453526   -1.16209192268656   -3.30366952775288
Cl       -1.93238260337567    0.00157804814281    5.26587344044042
Cl       -1.55566611039617   -1.15185008546074   -5.28071271141710
62
 energy: -137.536623213501 gnorm: 0.010467762842 xtb: 6.4.1 (a3dbbd7)
C        -1.29633058388927    0.00043348512025    3.54143438367427
C        -0.37017577345681   -1.17485608618555    3.31942226078043
C         0.98121783418966   -0.72026340793541    3.28786931836081
C         0.98146009032780    0.72148032326023    3.28794721023235
C        -0.36945040886464    1.17466098909484    3.31794406324510
C         2.33437436722086   -2.57747665940725    0.58789442691373
C         3.18457460315564   -1.41173901807881    0.58853103683842
C         2.94554995289374   -0.69224392354561    1.81272860180206
C         1.95092094114147   -1.41437601398479    2.56676121773681
C         1.57853283674898   -2.57658924075380    1.81511039218612
C         3.18763385198461    1.41908392782560    0.59182419461742
C         2.34034851529105    2.58649799280438    0.59270710370539
C         1.58122853292735    2.58012856586235    1.81705172982129
C         1.95325999567472    1.41674234896567    2.56916920570039
C         2.94712413093569    0.69674389101395    1.81497316080795
C        -0.35671552688894    3.44547571449715    0.59256612712606
C        -1.72997280069625    2.99807112359278    0.59332865195940
C        -1.96922897128478    2.29162364794440    1.81627488655934
C        -0.73283817060814    2.27533369375584    2.57411932581041
C         0.25553853599166    2.99781622994256    1.81471092836987
C        -3.39667942899376    0.71676586417642    0.58429528787736
C        -3.39603444946844   -0.71782988189387    0.58761995851433
C        -2.77299326328429   -1.15088055716439    1.82143853600813
C        -2.42151996205318   -0.00057460527419    2.57234740000438
C        -2.77019288780282    1.14830277658309    1.81176467702847
C        -1.73696720282479   -3.00278325515652    0.60353143254080
C        -0.36332144683916   -3.44463284073056    0.59666876000904
C         0.25234742031778   -2.99692458973296    1.81498598178254
C        -0.73362606320866   -2.27748005841236    2.57964000161163
C        -1.97445581824428   -2.29614172080658    1.82565880251522
C        -0.24731110002375   -3.00926462181723   -1.81512153104151
C         0.74449114179598   -2.27193113355349   -2.57221323141229
C         1.96944770819854   -2.27598759314524   -1.81325802764812
C         1.73650087876298   -2.99765277142019   -0.59116810243513
C         0.36194888335370   -3.44189053791726   -0.59210362323344
C         2.79510292087947   -1.15754815147851   -1.81563778215712
C         2.41324269850241    0.00271659215497   -2.56791803513178
C         2.79425053387344    1.16910690093429   -1.81346039799284
C         3.41294105592840    0.72601537726692   -0.59008479843247
C         3.41333176794211   -0.71666209713043   -0.59141596610414
C         1.97572771891196    2.29146914480583   -1.81192228752979
C         0.74701714769869    2.29214015456325   -2.56751544984810
C        -0.23721158716877    3.01323194092456   -1.81501261393130
C         0.37339837297182    3.45699631453150   -0.58694700839302
C         1.74623708394787    3.01320935975627   -0.58740543770016
C        -1.55768428135817    2.57436372441915   -1.81546623808739
C        -1.93225756589125    1.41232654524747   -2.58117885574836
C        -2.94332154581341    0.69634712705245   -1.82524377718454
C        -3.16746766561810    1.40845632472022   -0.60261109423653
C        -2.31775972947491    2.57442392122345   -0.59643927116330
C        -2.92246032186972   -0.69907431052776   -1.81977122095626
C        -1.96393575087085   -1.42567247643133   -2.57258370705939
C        -1.56864770204972   -2.56005674583420   -1.81023682077759
C        -2.32958042248197   -2.57904583217616   -0.58412244072751
C        -3.17156114863170   -1.41610592010485   -0.58667860595747
C        -1.04342004559348   -0.75939262669275   -3.52382435021282
C        -0.99205919791956    0.73706345134415   -3.32857674632754
C         0.37077925242040    1.16210170523898   -3.29206541868689
C         1.21853455330020   -0.00424729554126   -3.28781875316907
C         0.39275580442059   -1.16517752338873   -3.31304630777606
Cl       -1.93146222621430    0.00265485918250    5.26688026210059
Cl       -1.55581296334223   -1.14765669841015   -5.27775142527999
62
 energy: -137.536804277272 gnorm: 0.005902406343 xtb: 6.4.1 (a3dbbd7)
C        -1.29635141773998    0.00064021468645    3.54136119863637
C        -0.37003589409271   -1.17478469576432    3.31949838035570
C         0.98144075174771   -0.71994684025537    3.28825502883865
C         0.98149950558964    0.72176713144823    3.28801325202808
C        -0.36934081493954    1.17487350171477    3.31784576626037
C         2.33442482113962   -2.57745852879485    0.58814632456632
C         3.18450877088062   -1.41160330616250    0.58904888871875
C         2.94557986344972   -0.69205967263661    1.81315286741964
C         1.95120857494973   -1.41399030618100    2.56719727818586
C         1.57887261519421   -2.57676949450256    1.81571352754089
C         3.18801132178867    1.41945783231656    0.59187502775599
C         2.34073214691053    2.58715385534619    0.59272587352880
C         1.58123077193630    2.58075829102532    1.81699175106675
C         1.95324389561758    1.41706864796332    2.56899836253548
C         2.94711508986201    0.69728141340064    1.81502232162953
C        -0.35687877749361    3.44580523458460    0.59254980186994
C        -1.73010092699633    2.99823849178258    0.59311302073316
C        -1.96899199338043    2.29111431574682    1.81615970609692
C        -0.73285086687867    2.27556665886338    2.57407749534010
C         0.25552202291239    2.99825863543160    1.81476807670964
C        -3.39823451810410    0.71714754039121    0.58489218161689
C        -3.39567842494837   -0.71726559535168    0.58720718827915
C        -2.77276513281091   -1.15059723944346    1.82096492056741
C        -2.42166014802336   -0.00051917222653    2.57234043631319
C        -2.77098114799985    1.14862838429930    1.81169534635063
C        -1.73600757985111   -3.00236519795985    0.60322041513950
C        -0.36274582287200   -3.44509801067875    0.59713537086687
C         0.25302293889327   -2.99711515450963    1.81560402102955
C        -0.73324058030655   -2.27759480718735    2.57999397020899
C        -1.97369751534216   -2.29573702721812    1.82506565414717
C        -0.24694991947262   -3.01096850596889   -1.81524203251711
C         0.74322260056836   -2.27176877108591   -2.57350000994305
C         1.96725483049782   -2.27425865482101   -1.81278708884920
C         1.73565621801685   -2.99655590223117   -0.59077284711925
C         0.36189987997499   -3.44231179377969   -0.59176836501617
C         2.79468944932792   -1.15772922057636   -1.81487205102366
C         2.41144997392922    0.00199643160046   -2.56685705478959
C         2.79346903839973    1.16830870830139   -1.81291044857078
C         3.41308626170707    0.72579435178255   -0.58989356280906
C         3.41372017560096   -0.71686320081369   -0.59081414194373
C         1.97554990476438    2.29095950489078   -1.81117166233621
C         0.74688984881015    2.28987347565641   -2.56570757046060
C        -0.23723664851756    3.01187090900155   -1.81404884345742
C         0.37358251907868    3.45772822091790   -0.58653240509466
C         1.74652649571674    3.01402310660969   -0.58721277159952
C        -1.55654719139653    2.57174024190557   -1.81454850622916
C        -1.93259011847406    1.41066392468813   -2.58067472341882
C        -2.94649884359067    0.69736939275767   -1.82506875508457
C        -3.16913786667823    1.40832974632676   -0.60261774357055
C        -2.31745620667868    2.57304913042505   -0.59588635400969
C        -2.91917206885042   -0.69833410720341   -1.82175794255360
C        -1.95929567536267   -1.42230024677123   -2.57418230830243
C        -1.56680148913736   -2.55774253093706   -1.81247299999247
C        -2.32673808774179   -2.57644213887996   -0.58462920093450
C        -3.16801921953260   -1.41454885430162   -0.58725453823837
C        -1.04628014789699   -0.76156817246985   -3.53545534250392
C        -0.99172606843796    0.73248785171885   -3.32325401991358
C         0.36975411192050    1.15905771241555   -3.28794793962398
C         1.21706230078032   -0.00704087538412   -3.28682434024924
C         0.38959449432004   -1.16769950109217   -3.31844199158398
Cl       -1.93109754184642    0.00371674930082    5.26676247128052
Cl       -1.55734941991202   -1.14206625893811   -5.27568836397978
62
 energy: -137.536849900716 gnorm: 0.003166542764 xtb: 6.4.1 (a3dbbd7)
C        -1.29652368577790    0.00072423923986    3.54086303127059
C        -0.37019856885444   -1.17469976002207    3.31907625026260
C         0.98130479214018   -0.71984938490909    3.28786818607732
C         0.98125565369601    0.72182804250761    3.28750072600687
C        -0.36954888250652    1.17491902248875    3.31725730642537
C         2.33466256442383   -2.57776580361966    0.58795927142292
C         3.18450140776038   -1.41168250513078    0.58885836149350
C         2.94538698223529   -0.69206393470962    1.81284333768554
C         1.95111541561867   -1.41390859463051    2.56689838991434
C         1.57889420475689   -2.57689441740933    1.81549615320902
C         3.18792089723545    1.41940802460417    0.59150044099486
C         2.34066018351560    2.58715240506497    0.59235865034433
C         1.58098867240708    2.58079558686411    1.81650279021128
C         1.95302224435306    1.41708212988635    2.56845274746811
C         2.94690271766291    0.69733851461096    1.81459478198814
C        -0.35713813400750    3.44592493762550    0.59218316637848
C        -1.73052551172710    2.99861878996860    0.59284879805285
C        -1.96929368419023    2.29107528789712    1.81583365607887
C        -0.73315850395563    2.27562864415260    2.57358600080609
C         0.25527692849066    2.99833183380823    1.81434756109552
C        -3.39898484410866    0.71727839772395    0.58488490846876
C        -3.39604899781692   -0.71722466109175    0.58706766837580
C        -2.77266948916781   -1.15057115362256    1.82054442354078
C        -2.42172583257746   -0.00057829077253    2.57189573803566
C        -2.77145010940450    1.14875923380125    1.81139184703891
C        -1.73592609215984   -3.00273496570806    0.60319164612923
C        -0.36254484537352   -3.44551471582236    0.59703021811754
C         0.25310046735105   -2.99725495831064    1.81545089403062
C        -0.73326268639700   -2.27755413749683    2.57966193360768
C        -1.97360904754682   -2.29575363105100    1.82466490434136
C        -0.24656372025149   -3.01159843120310   -1.81504972196983
C         0.74369166866772   -2.27171651217506   -2.57302339071190
C         1.96775607555396   -2.27460677646318   -1.81297215202570
C         1.73599625470373   -2.99699921653105   -0.59096186376917
C         0.36230133357432   -3.44307108046903   -0.59185770518577
C         2.79543446147069   -1.15822265304140   -1.81505445287293
C         2.41202872994923    0.00165022156853   -2.56696065281937
C         2.79362400544544    1.16807159140270   -1.81314624519423
C         3.41319659043206    0.72559237518293   -0.59016403711408
C         3.41406612933665   -0.71705264596080   -0.59095898727600
C         1.97584663372747    2.29100188980833   -1.81129120083607
C         0.74719485539701    2.28993185946232   -2.56532579598424
C        -0.23730407114575    3.01214692009521   -1.81401435178708
C         0.37362694368769    3.45802269105418   -0.58667946969450
C         1.74659418537040    3.01425336189787   -0.58748449808596
C        -1.55659180707921    2.57220398415948   -1.81425676694301
C        -1.93225399987416    1.41076113577261   -2.57920650794906
C        -2.94744914592132    0.69774175489585   -1.82452057716739
C        -3.17012396062221    1.40880259795441   -0.60272824105588
C        -2.31807523608668    2.57343841552108   -0.59589690456209
C        -2.91842603572334   -0.69829602275833   -1.82129523358549
C        -1.95816345873103   -1.42161094321398   -2.57290636332155
C        -1.56624632956488   -2.55728815550863   -1.81199271435060
C        -2.32668943262617   -2.57640968902084   -0.58443290966511
C        -3.16781064171264   -1.41479148362602   -0.58707625838241
C        -1.04774383149835   -0.76254483425447   -3.53964849242762
C        -0.99057298898531    0.73143030742839   -3.31871964470301
C         0.37017688815372    1.15847719446680   -3.28606054175455
C         1.21746087309530   -0.00768694304934   -3.28616664945146
C         0.38983563404335   -1.16814379340059   -3.31798831336379
Cl       -1.93137547521633    0.00405928574209    5.26614533811142
Cl       -1.55846222466561   -1.13873475850092   -5.27231848307633
62
 energy: -137.536864229903 gnorm: 0.001409659899 xtb: 6.4.1 (a3dbbd7)
C        -1.29663924758028    0.00074469491000    3.54054840932963
C        -0.37035756079014   -1.17464630108348    3.31882099043969
C         0.98114503276020   -0.71984584812218    3.28753506107794
C         0.98108806376034    0.72181921955662    3.28718783241921
C        -0.36971301083864    1.17490497678748    3.31690541541185