156
 energy: -487.947499112799 gnorm: 9.951297168866 xtb: 6.4.1 (a3dbbd7)
C        -1.23626340000000    0.00000000000000    3.32997640000000
C        -0.38202640000000   -1.17575640000000    3.32997640000000
C         1.00015810000000   -0.72665740000000    3.32997640000000
C         1.00015810000000    0.72665740000000    3.32997640000000
C        -0.38202640000000    1.17575640000000    3.32997640000000
C         2.34433560000000   -2.60145750000000    0.59464210000000
C         3.19857260000000   -1.42570110000000    0.59464210000000
C         2.96246730000000   -0.69904370000000    1.83090550000000
C         1.96230920000000   -1.42570110000000    2.59495830000000
C         1.58028280000000   -2.60145750000000    1.83090550000000
C         3.19857260000000    1.42570110000000    0.59464210000000
C         2.34433560000000    2.60145750000000    0.59464210000000
C         1.58028280000000    2.60145750000000    1.83090550000000
C         1.96230920000000    1.42570110000000    2.59495830000000
C         2.96246730000000    0.69904370000000    1.83090550000000
C        -0.36750900000000    3.48258920000000    0.59464210000000
C        -1.74969350000000    3.03349030000000    0.59464210000000
C        -1.98579880000000    2.30683290000000    1.83090550000000
C        -0.74953540000000    2.30683290000000    2.59495830000000
C         0.25062270000000    3.03349030000000    1.83090550000000
C        -3.42570570000000    0.72665740000000    0.59464210000000
C        -3.42570570000000   -0.72665740000000    0.59464210000000
C        -2.80757400000000   -1.17575640000000    1.83090550000000
C        -2.42554760000000    0.00000000000000    2.59495830000000
C        -2.80757400000000    1.17575640000000    1.83090550000000
C        -1.74969350000000   -3.03349030000000    0.59464210000000
C        -0.36750900000000   -3.48258920000000    0.59464210000000
C         0.25062270000000   -3.03349030000000    1.83090550000000
C        -0.74953540000000   -2.30683290000000    2.59495830000000
C        -1.98579880000000   -2.30683290000000    1.83090550000000
C        -0.25062270000000   -3.03349030000000   -1.83090550000000
C         0.74953540000000   -2.30683290000000   -2.59495830000000
C         1.98579880000000   -2.30683290000000   -1.83090550000000
C         1.74969350000000   -3.03349030000000   -0.59464210000000
C         0.36750900000000   -3.48258920000000   -0.59464210000000
C         2.80757400000000   -1.17575640000000   -1.83090550000000
C         2.42554760000000    0.00000000000000   -2.59495830000000
C         2.80757400000000    1.17575640000000   -1.83090550000000
C         3.42570570000000    0.72665740000000   -0.59464210000000
C         3.42570570000000   -0.72665740000000   -0.59464210000000
C         1.98579880000000    2.30683290000000   -1.83090550000000
C         0.74953540000000    2.30683290000000   -2.59495830000000
C        -0.25062270000000    3.03349030000000   -1.83090550000000
C         0.36750900000000    3.48258920000000   -0.59464210000000
C         1.74969350000000    3.03349030000000   -0.59464210000000
C        -1.58028280000000    2.60145750000000   -1.83090550000000
C        -1.96230920000000    1.42570110000000   -2.59495830000000
C        -2.96246730000000    0.69904370000000   -1.83090550000000
C        -3.19857260000000    1.42570110000000   -0.59464210000000
C        -2.34433560000000    2.60145750000000   -0.59464210000000
C        -2.96246730000000   -0.69904370000000   -1.83090550000000
C        -1.96230920000000   -1.42570110000000   -2.59495830000000
C        -1.58028280000000   -2.60145750000000   -1.83090550000000
C        -2.34433560000000   -2.60145750000000   -0.59464210000000
C        -3.19857260000000   -1.42570110000000   -0.59464210000000
C        -1.00015810000000   -0.72665740000000   -3.32997640000000
C        -1.00015810000000    0.72665740000000   -3.32997640000000
C         0.38202640000000    1.17575640000000   -3.32997640000000
C         1.23626340000000    0.00000000000000   -3.32997640000000
C         0.38202640000000   -1.17575640000000   -3.32997640000000
C        -1.76086815247998    0.00000000000000    4.78849957557021
F        -0.76911826531252    0.00000000000000    5.67468926254662
F        -2.50968386795825   -1.06794314680471    5.04863888333743
F        -2.50968386795825    1.06794314680471    5.04863888333743
C        -0.54413818249354   -1.67468516033722    4.78849957845317
F        -0.23767107904745   -0.73147481112462    5.67468925997942
F        -1.79120914301982   -2.05683909935453    5.04863874564184
F         0.24013968171955   -2.71686350152345    5.04863903502921
C         1.42457227037960   -1.03501233722714    4.78849957248258
F         0.62223011468481   -0.45207589682711    5.67468926529602
F         1.40265511061956   -2.33913928186680    5.04863905501621
F         2.65809836182651   -0.61117154425495    5.04863869666890
C         3.37204091334889   -3.72927672645244    0.86730596148276
F         4.06564647311728   -3.51265957144659    1.98125763710228
F         4.25569947457670   -3.84739838595791   -0.11965645964809
F         2.78580317558591   -4.91533944031226    1.00324916143779
C         4.58877084110522   -2.05459160147071    0.86730597290559
F         4.59709252483521   -2.78118520641283    1.98125951001435
F         4.97417519512416   -2.85850196315549   -0.11965482382298
F         5.53562669678859   -1.13053295630600    1.00324569798425
C         4.25247495652193   -1.01957928511255    2.62817407757680
F         4.45020405360863   -2.32910962270744    2.75037677428969
F         5.33704498641440   -0.51936149478958    2.04303305824604
F         4.21414295278388   -0.51936236815955    3.85992636334025
C         4.25247495652193    1.01957928511255    2.62817407757680
F         4.45020405360857    2.32910962270745    2.75037677428973
F         5.33704498641440    0.51936149478962    2.04303305824599
F         4.21414295278389    0.51936236815949    3.85992636334022
C        -2.50473491433418    4.35941144902977    0.86730593917895
F        -2.08438487052912    4.95213043104453    1.98125838386969
F        -2.34400857369757    5.23632280881804   -0.11965581818547
F        -3.81390519137296    4.16837996597314    1.00324768478856
C        -2.84103082519036    3.32439911178427    2.62817407941587
F        -2.23127406184888    4.50005340761388    2.75037746012491
F        -4.01248672303644    3.55720929213525    2.04303264409737
F        -3.10404037880940    2.89718378306489    3.85992609894427
C        -4.92005227074660   -1.03501232949151    0.86730592957069
F        -5.35386609588658   -0.45207588830481    1.98125865327758
F        -5.70437742108406   -0.61117153086585   -0.11965558739362
F        -5.14292645153878   -2.33913927311179    1.00324714649869
C        -2.50473491433418   -4.35941144902977    0.86730593917895
F        -2.08438487052912   -4.95213043104453    1.98125838386969
F        -2.34400857369757   -5.23632280881804   -0.11965581818547
F        -3.81390519137296   -4.16837996597314    1.00324768478856
C         0.34440953624153   -4.35941144868709    2.62817404748705
F        -0.83992598883967   -4.95213069234126    2.75037577510431
F         1.15529636597892   -5.23632261667420    2.04303359185445
F         0.80829780400759   -4.16837989546168    3.85992670963205
C        -2.84103082519036   -3.32439911178427    2.62817407941587
F        -2.23127406184888   -4.50005340761388    2.75037746012491
F        -4.01248672303644   -3.55720929213525    2.04303264409737
F        -3.10404037880940   -2.89718378306488    3.85992609894427
C         2.84103082519036   -3.32439911178427   -2.62817407941587
F         2.23127406184888   -4.50005340761388   -2.75037746012495
F         3.10404037880944   -2.89718378306489   -3.85992609894426
F         4.01248672303643   -3.55720929213529   -2.04303264409737
C         2.50473491433418   -4.35941144902977   -0.86730593917895
F         2.08438487052912   -4.95213043104453   -1.98125838386969
F         3.81390519137296   -4.16837996597314   -1.00324768478856
F         2.34400857369757   -5.23632280881804    0.11965581818547
C         3.49548004549360    0.00000000000000   -3.71645041414084
F         4.73163621497510    0.00000000000000   -3.22571838476757
F         3.39327517264965   -1.06794314680471   -4.50254938956302
F         3.39327517264965    1.06794314680471   -4.50254938956303
C         4.92005227074660    1.03501232949151   -0.86730592957069
F         5.35386609588658    0.45207588830481   -1.98125865327758
F         5.14292645153878    2.33913927311179   -1.00324714649869
F         5.70437742108406    0.61117153086585    0.11965558739362
C        -0.34440953624153    4.35941144868709   -2.62817404748705
F         0.83992598883967    4.95213069234126   -2.75037577510431
F        -0.80829780400759    4.16837989546168   -3.85992670963205
F        -1.15529636597892    5.23632261667420   -2.04303359185445
C         0.53602450593361    4.99908416128281   -0.86730591619822
F         1.22448605650957    5.23152837615597   -1.98125850960180
F        -0.63540201352706    5.61404743764837   -1.00324736766175
F         1.18149064144157    5.61404773804446    0.11965571789346
C         2.50473491433418    4.35941144902977   -0.86730593917895
F         2.08438487052912    4.95213043104453   -1.98125838386969
F         3.81390519137296    4.16837996597314   -1.00324768478856
F         2.34400857369757    5.23632280881804    0.11965581818547
C        -4.25247495652193    1.01957928511255   -2.62817407757680
F        -4.45020405360863    2.32910962270744   -2.75037677428969
F        -4.21414295278388    0.51936236815955   -3.85992636334025
F        -5.33704498641440    0.51936149478958   -2.04303305824604
C        -4.25247495652193   -1.01957928511255   -2.62817407757680
F        -4.45020405360857   -2.32910962270745   -2.75037677428973
F        -4.21414295278389   -0.51936236815949   -3.85992636334022
F        -5.33704498641440   -0.51936149478962   -2.04303305824599
C        -4.58877084110522   -2.05459160147071   -0.86730597290559
F        -4.59709252483521   -2.78118520641283   -1.98125951001435
F        -5.53562669678859   -1.13053295630600   -1.00324569798425
F        -4.97417519512416   -2.85850196315549    0.11965482382298
C         1.76086815247998    0.00000000000000   -4.78849957557021
F         0.76911826531252    0.00000000000000   -5.67468926254662
F         2.50968386795825    1.06794314680471   -5.04863888333743
F         2.50968386795825   -1.06794314680471   -5.04863888333743
156
 energy: -495.330583183565 gnorm: 7.966124160867 xtb: 6.4.1 (a3dbbd7)
C        -1.23602898820687    0.00154132888272    3.32470867442441
C        -0.38273772069760   -1.17699409981556    3.32228737668907
C         1.00101834645699   -0.72371568122873    3.32523419040092
C         0.99982682701886    0.72682065912946    3.33251217483689
C        -0.38149247881354    1.17568656949666    3.33163502150182
C         2.33659794879389   -2.59428159259324    0.59571935563559
C         3.19040925061530   -1.41950627936293    0.58971291902776
C         2.95235312579058   -0.69883963281953    1.82672153172833
C         1.96477962917307   -1.42616373855673    2.59472595773615
C         1.58276632507111   -2.60254120870693    1.83145600266086
C         3.19820377649851    1.42806709770945    0.59660708257761
C         2.34398325690085    2.60010318656440    0.59751911539048
C         1.58019503528228    2.60133596760553    1.82997905078727
C         1.96322710470192    1.42788671203534    2.59444313812352
C         2.95582583429578    0.70338437682812    1.82761732427146
C        -0.36740147056055    3.48362841977805    0.59722559104408
C        -1.74774832486412    3.03168321941690    0.59222787091344
C        -1.98379192710177    2.30321108135721    1.83090254498128
C        -0.74865419258560    2.30910928632340    2.59494503613884
C         0.25101869127983    3.03276480659388    1.83097636075335
C        -3.42625198382676    0.72744338520230    0.59573257861202
C        -3.41909059520992   -0.72217454106506    0.59786266199651
C        -2.80838050983514   -1.17460606273405    1.83220295836828
C        -2.42668145576051    0.00089044683669    2.59384373256320
C        -2.80878668034514    1.17334068598304    1.83138528064448
C        -1.74616536191015   -3.03111993106874    0.59264910745668
C        -0.36880866865884   -3.48366967972948    0.59575370615495
C         0.24967945942205   -3.03312788280352    1.82995219458973
C        -0.75030443444714   -2.30758687314464    2.59377915298678
C        -1.98383273195649   -2.30364080457312    1.83036979661559
C        -0.25049565943690   -3.03268860419676   -1.83051342413442
C         0.74868038138337   -2.30939790803295   -2.59578800673598
C         1.98217674158503   -2.30152807181935   -1.83088867707527
C         1.74148693035015   -3.02735285540687   -0.59464870773533
C         0.36776945379429   -3.48415371041973   -0.59815539427038
C         2.80889777534317   -1.17476108187849   -1.83198030998092
C         2.42460383090758    0.00032491828914   -2.58812040157289
C         2.80811066402080    1.17540713288737   -1.83210273780854
C         3.42664886871126    0.72659594863168   -0.59546342820041
C         3.42633862046292   -0.72634426099670   -0.59591979200038
C         1.98492532791967    2.30825111577133   -1.83246051897485
C         0.75100978475618    2.30786640557464   -2.59539517016997
C        -0.25189500454707    3.02778784574368   -1.82997519369583
C         0.36492209914319    3.47665724534525   -0.59044242628664
C         1.74961970942871    3.02790382712909   -0.59351936181397
C        -1.58245664215886    2.60022925946557   -1.83148995306193
C        -1.96153450335735    1.42681482404262   -2.59527618459738
C        -2.95679650743051    0.70304777771452   -1.82761627964102
C        -3.19842533029699    1.42680205611526   -0.59466258429671
C        -2.34519291405115    2.60063149089320   -0.59676691588069
C        -2.95049267369539   -0.69948114421857   -1.82767398646304
C        -1.96212789990348   -1.42737610407199   -2.59516319855969
C        -1.57935543049725   -2.60209869154194   -1.83165789624756
C        -2.34475178844756   -2.60143708243061   -0.59684713685466
C        -3.18739326323823   -1.42512377258440   -0.59388223189693
C        -0.99871998420788   -0.72462988098377   -3.33097439230235
C        -0.99951682104003    0.72492299689834   -3.33066145787379
C         0.38020449085197    1.17516993462719   -3.33137795040122
C         1.22946579901953   -0.00009467400014   -3.32542000389399
C         0.38001389490873   -1.17467355914302   -3.33138557347638
C        -1.77785436709765    0.00353824139023    4.76959448664840
F        -0.79712492089004    0.04845756581772    5.69659923386905
F        -2.55906073487624   -1.00945760344746    5.05146978042884
F        -2.51093631913225    1.07101415254266    5.05132419575649
C        -0.54679554925980   -1.69196969952657    4.76454743328495
F        -0.25040064838951   -0.76892954163841    5.70471721807057
F        -1.75055540528778   -2.11894013666643    5.05407200654340
F         0.17068774633900   -2.74476518756220    5.05281002049984
C         1.43372405605154   -1.04898267250823    4.76470384714537
F         0.67138596478056   -0.42240670299924    5.69898542153740
F         1.47841939057408   -2.32397654470285    5.05145632508225
F         2.66130251824081   -0.60828609731083    5.05489208028188
C         3.34581908203160   -3.71346904984080    0.83207832369010
F         4.05377370958700   -3.57221913923614    2.01917782493323
F         4.25059683010157   -3.90005093304458   -0.09163473615385
F         2.79983899575990   -4.92116708971083    1.05199818107704
C         4.57707482783466   -2.03885329543778    0.84847797037674
F         4.64542540994912   -2.78645838996418    1.96556272121312
F         5.02807076655855   -2.80041258979803   -0.13034663099061
F         5.55906791771404   -1.16644885025050    0.93663797330296
C         4.23275463457417   -0.98189961150744    2.60301216393380
F         4.45498357836479   -2.33754577337090    2.82173315733630
F         5.34857915229329   -0.51256198042815    2.09411795167868
F         4.21517737882265   -0.55577738065823    3.88074550839129
C         4.23562133737016    1.02669038188187    2.62153896683172
F         4.45262844413936    2.33179962034210    2.75173149910236
F         5.35677322571143    0.55570065456127    2.04154194108114
F         4.21394232363050    0.55539752317680    3.88748007440566
C        -2.50823264337145    4.35274743796629    0.85637747922377
F        -2.07115489775404    4.98939092254289    1.94380495299301
F        -2.34637182599441    5.23926300427207   -0.12007427346866
F        -3.80517810990356    4.20828610770766    0.93795289970860
C        -2.84593460632696    3.31252164557614    2.62698429201651
F        -2.23522782662877    4.48443614500207    2.80244203160579
F        -4.02915373060875    3.52037028933581    2.10856076880099
F        -3.10469645001265    2.89765896108146    3.86337123894004
C        -4.90178786997954   -1.02660656367759    0.86927024568340
F        -5.35797187304395   -0.45155751419764    1.98479171495642
F        -5.72975746936825   -0.56950252134791   -0.08224807639611
F        -5.15561188855569   -2.34622464152360    1.03959190371868
C        -2.50564786979769   -4.35380105335964    0.85652322412071
F        -2.08799463720893   -4.98585135910631    1.93875235211056
F        -2.34366546477137   -5.23961666065634   -0.12183095260916
F        -3.80598344532349   -4.21106096326079    0.93828238615305
C         0.34711357124520   -4.35655081442931    2.62778762186957
F        -0.81111058682821   -4.96207813420409    2.76170101532502
F         1.15481599849350   -5.24000959448315    2.04434435637143
F         0.81058835765819   -4.17203839380327    3.86079112938045
C        -2.84520234451985   -3.31234598231214    2.62771094587770
F        -2.25184591211237   -4.48185382839218    2.79733011222923
F        -4.02882660406309   -3.52182166286376    2.11059926978120
F        -3.10684691475654   -2.89862700723817    3.86157928045176
C         2.84327330877555   -3.31015669236913   -2.61850147932404
F         2.23063729440005   -4.49109223737699   -2.80557527482961
F         3.10488966011001   -2.90047076877918   -3.86646839917077
F         4.03833441782199   -3.51630841940119   -2.11081651719029
C         2.50776166555030   -4.32287462628210   -0.85328174031797
F         2.06194457494316   -5.00571674927586   -1.96132540537839
F         3.80059246376911   -4.22478935721406   -0.98595242440569
F         2.31399974318659   -5.27684556562502    0.09543590624403
C         3.49126396464564    0.00110106773795   -3.70031776929367
F         4.72483164046398   -0.00935656661770   -3.25104590806009
F         3.42994234356719   -1.08347245866216   -4.49373169238850
F         3.43066622372202    1.08619741104924   -4.49024646378040
C         4.91819636871835    1.03617810262146   -0.86701489804002
F         5.36911774383467    0.46007105192477   -1.95911892355464
F         5.14474186457625    2.34056809625579   -1.00359911001536
F         5.70855531550524    0.61347209792819    0.11797260941940
C        -0.36719399960126    4.34606249559885   -2.62234810987336
F         0.83010318566342    4.94972118781664   -2.81141085419753
F        -0.80823807903111    4.16885452513553   -3.86460322781611
F        -1.19210876666905    5.21756211687878   -2.10744931762316
C         0.52126102651736    4.98866384796301   -0.84411645778015
F         1.21472988841741    5.27755164703018   -1.96531763153748
F        -0.60547361191378    5.64255559315665   -0.94088390444311
F         1.11207487365762    5.64212723540667    0.12409907126369
C         2.51014498401270    4.34627101675160   -0.84495580009043
F         2.14352575138305    4.94920647986979   -1.99862387575966
F         3.81727626609449    4.16949577332772   -1.00524911736897
F         2.41812294815740    5.21763594322102    0.12400094404146
C        -4.23689553272698    1.02349715343081   -2.61796715852196
F        -4.45321631515787    2.33316173959659   -2.75252657875482
F        -4.21290911891223    0.55127463713376   -3.88569017786596
F        -5.35725255310610    0.57756130900705   -2.03912398379895
C        -4.22688461520723   -1.00771640407273   -2.60767370279439
F        -4.44582887539988   -2.33304981354676   -2.80885833902413
F        -4.21362974013281   -0.54950331987348   -3.88677030300308
F        -5.35836395059934   -0.52693111996602   -2.09528234787880
C        -4.56005547447335   -2.03497351622654   -0.86041158052844
F        -4.60840668344947   -2.83194736072057   -1.95549732090151
F        -5.57306073779446   -1.17715901102207   -0.98953961698379
F        -4.97937008853384   -2.89645186713510    0.10881834840217
C         1.74755138902951   -0.00298773545935   -4.77496921999936
F         0.76765642125110   -0.00019330364116   -5.67991926609556
F         2.48318152325532    1.08679165002890   -5.07979663138061
F         2.48313093145631   -1.08463066612146   -5.07704926358863
156
 energy: -502.519478447946 gnorm: 6.961124703703 xtb: 6.4.1 (a3dbbd7)
C        -1.23686565704953    0.00482441504217    3.32270063040455
C        -0.38336179389592   -1.17808037695299    3.31968286351231
C         1.00286675798560   -0.72170047249372    3.32436860424739
C         0.99837136840975    0.72874364418616    3.33259054661329
C        -0.37930027953396    1.17633607066270    3.33121260212952
C         2.33155052498340   -2.59082981842623    0.59885860120228
C         3.18714718188823   -1.41482932297017    0.58494758262988
C         2.94912810869057   -0.69937039047135    1.82844469228545
C         1.96746328245028   -1.42661878004059    2.59396782771987
C         1.58577579992058   -2.60319787195483    1.83070488657746
C         3.19653391179140    1.43087853975549    0.59850459806787
C         2.34339684500383    2.59815304934518    0.60154776487083
C         1.58049103604542    2.60057546596832    1.82859379068425
C         1.96260100475432    1.42999344089439    2.59378310561067
C         2.95158904733553    0.70928382910978    1.82538976217628
C        -0.36688016607503    3.48366129465990    0.59978267985618
C        -1.74615385050507    3.03116122606964    0.58992364505942
C        -1.98254548911994    2.30122254318754    1.83285860000134
C        -0.74648376271656    2.30989625501340    2.59489184076472
C         0.25137384551088    3.03197082333470    1.83162990931398
C        -3.42459713756283    0.72907655747882    0.59668951827579
C        -3.41837452434563   -0.71856903608843    0.60236412213456
C        -2.80905796765184   -1.17259673212615    1.83344525622027
C        -2.42848382332957    0.00223492081657    2.59138366436140
C        -2.80996678003464    1.16942076334672    1.83056956687560
C        -1.74249175212071   -3.03005095447721    0.59072215894799
C        -0.37026609720186   -3.48573177569261    0.59724832164675
C         0.24859695054901   -3.03435874979379    1.82935327654019
C        -0.75073022008848   -2.30817319062578    2.59364074515975
C        -1.98246391388907   -2.30104743848771    1.83124565300660
C        -0.25166538406525   -3.03087569035302   -1.83005322788587
C         0.74678039515899   -2.31089418402569   -2.59698940573004
C         1.97934922644704   -2.29701405823301   -1.83241296794018
C         1.73329376716821   -3.02415797026718   -0.59545111564208
C         0.36863933406422   -3.48434878477003   -0.60153555701313
C         2.81018750619703   -1.17465500551577   -1.83257398310453
C         2.42600833574303    0.00109638288248   -2.58434670939991
C         2.80736783789283    1.17586970932976   -1.83277564040836
C         3.42976321372491    0.72722823447763   -0.59706579523861
C         3.42616622230699   -0.72708317427954   -0.59601639381486
C         1.98211548933594    2.30756981556518   -1.83454419789748
C         0.75372831046047    2.30623775987266   -2.59440012536696
C        -0.25258178696006    3.02651271119083   -1.83253488580802
C         0.36332969426303    3.47452177436742   -0.58754317489826
C         1.75146295025915    3.02629832916056   -0.59371805517414
C        -1.58562094570884    2.59758095735160   -1.83102113365358
C        -1.95924907389946    1.42802872545978   -2.59503733500757
C        -2.95441281632631    0.70846912476401   -1.82641840088071
C        -3.19719649521831    1.42825445480280   -0.59345713025477
C        -2.34639891110415    2.59911569916300   -0.59960576417955
C        -2.94409598814796   -0.70134155114703   -1.82905452335150
C        -1.96275220457565   -1.42908772153845   -2.59601301250981
C        -1.57674783099403   -2.60181758417281   -1.83205697044163
C        -2.34608984122320   -2.60218284673784   -0.59948576506172
C        -3.18334712663697   -1.42787476401922   -0.59418992568518
C        -0.99621529788905   -0.72199636980825   -3.33138716576837
C        -0.99900043869127    0.72300052816180   -3.33061733534892
C         0.37837581198756    1.17574009295970   -3.33145905806961
C         1.22564786107630    0.00028412209630   -3.32719852212332
C         0.37645278224273   -1.17458876493253   -3.33090261431992
C        -1.79535180019213   -0.00149763296235    4.74858854732198
F        -0.82532008703700    0.11936334724681    5.71821104737728
F        -2.59026432904439   -0.97468194171011    5.05415729577186
F        -2.51061018967175    1.07273453022383    5.05391497315493
C        -0.55246673626267   -1.70549823817267    4.74777041700296
F        -0.27518020294577   -0.84890548983304    5.72433251643292
F        -1.72324417295277   -2.15637362215495    5.05776564014525
F         0.12680303405215   -2.75765801618053    5.05699970059981
C         1.44428293173708   -1.06405022330320    4.74055980751241
F         0.73534978891319   -0.37711781901121    5.72578741162743
F         1.52457204456634   -2.31451274419123    5.05388820091837
F         2.66048804841893   -0.60606825834090    5.06020230019040
C         3.32042596327193   -3.70101120644437    0.79430300725326
F         4.03449222425840   -3.63842225513159    2.06580536200462
F         4.25072683593450   -3.93602593561595   -0.05627182223242
F         2.83867740302661   -4.90385429608897    1.12624964791423
C         4.56163802144741   -2.02732368039190    0.84021886796193
F         4.70659298659367   -2.77299016477765    1.91419559231103
F         5.06691303319393   -2.76212579016213   -0.14279056123820
F         5.57557291467088   -1.19151255429350    0.89145258181195
C         4.21833756789810   -0.94114185424671    2.58065487563519
F         4.45318237906915   -2.35106737191784    2.90921781366820
F         5.34663120209527   -0.52785704572250    2.14611907390338
F         4.22175852963672   -0.63929166234784    3.89048548557162
C         4.21829974473119    1.02905247034638    2.61779180725010
F         4.45642622243466    2.33601606700863    2.75305746317256
F         5.37792113099506    0.59930999488383    2.02977717249710
F         4.21256563912193    0.63779748067929    3.90154726980500
C        -2.51363029222338    4.34408736470518    0.84505398988514
F        -2.06079326199708    5.01749571677909    1.92538139433508
F        -2.34928148514247    5.24067530215267   -0.11869798476658
F        -3.80101884066370    4.23239551531136    0.90005032646380
C        -2.85239946354916    3.30004006616507    2.62375487313298
F        -2.23530436610865    4.48038560947419    2.83727307598352
F        -4.03986702302386    3.49947606531369    2.14728417985573
F        -3.10472573556051    2.89892851337792    3.86497071999483
C        -4.89015843492525   -1.01834676254327    0.86965860872251
F        -5.36150866313350   -0.45098492035376    1.98853308010171
F        -5.75003575546077   -0.50963007569068   -0.01463235704966
F        -5.17324765815602   -2.32565678263863    1.09960092016047
C        -2.50767072386170   -4.34785012718874    0.84656082461547
F        -2.09526808596332   -5.01055849924005    1.91105639869418
F        -2.34341211254026   -5.24161671389025   -0.12273725657127
F        -3.80131011832491   -4.23817359037481    0.90234679280099
C         0.35042679574547   -4.35418458786155    2.62737964303560
F        -0.78218161294061   -4.97175488241756    2.77291420659760
F         1.15304330663915   -5.24325567969531    2.04596957834938
F         0.81295711273814   -4.17581302734493    3.86110551812476
C        -2.85009394192542   -3.30062590851968    2.62603880766566
F        -2.27025672322836   -4.47259304653705    2.82900259946581
F        -4.03753523531382   -3.50371678373320    2.15078384429373
F        -3.10972552492895   -2.90069789597685    3.86128126851500
C         2.84673914451970   -3.29656466443795   -2.61088219827645
F         2.22975507347462   -4.48777991480720   -2.84346566111315
F         3.10447206467212   -2.90521251799370   -3.86830336087960
F         4.05549110707087   -3.48849588376046   -2.15450042409503
C         2.51282067874922   -4.28889034899676   -0.83222039717361
F         2.04125890763081   -5.05324764378857   -1.95872144954677
F         3.78690270222798   -4.27237091211995   -0.98511433757451
F         2.27382007681373   -5.31714353860005    0.02850643383545
C         3.48958471668357    0.00371257903030   -3.69061164550805
F         4.71838889080344   -0.01847174998245   -3.27498914546474
F         3.49725262522257   -1.08889366319440   -4.46298459389424
F         3.50031167100874    1.09235159467952   -4.45262971604059
C         4.91642030429456    1.03743603074691   -0.86783570144729
F         5.38322413562293    0.46765894273656   -1.93771768267055
F         5.14633383541643    2.34167437507689   -1.00377009480019
F         5.71265454118880    0.61625870027132    0.11557819595196
C        -0.39070469245355    4.33201656864014   -2.61433638926035
F         0.82274828612506    4.93885973900643   -2.88797771837958
F        -0.80722463791549    4.16945815976982   -3.86771618100745
F        -1.21481998283159    5.20727450411983   -2.14703614548500