63
 energy: -142.079885411190 gnorm: 0.135628854929 xtb: 6.4.1 (a3dbbd7)
C        -1.29585809763920    0.00401118881931    3.54517689231029
C        -0.36796043466059   -1.17243305044266    3.30515820987539
C         0.98298838984909   -0.72191219210780    3.27512267957929
C         0.98156472691728    0.71960753564614    3.26971969840148
C        -0.37066843430553    1.17924059866277    3.30150764324135
C         2.33648296598357   -2.58548060321166    0.57950289371033
C         3.18657767566203   -1.41946403917212    0.57781419536533
C         2.94957050634668   -0.69854930588343    1.80123308089156
C         1.95308396825138   -1.41752165469557    2.55613481597303
C         1.57961582984989   -2.57968580834158    1.80518673258983
C         3.18767024138397    1.40991878537575    0.57593180017933
C         2.33807592119235    2.57402574463448    0.57591940987423
C         1.57683795447400    2.56605672116665    1.79975339077111
C         1.95304946478205    1.40835201085528    2.55205927541471
C         2.95072023090319    0.68875745027160    1.80098024590342
C        -0.36516779392141    3.42666371311492    0.57921714402649
C        -1.72924376731069    3.01648005687427    0.58287705229366
C        -2.09463355901587    2.46231282969886    1.94730853737491
C        -0.73027134368917    2.28553619224850    2.58224921046650
C         0.24829448370074    2.97593693088527    1.80334175247540
C        -3.37466967439567    0.70300551329579    0.57574930039426
C        -3.39003092771629   -0.73268815670587    0.56838248256510
C        -2.76818811346571   -1.16356142396752    1.78871572205038
C        -2.38904763717889    0.02437925858140    2.53264263708558
C        -2.74834472581071    1.12995086235998    1.81420011509538
C        -1.73481952354600   -3.00995345707075    0.57938225067925
C        -0.36149853487188   -3.44686666226009    0.58178847329193
C         0.25217194576597   -2.99475012297255    1.80551622011247
C        -0.72930832450935   -2.27346636848304    2.56467955460776
C        -1.97147545437730   -2.28746259180062    1.79868366143107
C        -0.24419850633136   -3.01431906314620   -1.82647673825261
C         0.74940205395547   -2.29291975806330   -2.58286291039202
C         1.97453700920709   -2.29239152825096   -1.82543977569151
C         1.74139873391846   -3.01127177396538   -0.59946235539016
C         0.36858334361035   -3.45436466601281   -0.59762914030018
C         2.79442417375665   -1.17031401238235   -1.82833550582627
C         2.41574661868216   -0.00512369138436   -2.58546959698227
C         2.79806943058290    1.16104826437995   -1.83045397159780
C         3.41356646756867    0.71553904959985   -0.60565027126811
C         3.41126633543504   -0.72579612437446   -0.60436594375932
C         1.98256115237360    2.28538932475628   -1.82964816243890
C         0.75350030248264    2.28551308222168   -2.58573232043658
C        -0.23508280223273    3.00436687434747   -1.82344140510130
C         0.37359850933878    3.44286488634390   -0.60220138875814
C         1.74684322375821    3.00246743965493   -0.60372642363152
C        -1.55566653240424    2.56818250404503   -1.80941223602174
C        -1.93859434660526    1.40592010808590   -2.57168095899201
C        -2.93551210472019    0.68461262540438   -1.82146846795257
C        -3.16898901543324    1.39767486955451   -0.59605965569985
C        -2.30435127708354    2.57332623889815   -0.58497549494069
C        -2.94114405324375   -0.70773319319533   -1.83440725651199
C        -1.94505174587464   -1.42387954866205   -2.59102123509086
C        -1.56548890453788   -2.59170746569988   -1.83211639417485
C        -2.32839595521473   -2.59312664308342   -0.60918315809929
C        -3.17773883520354   -1.43218193780650   -0.61434027481289
C        -0.98775846768414   -0.72638522805960   -3.31322849835342
C        -0.98659864734294    0.71557045446948   -3.30737103344774
C         0.38544609972999    1.16109326157285   -3.31071431262535
C         1.23106807690940   -0.00470839623161   -3.31198800118088
C         0.38446650877846   -1.17000629315169   -3.31255499434049
Cl       -1.95494402211016   -0.00808767691631    5.23350834623694
Cl       -3.13453400293270    3.62205440046694    2.87428256889563
Cl        0.35435531374161   -4.54158976054874    2.73983184929370
63
 energy: -142.104095123961 gnorm: 0.057451720075 xtb: 6.4.1 (a3dbbd7)
C        -1.30116151213125    0.00927138504106    3.54458472012651
C        -0.37336051281662   -1.16258544399070    3.29303871057057
C         0.98312341529519   -0.71743282920357    3.27061167585564
C         0.98097107250242    0.71998008034506    3.26650206197087
C        -0.37244768974020    1.18067112769679    3.29952257886322
C         2.33848757566412   -2.57111052940734    0.57821838277708
C         3.19677613401445   -1.41042531996743    0.57502922061579
C         2.95998489506805   -0.69053524245138    1.79749012601317
C         1.95631379950805   -1.41031084804687    2.54427010131769
C         1.60445456755489   -2.57754413644644    1.80764083747704
C         3.19069448744184    1.41469273561281    0.57388896171188
C         2.33877222439915    2.57668063061457    0.57492800514107
C         1.57731092449525    2.56750636288912    1.79892042808885
C         1.95490521312562    1.41144141796799    2.55039215385889
C         2.95631573374837    0.69487709491504    1.79947226058215
C        -0.36523214739008    3.42739488214145    0.57907430689587
C        -1.73019780743078    3.01804682935654    0.58265445021266
C        -2.09636569944588    2.46496447285948    1.94695982218308
C        -0.73177231453298    2.28690350966135    2.58136040033806
C         0.24783182291965    2.97771303112572    1.80278050156074
C        -3.37728114402454    0.70686141834059    0.57474414780993
C        -3.39219482325221   -0.72866507353209    0.56685909979330
C        -2.77370413913690   -1.15702517407739    1.78878890227110
C        -2.39466284241100    0.02786543935805    2.53239551737450
C        -2.75205521678711    1.13426187742047    1.81256956806168
C        -1.73164524366810   -3.00031272283846    0.57345020654870
C        -0.36752624638721   -3.43969041069377    0.56872617785427
C         0.25774965987092   -3.08914533802578    1.86097561618772
C        -0.73990669006342   -2.26019745928071    2.56287202086791
C        -1.96918887308124   -2.27773227800294    1.79463229755176
C        -0.24749225651385   -3.01345472927371   -1.83279216047729
C         0.74813721398008   -2.29125848341950   -2.58364240662711
C         1.97458671802689   -2.29022168135709   -1.82522885383631
C         1.74314124231874   -3.00553188687441   -0.60211141801403
C         0.36374692743797   -3.44202876291111   -0.60251638293681
C         2.79715464166324   -1.16693830286349   -1.83037146610179
C         2.41677079583088   -0.00387832709003   -2.58648202444296
C         2.79888280091323    1.16349367441412   -1.83220126585119
C         3.41667247776171    0.72038806740705   -0.60797614368171
C         3.41733555666078   -0.72023372525469   -0.60785647104787
C         1.98256463557941    2.28653915537803   -1.83059783564668
C         0.75324349942093    2.28604781541453   -2.58616972521301
C        -0.23499375619293    3.00459767728168   -1.82360073227327
C         0.37335231288479    3.44333039825602   -0.60250649730071
C         1.74669365118520    3.00360937674752   -0.60432979473287
C        -1.55611853825966    2.56904746969207   -1.80996019510267
C        -1.93932358906099    1.40735318770902   -2.57236724609601
C        -2.93715838401276    0.68731773867670   -1.82310948931783
C        -3.17061883322502    1.40088378189871   -0.59808618064219
C        -2.30504422818065    2.57488801279929   -0.58597960918641
C        -2.94466322904894   -0.70520548678615   -1.83704310064525
C        -1.94777534628260   -1.42164529527421   -2.59302555938323
C        -1.57072838374144   -2.59106163560576   -1.83733602324168
C        -2.33166073405194   -2.59017543776615   -0.61586586021839
C        -3.18013273932031   -1.42854478724046   -0.61691961359040
C        -0.98876834033633   -0.72476357051193   -3.31384504633286
C        -0.98715523044588    0.71648247812751   -3.30821461373265
C         0.38539499358970    1.16148205214951   -3.31106579813957
C         1.23089616532962   -0.00383181513101   -3.31297752890579
C         0.38369894272718   -1.16848500285998   -3.31303389896755
Cl       -1.95558274831483   -0.00658111970127    5.23456063906394
Cl       -3.13529175116614    3.62546430905350    2.87493458644496
Cl        0.35554898305786   -4.67334805622345    2.81650441608127
63
 energy: -142.110086918898 gnorm: 0.012917302350 xtb: 6.4.1 (a3dbbd7)
C        -1.29921271557536    0.00862405787664    3.53564057921857
C        -0.37428621389873   -1.16762202042187    3.28878056185388
C         0.98348211287786   -0.71778314599381    3.27194597680620
C         0.97945618864242    0.71759944106740    3.26117335475750
C        -0.37371100823896    1.18202121695691    3.29478429284574
C         2.33149937206850   -2.56532771987014    0.58145936371175
C         3.19424949813708   -1.40535743885682    0.57295226787473
C         2.95731718116712   -0.68680852017315    1.79312557864491
C         1.95064942529734   -1.41202530038523    2.53571343994378
C         1.60734234378971   -2.57475110590144    1.80616266486071
C         3.19257129470884    1.41963809863566    0.57169338377458
C         2.33905606748103    2.58063007732792    0.57274014048450
C         1.57661406940800    2.56937681576164    1.79659394498056
C         1.95423918027718    1.41416491929194    2.54741473387195
C         2.95566043554461    0.69832042717105    1.79617707781160
C        -0.36568063828810    3.43021698180117    0.57690419738198
C        -1.73150411487529    3.02191787489877    0.58051425252272
C        -2.09790237894864    2.46898136216924    1.94454427579023
C        -0.73303946332828    2.28892898419888    2.57836398327921
C         0.24682658153074    2.98083535304341    1.80010846162509
C        -3.37862204349296    0.71087858503986    0.57260311265785
C        -3.39149261775753   -0.72487248379214    0.56564730331503
C        -2.77277379025633   -1.15248838141388    1.78773083602036
C        -2.39666332351739    0.03142292366374    2.52905055414558
C        -2.75494097779331    1.13913618501463    1.80989340536921
C        -1.72063465148125   -2.99263142858784    0.57226247335379
C        -0.36830046166860   -3.44413984633997    0.56908880246413
C         0.26057039947394   -3.17287460417471    1.91004831639918
C        -0.74276603770672   -2.26419905509914    2.56775278198568
C        -1.95852795471696   -2.27038000817584    1.79353046633522
C        -0.24728417289618   -3.00562874299749   -1.82804113859473
C         0.74739280177935   -2.28669459645533   -2.58188948228895
C         1.97357515502071   -2.28688723158571   -1.82190541008051
C         1.74487238117263   -3.00524438086486   -0.60272260235595
C         0.36103203933321   -3.43799496433896   -0.59747281177756
C         2.79810245041431   -1.16267840245637   -1.83237425157884
C         2.41701195932334   -0.00103014563015   -2.58775577878577
C         2.79951627871714    1.16772137613739   -1.83458347579210
C         3.41878171267514    0.72527608701937   -0.61051922699406
C         3.41728736819435   -0.71554694186330   -0.60971235236950
C         1.98252549521594    2.28981302111376   -1.83277474935944
C         0.75289292461033    2.28913373150094   -2.58800527055667
C        -0.23523729864992    3.00720123467207   -1.82543087638440
C         0.37288174621852    3.44621847523920   -0.60465815034452
C         1.74633646646640    3.00683601947978   -0.60619308620824
C        -1.55691656757580    2.57239047416696   -1.81219954363098
C        -1.94022732972848    1.41082135459131   -2.57421795118128
C        -2.93862306083387    0.69148860535013   -1.82574927776574
C        -3.17213674040450    1.40522740914006   -0.60103489870403
C        -2.30616529447158    2.57850704902991   -0.58857583109717
C        -2.94640207083205   -0.70139344693575   -1.83922933951721
C        -1.94979772890662   -1.41837345076647   -2.59563272571898
C        -1.57161385359735   -2.58543846323928   -1.83702269465537
C        -2.32852328077755   -2.58480210483840   -0.61702141757907
C        -3.17929154848895   -1.42439069695675   -0.61840021158093
C        -0.98966551903306   -0.72152823939461   -3.31546630609961
C        -0.98757768079612    0.71920467937763   -3.30957620705998
C         0.38533695095571    1.16419371255511   -3.31237626223041
C         1.23064452600990   -0.00064808493713   -3.31476137089429
C         0.38340596595027   -1.16517859649850   -3.31339281898138
Cl       -1.94816562434095   -0.01296953657102    5.22644689918903
Cl       -3.13455042967055    3.63105851733534    2.87410546082488
Cl        0.36140831360869   -4.76993938686971    2.87588253645335
63
 energy: -142.110401005587 gnorm: 0.007861719227 xtb: 6.4.1 (a3dbbd7)
C        -1.29835809928221    0.00688670616010    3.53152679679769
C        -0.37350371116238   -1.17262718493377    3.29025693408470
C         0.98353972895182   -0.71863725016665    3.27427277449396
C         0.97852268591882    0.71621481859535    3.25879073281664
C        -0.37431443645886    1.18091333476723    3.29086742949503
C         2.32827237320801   -2.56725958397262    0.58348326829740
C         3.19014678445631   -1.40479608009697    0.57233726389234
C         2.95291007773666   -0.68680625898416    1.79143023882828
C         1.94732865350460   -1.41558343001802    2.53514989153360
C         1.60313030021344   -2.57604406635303    1.80588809653490
C         3.19223394417146    1.42093636485946    0.57096866850466
C         2.33877434456150    2.58220338431611    0.57183400134814
C         1.57555986307108    2.57000139737604    1.79540174027425
C         1.95277492849176    1.41472882353986    2.54586885025378
C         2.95351753859805    0.69847764714899    1.79455119423171
C        -0.36622709123409    3.43216823099618    0.57552538620774
C        -1.73233910680372    3.02431640767453    0.57904150366326
C        -2.09867698114806    2.47111185530319    1.94298850271341
C        -0.73369866320917    2.28890710167149    2.57588756126772
C         0.24593825086988    2.98218746334289    1.79857441100870
C        -3.37880403298086    0.71285249306222    0.57167501288363
C        -3.38945110954489   -0.72312830934832    0.56518231016502
C        -2.77017983935388   -1.15166669567592    1.78660433825435
C        -2.39641121047940    0.03263809553558    2.52689881518587
C        -2.75596910130410    1.14136564599106    1.80883807672409
C        -1.71581585632587   -2.99182483029061    0.57361119372982
C        -0.36705247572894   -3.45307589325784    0.57400463540213
C         0.26031898366511   -3.19428540672319    1.92200818908443
C        -0.74207716155665   -2.27321987968189    2.57383208777144
C        -1.95386570601285   -2.26949150301941    1.79475557707469
C        -0.24640843290233   -3.00181921400532   -1.82335094914717
C         0.74713629351271   -2.28404191264330   -2.57951403768750
C         1.97352064875600   -2.28586724154106   -1.82053325291651
C         1.74622595920138   -3.00742315062015   -0.60323709301484
C         0.36144493895344   -3.44088265964308   -0.59389428537700
C         2.79781654096640   -1.16123954886007   -1.83306011922495
C         2.41679653663411    0.00023455890820   -2.58835556082037
C         2.79963801305256    1.16941404322220   -1.83559145823622
C         3.41866708276443    0.72656627369709   -0.61127181544662
C         3.41565485467599   -0.71434852352075   -0.60981252600959
C         1.98254325599427    2.29148855137315   -1.83387756772344
C         0.75276232679041    2.29106374298215   -2.58917743639189
C        -0.23547601115060    3.00906713417788   -1.82670267791099
C         0.37258658979832    3.44818981201143   -0.60595255944538
C         1.74611201684311    3.00857869870327   -0.60711399923371
C        -1.55748985834330    2.57467958718570   -1.81372777151516
C        -1.94085836719221    1.41302288036707   -2.57559486433801
C        -2.93929210364048    0.69368116829564   -1.82702914515875
C        -3.17308875681190    1.40754585722029   -0.60230976331186
C        -2.30702206637767    2.58085325468264   -0.59013940104332
C        -2.94630361769932   -0.69942370801935   -1.83978974418130
C        -1.94980327851522   -1.41654053628497   -2.59604082802126
C        -1.57044309337255   -2.58242913328460   -1.83525691712610
C        -2.32525675952389   -2.58183067350300   -0.61519939714400
C        -3.17713376934153   -1.42219085321956   -0.61835885086538
C        -0.98977265087336   -0.71954717867508   -3.31573591960298
C        -0.98785575305932    0.72106071349485   -3.31056165272019
C         0.38523608929664    1.16595024104828   -3.31334714324439
C         1.23047685548806    0.00107445636839   -3.31562490727558
C         0.38336484251908   -1.16340515341694   -3.31273843392802
Cl       -1.94425701364374   -0.01818195572584    5.22358089798142
Cl       -3.13244792126205    3.63615386563206    2.87274926636606
Cl        0.36700482715236   -4.78676021598303    2.88665439157744
63
 energy: -142.110493190362 gnorm: 0.004594516976 xtb: 6.4.1 (a3dbbd7)
C        -1.29844471817489    0.00642139401147    3.52947408129034
C        -0.37294356757189   -1.17445062772710    3.29047210879265
C         0.98338555892688   -0.71838745911243    3.27591105580550
C         0.97805878651586    0.71588054232209    3.25817231007699
C        -0.37459380577836    1.18035851326946    3.28932564291382
C         2.32627912701886   -2.56872636472804    0.58425992758123
C         3.18752295898999   -1.40463758917619    0.57200190676124
C         2.95007885965695   -0.68698067276752    1.79045790478240
C         1.94510651999444   -1.41761173342224    2.53512665478743
C         1.59920093021815   -2.57580850872815    1.80489127048068
C         3.19188441873381    1.42103625582009    0.57092723866723
C         2.33866244512319    2.58260415039054    0.57178854139719
C         1.57499699801940    2.57015090613826    1.79523384041171
C         1.95199185931846    1.41503637209259    2.54553313023176
C         2.95234211179475    0.69823602714184    1.79404748400808
C        -0.36661004547019    3.43278807462834    0.57520535063240
C        -1.73278987335424    3.02498386808456    0.57862986462671
C        -2.09910361416534    2.47190132979855    1.94269358842746
C        -0.73408321033704    2.28900906546996    2.57535152950067
C         0.24543324740541    2.98267134782664    1.79827210657506
C        -3.37907572050462    0.71377995708626    0.57153029025209
C        -3.38817796874551   -0.72231243071475    0.56484482507323
C        -2.76852024283089   -1.15116420217153    1.78564716410906
C        -2.39643375762876    0.03323750187788    2.52585195118037
C        -2.75717459356162    1.14261538905751    1.80879714886466
C        -1.71307702361896   -2.99084499968186    0.57399557325372
C        -0.36595997244341   -3.45765278033902    0.57676508696160
C         0.26008432942924   -3.20287510719198    1.92651839105004
C        -0.74129490308405   -2.27814891404449    2.57702048361159
C        -1.95109822385988   -2.26841529034217    1.79517390502297
C        -0.24605105092299   -2.99999866419221   -1.82096119339018
C         0.74704736006166   -2.28284427311668   -2.57825179712971
C         1.97385331831723   -2.28583919432952   -1.82045882250218
C         1.74731205560271   -3.00895167214442   -0.60430719916717
C         0.36184550290882   -3.44221357780228   -0.59238701570091
C         2.79777996183862   -1.16095850022249   -1.83362698882375
C         2.41676583698273    0.00040855063694   -2.58870122153530
C         2.79974436136279    1.16970716858630   -1.83590478744801
C         3.41843358715762    0.72660684952881   -0.61134828680617
C         3.41486526326422   -0.71418937068002   -0.60978135088990
C         1.98256121151960    2.29171769780668   -1.83407602185224
C         0.75270275411727    2.29147707062294   -2.58945115007018
C        -0.23559128940699    3.00937458433021   -1.82695088808224
C         0.37240623923379    3.44862443404688   -0.60620493839583
C         1.74598638752250    3.00890477250613   -0.60717779864480
C        -1.55779968958671    2.57534189859235   -1.81423052629153
C        -1.94121398143373    1.41374804552714   -2.57618556783198
C        -2.93977516793791    0.69444030830804   -1.82762993110729
C        -3.17379075977965    1.40838751217602   -0.60276830450394
C        -2.30748796951254    2.58154859840411   -0.59063196989831
C        -2.94629818919468   -0.69876090304360   -1.84029606535123
C        -1.94984334501980   -1.41582064933726   -2.59650066337137
C        -1.56978405565986   -2.58117656340262   -1.83465344753907
C        -2.32332434631486   -2.57999155510932   -0.61419224722246
C        -3.17585595574155   -1.42108674114511   -0.61838277859317
C        -0.98977307495802   -0.71879217796708   -3.31589141301623
C        -0.98800337033402    0.72168707184097   -3.31108458950494
C         0.38520025033704    1.16643822907551   -3.31378011873148
C         1.23045170271732    0.00152489934200   -3.31611599367025
C         0.38341578415623   -1.16290050960621   -3.31258201539605
Cl       -1.94252384769279   -0.02073184708703    5.22268578222828
Cl       -3.13065550852165    3.63959149873670    2.87214844847199
Cl        0.37205520842423   -4.78781042750841    2.88790046502347
63
 energy: -142.110531355692 gnorm: 0.002559551534 xtb: 6.4.1 (a3dbbd7)
C        -1.29871428005956    0.00643777324813    3.52875466772682
C        -0.37273304393196   -1.17459916377523    3.28997764293692
C         0.98308931705745   -0.71788093374903    3.27667615808774
C         0.97787054325082    0.71599405103185    3.25856207480807
C        -0.37474348353210    1.18023235996561    3.28924672019725
C         2.32522703078597   -2.56905767036939    0.58429813712622
C         3.18657106368417   -1.40457673297886    0.57193961757922
C         2.94904492739978   -0.68708283553106    1.79010717774844
C         1.94396129285434   -1.41821850337926    2.53495755403978
C         1.59667291665423   -2.57457307389728    1.80371394184665
C         3.19166516620328    1.42067530482079    0.57117561835958
C         2.33863629270913    2.58240802990843    0.57206074030965
C         1.57482586112476    2.57005153998631    1.79552496790593
C         1.95173393849629    1.41517092143608    2.54586740567684
C         2.95202090451191    0.69798572232444    1.79421896722793
C        -0.36671875849229    3.43267461583602    0.57532240354429
C        -1.73287401745568    3.02480156103203    0.57865352413912
C        -2.09926263081717    2.47195071150445    1.94283064645050
C        -0.73427988158963    2.28909530176310    2.57560757466731
C         0.24525857555877    2.98270660912747    1.79850063940475
C        -3.37927665144213    0.71407686933115    0.57172661388894
C        -3.38772795297569   -0.72206414210795    0.56473041083943
C        -2.76801064547774   -1.15092679652210    1.78523232201283
C        -2.39653453540244    0.03339014458723    2.52562072456911
C        -2.75797261404213    1.14310080027646    1.80911491592764
C        -1.71208521291980   -2.98997058185654    0.57380421416361
C        -0.36547200556597   -3.45843538448448    0.57748648586359
C         0.26012761780145   -3.20557120369587    1.92779814428263
C        -0.74097326478796   -2.27958373361156    2.57786922257786
C        -1.94999587578034   -2.26753077341919    1.79513281116150
C        -0.24611264047747   -2.99955636688961   -1.82029830714358
C         0.74702065850224   -2.28273237784353   -2.57795460583218
C         1.97414961179702   -2.28625418465441   -1.82085279749880
C         1.74779935118670   -3.00954949230492   -0.60513122651758
C         0.36187204352473   -3.44216185035318   -0.59216100899233
C         2.79786335082592   -1.16120700143696   -1.83393190535853
C         2.41682699739537    0.00009473894399   -2.58874896047539
C         2.79979991950462    1.16940210411263   -1.83580615454514
C         3.41827346946004    0.72620491663870   -0.61112560341989
C         3.41478389515236   -0.71444328219310   -0.60971708326130
C         1.98259780945536    2.29133193360684   -1.83385728061595
C         0.75273550944927    2.29116308099489   -2.58927837696900
C        -0.23554048367641    3.00901066022115   -1.82676366494082
C         0.37239777635290    3.44832571729400   -0.60603371144826
C         1.74596627486701    3.00856643631957   -0.60691791229365
C        -1.55781472269256    2.57518710050590   -1.81420889981748
C        -1.94126994260874    1.41365552989707   -2.57621308132417
C        -2.93996382974576    0.69442912461650   -1.82774241828630
C        -3.17406844579529    1.40841199481164   -0.60280250626600
C        -2.30756857627951    2.58141463473663   -0.59062648696986
C        -2.94640557605915   -0.69879609117816   -1.84058903376097
C        -1.95001206554555   -1.41579107728692   -2.59683228446525
C        -1.56971547956069   -2.58103912874047   -1.83472526486439
C        -2.32279415793817   -2.57929888852891   -0.61390330729492
C        -3.17551286166327   -1.42076723851457   -0.61840909084612
C        -0.98977283151716   -0.71879689384582   -3.31589407703065
C        -0.98800411224348    0.72158790083857   -3.31116039130016
C         0.38523923404365    1.16625239358715   -3.31379016798473
C         1.23048701330799    0.00130755464802   -3.31621531596181
C         0.38346775253504   -1.16310029764382   -3.31268239139975
Cl       -1.94216056898097   -0.02172571123058    5.22272066447314
Cl       -3.12969806696202    3.64123169147987    2.87195070878445
Cl        0.37610519408857   -4.78288183916788    2.88532985894299
63
 energy: -142.110544177791 gnorm: 0.001461203630 xtb: 6.4.1 (a3dbbd7)
C        -1.29884946492715    0.00653736761544    3.52884837041222
C        -0.37283361882768   -1.17420831096146    3.28961430727010
C         0.98286538339435   -0.71765899850650    3.27676704204906
C         0.97786897832127    0.71616161891417    3.25914276156182
C        -0.37480426177595    1.18034161777429    3.28975136839993
C         2.32505779985632   -2.56868668870851    0.58405558293399
C         3.18684926233343   -1.40460128753504    0.57204644274575
C         2.94935810158861   -0.68710656733756    1.79022542365032
C         1.94384154158296   -1.41791006282319    2.53477224334861
C         1.59600396310784   -2.57346587926216    1.80305065117628
C         3.19166568458485    1.42037640392581    0.57137126642078
C         2.33867456364743    2.58210647301124    0.57226212101889
C         1.57492230229268    2.56989652022325    1.79580374060132
C         1.95182518843481    1.41515065935446    2.54627485255104
C         2.95221286696427    0.69788316017013    1.79454838283476
C        -0.36661954674812    3.43240209528936    0.57550399653572
C        -1.73274875928461    3.02449118442434    0.57876819296773
C        -2.09920623397071    2.47171828410331    1.94295027772978
C        -0.73429569786932    2.28910669239013    2.57592708297046
C         0.24533003504738    2.98259025207989    1.79876822860660
C        -3.37934595052373    0.71401603551131    0.57188271187125
C        -3.38791362330543   -0.72213739052588    0.56475413254874
C        -2.76835848582454   -1.15094060693193    1.78531853247324
C        -2.39664110493718    0.03329732877610    2.52581457452845
C        -2.75810586444496    1.14303808598127    1.80929390429396
C        -1.71237981263507   -2.98973794060004    0.57356450717340
C        -0.36562413722079   -3.45746484878531    0.57703503758247
C         0.26030740977530   -3.20561059347869    1.92777596889813
C        -0.74121806849383   -2.27899723535438    2.57750243651194
C        -1.95023917419758   -2.26733097756684    1.79503801646167
C        -0.24631275597489   -2.99986986570612   -1.82061055144924
C         0.74701601736108   -2.28312805216352   -2.57821612108154
C         1.97421375254281   -2.28663759678924   -1.82114325485490
C         1.74773076335492   -3.00951174408230   -0.60531899438884
C         0.36164746396119   -3.44176577377507   -0.59247098207386
C         2.79793136984104   -1.16151614691898   -1.83395264089528
C         2.41689473994882   -0.00021378938296   -2.58863550982786
C         2.79981642322846    1.16908736565783   -1.83561494699049
C         3.41828757711834    0.72590467083407   -0.61094464418452
C         3.41501323393296   -0.71470637713611   -0.60969445715585
C         1.98265129477371    2.29099582207760   -1.83363807716732
C         0.75280953407548    2.29082820576172   -2.58906999460155
C        -0.23542639791293    3.00870390499318   -1.82657140279744
C         0.37249424898917    3.44800488667323   -0.60584456765926
C         1.74603399995348    3.00822572730437   -0.60672078694764
C        -1.55769104724231    2.57491415303089   -1.81405633416157
C        -1.94116837933616    1.41339344885186   -2.57603984441358
C        -2.93992239583440    0.69421991580941   -1.82763391879859
C        -3.17401808173003    1.40819380769750   -0.60271408494786
C        -2.30744877122022    2.58114958105412   -0.59049716722919
C        -2.94652018635038   -0.69900896855048   -1.84062712968510
C        -1.95016736743514   -1.41600371303594   -2.59690454661963
C        -1.56995164483547   -2.58135261685233   -1.83496705284671
C        -2.32316901868217   -2.57947617311504   -0.61404594934640
C        -3.17579405823332   -1.42089900484379   -0.61843453367834
C        -0.98979582143106   -0.71905245902759   -3.31583131716662
C        -0.98793882105481    0.72131904788591   -3.31102562593023
C         0.38530196408061    1.16596594545542   -3.31363523484563
C         1.23052919597754    0.00099539690626   -3.31610905870270
C         0.38347628371314   -1.16342144746915   -3.31279612668768
Cl       -1.94249709469491   -0.02177196939143    5.22300476192266
Cl       -3.12968343069664    3.64126579023166    2.87195441432476