63
 energy: -142.112756384674 gnorm: 0.000109162336 xtb: 6.4.1 (a3dbbd7)
C        -1.30044393764869    0.00280221156842    3.54742139588260
C        -0.37335441966812   -1.17450780088608    3.30780465253933
C         0.97711692959284   -0.72570868101035    3.27778182316286
C         0.97564026657711    0.71671529787939    3.26843349156593
C        -0.37518488709684    1.17806384897272    3.30507052304021
C         2.32773186151257   -2.58874122311131    0.58549880842168
C         3.17605562147335   -1.42178306570837    0.58522759302796
C         2.94300525991711   -0.70728010463848    1.80509246650362
C         1.94774817498620   -1.42471748398325    2.56301915453069
C         1.57304710145333   -2.58676751731721    1.81186954782603
C         3.17885366856544    1.39762521426465    0.57015743415901
C         2.33453746590297    2.57801114570459    0.57963759541610
C         1.57199551503538    2.56314845210964    1.79302063121744
C         1.94506566478655    1.40252796507420    2.54552491377036
C         2.93915543307907    0.68118687374541    1.79520447557219
C        -0.37624609699453    3.42900676214451    0.58480142168141
C        -1.74023104063395    3.01976012641305    0.58928603836791
C        -2.10215267370798    2.46302448282022    1.95363027569322
C        -0.73491011931952    2.28661942719887    2.58491866551769
C         0.23958603164920    2.97806791834219    1.80784631872111
C        -3.37966348336846    0.70180506497245    0.57869635793790
C        -3.39431764088919   -0.73472517065230    0.57163262858407
C        -2.77262859018872   -1.16502437430242    1.79049288144727
C        -2.39336548978789    0.02332064195944    2.53494928531128
C        -2.75273232763591    1.12907467862101    1.81777135493411
C        -1.74119795313114   -3.01432669869226    0.58398037536624
C        -0.36925134766059   -3.45342172966570    0.58741349342858
C         0.24465695341986   -3.00083056327469    1.81198131102899
C        -0.73592471476031   -2.27759325686565    2.56854057981281
C        -1.97743953274438   -2.29082524293254    1.80250508381010
C        -0.25094688963892   -3.02431345758254   -1.82214464904373
C         0.74423886924564   -2.30158635113679   -2.57508088752370
C         1.96240278213893   -2.29603736618024   -1.81921201252327
C         1.73247449403291   -3.01470497203240   -0.59389073060173
C         0.36118141625656   -3.46271873456314   -0.59203674991791
C         2.77136047697688   -1.15827825267772   -1.82194772152473
C         2.41873961873919   -0.01597244909115   -2.59364870135026
C         2.99209995693647    1.22913926878949   -1.95350209145559
C         3.42438319386698    0.71085889810673   -0.59931772122320
C         3.38984715249136   -0.71375940538231   -0.59687897062472
C         1.96881680325158    2.29919145477470   -1.82915307242915
C         0.75520793124888    2.27713148674556   -2.56332640112664
C        -0.24642078849575    3.00276798168819   -1.81244409449388
C         0.35916892827136    3.44046994067244   -0.59684980037967
C         1.73400064026136    2.98513786276506   -0.60978959141524
C        -1.56553577142422    2.56853273398809   -1.80248310110499
C        -1.94735242129830    1.40545389335940   -2.56665974670682
C        -2.93931815637177    0.68408983058296   -1.81886382479100
C        -3.17652486883245    1.39670775394739   -0.59199016399057
C        -2.31477671642519    2.57521668368150   -0.57936574547497
C        -2.94639526073765   -0.71071487974431   -1.83126590407920
C        -1.94738596221159   -1.42574256487762   -2.58533837922220
C        -1.57048753668652   -2.59643798585587   -1.82733015165632
C        -2.33330209419893   -2.59635356981578   -0.60588450769740
C        -3.18173267701718   -1.43349187390610   -0.61196968295241
C        -0.98756181140049   -0.72773024653229   -3.30212776819267
C        -0.98375392334491    0.71597662660001   -3.29922115926265
C         0.37879604816302    1.16059422566155   -3.31223515574611
C         1.23201336478242   -0.01083279309423   -3.29729340362422
C         0.38278362011295   -1.17190603346698   -3.29814737353472
Cl       -1.96065237447572   -0.00998722171215    5.23552312861553
Cl       -3.14288805322370    3.61634789119064    2.88630560992729
Cl        4.44315430228492    1.83162139499796   -2.90517295771633
