63
 energy: -142.082370439853 gnorm: 0.136801945050 xtb: 6.4.1 (a3dbbd7)
C        -1.29585809770389    0.00401118895665    3.54517689253707
C        -0.36796043462932   -1.17243305037605    3.30515820978008
C         0.98298838983527   -0.72191219207564    3.27512267938171
C         0.98156472667820    0.71960753568128    3.26971969810914
C        -0.37066843460465    1.17924059903467    3.30150764336582
C         2.33648296603916   -2.58548060331365    0.57950289353032
C         3.18657767574002   -1.41946403927647    0.57781419519059
C         2.94957050639235   -0.69854930596759    1.80123308070154
C         1.95308396824160   -1.41752165468763    2.55613481575760
C         1.57961582989334   -2.57968580837377    1.80518673242103
C         3.18767024140451    1.40991878522763    0.57593180000620
C         2.33807592116844    2.57402574447607    0.57591940981122
C         1.57683795432701    2.56605672107525    1.79975339071644
C         1.95304946465436    1.40835201077487    2.55205927518980
C         2.95072023087345    0.68875745016373    1.80098024572921
C        -0.36516779407368    3.42666371337356    0.57921714423118
C        -1.72924376763824    3.01648005769000    0.58287705261872
C        -2.09463355992581    2.46231283092052    1.94730853815858
C        -0.73027134402217    2.28553619303067    2.58224921102021
C         0.24829448349984    2.97593693112150    1.80334175266563
C        -3.37466967425340    0.70300551354290    0.57574930054980
C        -3.39003092747716   -0.73268815647906    0.56838248265369
C        -2.76818811332164   -1.16356142379097    1.78871572221350
C        -2.38904763706855    0.02437925876362    2.53264263719760
C        -2.74834472563595    1.12995086275151    1.81420011519069
C        -1.73481952350512   -3.00995345714269    0.57938225060336
C        -0.36149853481650   -3.44686666227317    0.58178847315895
C         0.25217194581416   -2.99475012292755    1.80551621994623
C        -0.72930832442940   -2.27346636839910    2.56467955448571
C        -1.97147545426586   -2.28746259170963    1.79868366133100
C        -0.24419850626392   -3.01431906333444   -1.82647673840836
C         0.74940205407495   -2.29291975825760   -2.58286291053874
C         1.97453700933417   -2.29239152843074   -1.82543977586922
C         1.74139873400736   -3.01127177410490   -0.59946235558356
C         0.36858334367966   -3.45436466613801   -0.59762914044760
C         2.79442417392884   -1.17031401259636   -1.82833550603033
C         2.41574661888024   -0.00512369156855   -2.58546959716668
C         2.79806943075341    1.16104826420258   -1.83045397172065
C         3.41356646771945    0.71553904943849   -0.60565027142670
C         3.41126633561149   -0.72579612454708   -0.60436594395851
C         1.98256115248497    2.28538932455247   -1.82964816243281
C         0.75350030257848    2.28551308199782   -2.58573232036207
C        -0.23508280213456    3.00436687409655   -1.82344140492918
C         0.37359850932028    3.44286488622179   -0.60220138863872
C         1.74684322376492    3.00246743943424   -0.60372642363492
C        -1.55566653231806    2.56818250386052   -1.80941223575869
C        -1.93859434646944    1.40592010794080   -2.57168095880615
C        -2.93551210457882    0.68461262535792   -1.82146846772098
C        -3.16898901542976    1.39767486975662   -0.59605965548237
C        -2.30435127723071    2.57332623923171   -0.58497549467516
C        -2.94114405309208   -0.70773319324488   -1.83440725641731
C        -1.94505174577217   -1.42387954875747   -2.59102123506710
C        -1.56548890447542   -2.59170746585215   -1.83211639425372
C        -2.32839595515909   -2.59312664323360   -0.60918315818311
C        -3.17773883494341   -1.43218193772331   -0.61434027474195
C        -0.98775846759569   -0.72638522820754   -3.31322849837523
C        -0.98659864719709    0.71557045430270   -3.30737103326374
C         0.38544609985482    1.16109326139683   -3.31071431261235
C         1.23106807703669   -0.00470839638716   -3.31198800126459
C         0.38446650889097   -1.17000629330740   -3.31255499443923
Cl       -1.95494402230001   -0.00808767739961    5.23350834621500
Cl       -3.13453400437008    3.62205440029917    2.87428256883422
Cl        4.23483920621205    1.74143062985930   -2.76584101565661
63
 energy: -142.106399797177 gnorm: 0.058794612181 xtb: 6.4.1 (a3dbbd7)
C        -1.29629154185903    0.00385925826425    3.54519703464383
C        -0.36888793706329   -1.17304294066820    3.30554718327449
C         0.98172851866549   -0.72338901226774    3.27594552994855
C         0.98020564617319    0.71846763315531    3.26968239031527
C        -0.37127838285147    1.17931235035236    3.30246247023545
C         2.33448437135004   -2.58964818224338    0.58271568239858
C         3.18536327152913   -1.42455460862352    0.58536050187092
C         2.95072231570307   -0.70426601963520    1.80672587863183
C         1.95186175039541   -1.42094593545327    2.55877410930804
C         1.57814590346436   -2.58343922242460    1.80802402724206
C         3.17736368444530    1.40077734627315    0.57996599492765
C         2.33201921334486    2.57355304770075    0.57751137247767
C         1.57475830613679    2.56529161509147    1.79835574428791
C         1.95160782456834    1.40636012472666    2.55169243210173
C         2.95073702044445    0.68476139189325    1.80668309546559
C        -0.37219696973417    3.43148337903876    0.58292339048534
C        -1.73464943497822    3.01812747320192    0.58572235779671
C        -2.09706522601548    2.46265493170626    1.94975139639393
C        -0.73174817333879    2.28684528475814    2.58319789862477
C         0.24432340118857    2.97838078765339    1.80507899788714
C        -3.37575022321499    0.70260386410507    0.57650791305157
C        -3.39043240016505   -0.73334725790138    0.56879478454581
C        -2.76888892669336   -1.16395972088920    1.78863464104203
C        -2.38949282475142    0.02403485561038    2.53277796686216
C        -2.74918479724136    1.12970510112525    1.81511040810825
C        -1.73601320189895   -3.01110810001683    0.58019501038511
C        -0.36345305080844   -3.44894570109077    0.58322717075895
C         0.25024165398363   -2.99683131281538    1.80723671235546
C        -0.73075488675877   -2.27463349177174    2.56513694341708
C        -1.97248063668409   -2.28853994917147    1.79919112412396
C        -0.24608156299387   -3.01887045973614   -1.82519890679454
C         0.74759994310522   -2.30106418740500   -2.58298220141275
C         1.96962524416292   -2.30046240148679   -1.82504795915923
C         1.73900118591318   -3.01576585841079   -0.59725037621694
C         0.36645830385366   -3.45862623232349   -0.59600866434236
C         2.78330965563141   -1.17146599762356   -1.82308737820004
C         2.40549824362671   -0.01817295285445   -2.58224116839992
C         2.88518492853359    1.19481065719348   -1.88672357392484
C         3.40815224411673    0.70631114043951   -0.59293420227819
C         3.40107286413244   -0.72663601444653   -0.59787895350331
C         1.97272812814093    2.30951004283399   -1.83391964866292
C         0.74549453288071    2.28651167028674   -2.57334342458004
C        -0.24616583628541    3.01180453333812   -1.81894569492443
C         0.36156505458310    3.45016039445361   -0.59947769926549
C         1.73243977653814    2.99924066744945   -0.60356534054378
C        -1.56343602893549    2.57160145733067   -1.80731966401983
C        -1.94287390242309    1.40718598177483   -2.56999154026149
C        -2.93705651820140    0.68506561583774   -1.82102994524395
C        -3.17158223058456    1.39733910326376   -0.59473590121358
C        -2.30968979492203    2.57479480113698   -0.58230839414616
C        -2.94252042186979   -0.70863448721609   -1.83415786094812
C        -1.94567945825643   -1.42487578985442   -2.58960055758328
C        -1.56655259486517   -2.59358729152820   -1.83106896614625
C        -2.32917889802485   -2.59418966979688   -0.60886386505925
C        -3.17807286368635   -1.43236367741371   -0.61441627882070
C        -0.98828812518356   -0.72805557687735   -3.31118758093512
C        -0.98666151017609    0.71548059159325   -3.30482486583602
C         0.38037173170738    1.16056331309615   -3.30685995518247
C         1.22382092671084   -0.01201722666310   -3.30154549354079
C         0.38124499121127   -1.17670005384391   -3.31286502596324
Cl       -1.95533632619312   -0.00813954037538    5.23343778153802
Cl       -3.13686698771424    3.62203200927333    2.87667080925817
Cl        4.35826702412427    1.78082541752067   -2.84239057121951
63
 energy: -142.112304475777 gnorm: 0.013417612648 xtb: 6.4.1 (a3dbbd7)
C        -1.29891851686011    0.00297028929644    3.54647259190180
C        -0.37147390142527   -1.17388617866418    3.30653087446426
C         0.97917044681008   -0.72503379786821    3.27747907781222
C         0.97727997808245    0.71721889591385    3.26949688235242
C        -0.37393571179817    1.17831324488164    3.30383432982904
C         2.33104024816575   -2.59030226379229    0.58481786428682
C         3.18081915533427   -1.42397314064891    0.58735657279735
C         2.94655586877595   -0.70712432272992    1.80684695084989
C         1.94961648621419   -1.42374343469361    2.56164614485110
C         1.57512610773875   -2.58594553185203    1.81035013861164
C         3.17493546288832    1.39657434585597    0.57483559958236
C         2.33138938612427    2.57495543477850    0.57760011385847
C         1.57208299513065    2.56303615325085    1.79420945694960
C         1.94772788352193    1.40409904669919    2.54915494492528
C         2.94389725019223    0.68228687465891    1.80194691291261
C        -0.37621893481515    3.43090159838996    0.58480256095845
C        -1.73942935709277    3.01908491253074    0.58843523035409
C        -2.10107975250039    2.46237107539665    1.95238622070947
C        -0.73451897222833    2.28650597082860    2.58412029078447
C         0.24019697716481    2.97832782306416    1.80665166475120
C        -3.37869501136767    0.70175055082400    0.57842325658777
C        -3.39295963524867   -0.73449890289333    0.57076807581385
C        -2.77132214883968   -1.16486757108458    1.78983857432934
C        -2.39223783932195    0.02323725352719    2.53443425416986
C        -2.75219747948391    1.12898617822709    1.81744441020340
C        -1.73894359331268   -3.01284155679791    0.58236415328531
C        -0.36691516540600   -3.45142473252070    0.58571055736754
C         0.24678950024582   -2.99911899469984    1.80986780565915
C        -0.73386438224627   -2.27630599253957    2.56681155759945
C        -1.97538423853942   -2.29001961777959    1.80105917055810
C        -0.24898334172186   -3.02281427076396   -1.82351191594190
C         0.74537924300389   -2.30282868505766   -2.57851730902766
C         1.96475582652778   -2.29999518378099   -1.82262794654857
C         1.73548743198607   -3.01647299801173   -0.59529463849425
C         0.36339783452768   -3.46146192022646   -0.59353443347545
C         2.77386005437475   -1.16361504718529   -1.82107139812403
C         2.40812040988314   -0.02007798409200   -2.58544879846396
C         2.96279077151813    1.22163300842473   -1.93573750498103
C         3.41277848876029    0.70601227774315   -0.59267709202919
C         3.39207087371462   -0.71904205696876   -0.59601911683914
C         1.96817202708443    2.31078697645916   -1.83267267218173
C         0.74891643429719    2.28187710635970   -2.56435456476748
C        -0.24869544882288    3.00885903421069   -1.81467829022540
C         0.35776732760396    3.44684228700157   -0.59755142312359
C         1.72937797833502    2.99043349114458   -0.60732216543493
C        -1.56650785396678    2.57055151981356   -1.80399500201358
C        -1.94641707200548    1.40665429056803   -2.56720132960512
C        -2.93892347834798    0.68460900905291   -1.81920292864572
C        -3.17522030119345    1.39662779713613   -0.59234527743940
C        -2.31442560036979    2.57537789520387   -0.57987386032558
C        -2.94510784586342   -0.70997058595837   -1.83216092473761
C        -1.94721096947046   -1.42566749382357   -2.58704712486494
C        -1.56902887785763   -2.59572293731982   -1.82914394178838
C        -2.33134811308305   -2.59535023355738   -0.60718258031914
C        -3.18019939038514   -1.43301777752717   -0.61284971093234
C        -0.98871933578043   -0.72833714518766   -3.30636451954549
C        -0.98463890152910    0.71578122187438   -3.29995437303491
C         0.37928699094675    1.16083590107539   -3.30732411076635
C         1.22671471494103   -0.01263337669821   -3.29551783248751
C         0.38078163011362   -1.17509432897795   -3.30474899648132
Cl       -1.95746202475824   -0.00894057257843    5.23498095848829
Cl       -3.14038086238494    3.62027410982510    2.88146035623366
Cl        4.44586426001204    1.81553003091355   -2.89973867575702
63
 energy: -142.112606904393 gnorm: 0.008006070334 xtb: 6.4.1 (a3dbbd7)
C        -1.30044039683932    0.00256772169138    3.54731931764291
C        -0.37312933909588   -1.17448640171100    3.30744589395513
C         0.97747264284021   -0.72558747502340    3.27779276765729
C         0.97568820076855    0.71670144877607    3.26863473965467
C        -0.37532146934763    1.17788906857931    3.30460241118152
C         2.32878450310174   -2.58918212900493    0.58525653735578
C         3.17793246199484   -1.42232948389875    0.58597483440528
C         2.94379887305299   -0.70713595322515    1.80533466931250
C         1.94806831710686   -1.42425093732796    2.56232260824507
C         1.57338445696501   -2.58642651545715    1.81118540379283
C         3.17781408095454    1.39752122503806    0.57131763534517
C         2.33307199312991    2.57659163811009    0.57795707704554
C         1.57130018353225    2.56255477565007    1.79263801534288
C         1.94552561806360    1.40299398782622    2.54662136494281
C         2.94043847643654    0.68180624142080    1.79740292599144
C        -0.37677202406341    3.42935720545626    0.58491184036430
C        -1.74064256375099    3.01922512242186    0.58933117689515
C        -2.10252199872922    2.46238297448373    1.95354002161803
C        -0.73548678166754    2.28623751792878    2.58474573301682
C         0.23914095566713    2.97781176195696    1.80723030911165
C        -3.38017632581581    0.70148600624857    0.57917457999257
C        -3.39452806587966   -0.73495550333215    0.57179889216962
C        -2.77285946898759   -1.16531475703842    1.79071372383260
C        -2.39377471740476    0.02293084723861    2.53530895750491
C        -2.75351902728580    1.12877753084833    1.81832800620884
C        -1.74081644121316   -3.01399007168746    0.58371002303288
C        -0.36876087706769   -3.45273974332706    0.58704072039795
C         0.24502211874859   -3.00025116409944    1.81133871313687
C        -0.73567183259684   -2.27734152387749    2.56815060562310
C        -1.97721676017236   -2.29080709367923    1.80230545258233
C        -0.25033884391532   -3.02358588095725   -1.82237653909823
C         0.74461678082994   -2.30171280865206   -2.57585832060647
C         1.96329491274490   -2.29731896025156   -1.82066278690610
C         1.73344130993525   -3.01523677007756   -0.59435743631708
C         0.36181220346886   -3.46211401852975   -0.59226031072920
C         2.77287613858214   -1.15990797891379   -1.82199231853680
C         2.41553941041185   -0.01746796438952   -2.59119240583907
C         2.98234792724284    1.22659973867364   -1.94758155912795
C         3.42094259827197    0.70922745539527   -0.59717953172446
C         3.39123836257910   -0.71536305821868   -0.59700639040629
C         1.96981556066157    2.30625903431891   -1.83210418170769
C         0.75294995799983    2.27964335985934   -2.56376847605324
C        -0.24746133960699    3.00510867601345   -1.81329108996714
C         0.35850115171970    3.44293826164431   -0.59702910543338
C         1.73216343231653    2.98766328402726   -0.60940867861409
C        -1.56620268920716    2.56904780624041   -1.80252720224118
C        -1.94714655730601    1.40583649658194   -2.56612077196826
C        -2.93954309754050    0.68409768670790   -1.81835640634669
C        -3.17663501638490    1.39638224947957   -0.59154228992158
C        -2.31542826743390    2.57515608551943   -0.57912185470362
C        -2.94627067706547   -0.71059387092025   -1.83105254598504
C        -1.94749652328722   -1.42568535987727   -2.58536525582453
C        -1.57024419085555   -2.59630697451144   -1.82773311017383
C        -2.33290700793528   -2.59612776217652   -0.60602856482459
C        -3.18161184684318   -1.43352464830245   -0.61185855296647
C        -0.98811659004196   -0.72783848060620   -3.30314671827144
C        -0.98381826697589    0.71599001966292   -3.29836879571272
C         0.37953345354292    1.16097772996919   -3.30961255929399
C         1.23064336986264   -0.01116076799196   -3.29679985697019
C         0.38190307407916   -1.17269444905690   -3.30018913763569
Cl       -1.95938653723065   -0.00984532972407    5.23578325075998
Cl       -3.14242137366403    3.61779424358608    2.88513726775627
Cl        4.45839037459255    1.82490360314223   -2.90999562653218
63
 energy: -142.112702583423 gnorm: 0.004601610350 xtb: 6.4.1 (a3dbbd7)
C        -1.30086263728068    0.00252633644026    3.54768263674348
C        -0.37369752955653   -1.17472763902517    3.30796060691959
C         0.97680200528494   -0.72578152104051    3.27791678502083
C         0.97517194335871    0.71656214729881    3.26829993339442
C        -0.37567028721634    1.17786644275199    3.30513367683447
C         2.32754522159795   -2.58850946478887    0.58546976217963
C         3.17597452292470   -1.42141244115660    0.58508014293721
C         2.94253886633180   -0.70706233058423    1.80472013756562
C         1.94744213545020   -1.42453613300845    2.56286533275318
C         1.57275926119203   -2.58668568508502    1.81178230722573
C         3.17919407816458    1.39815189427590    0.56974661114837
C         2.33425391345038    2.57792764278865    0.57897860712408
C         1.57126430044852    2.56277700713868    1.79243367389928
C         1.94449771539215    1.40243894491526    2.54521400372114
C         2.93873608320948    0.68145662284161    1.79493797201930
C        -0.37670434537685    3.42868021640434    0.58488504243420
C        -1.74081961036281    3.01955721814356    0.58958357062067
C        -2.10271328648832    2.46273328857876    1.95396465490956
C        -0.73550953487440    2.28636869679346    2.58516000955120
C         0.23902112337492    2.97780901111189    1.80775888197817
C        -3.38036308873383    0.70153293496548    0.57913020966147
C        -3.39486208847203   -0.73502139899970    0.57200465457905
C        -2.77309818196374   -1.16533948618700    1.79083979561414
C        -2.39392540766601    0.02300148647724    2.53534993355923
C        -2.75340272563928    1.12884770973305    1.81824802826181
C        -1.74151966758034   -3.01458115502892    0.58422637921947
C        -0.36947583096881   -3.45354027076411    0.58759214729189
C         0.24442642678910   -3.00093370032640    1.81210446579215
C        -0.73624544403037   -2.27782825834048    2.56877623844000
C        -1.97777561913369   -2.29108778163568    1.80275509057934
C        -0.25108402719011   -3.02407894716204   -1.82194208609619
C         0.74415238942839   -2.30116438261354   -2.57469826489872
C         1.96234173212658   -2.29565664032854   -1.81927123100939
C         1.73231235400617   -3.01447606213867   -0.59385486759102
C         0.36104220829947   -3.46257810835429   -0.59182695927510
C         2.77188485116195   -1.15796342185821   -1.82228230590213
C         2.41950687865031   -0.01559594699563   -2.59430927687721
C         2.99053870560129    1.22830686883884   -1.95243530068694
C         3.42520717192813    0.71132268381381   -0.59982288160831
C         3.39033293723435   -0.71343543368581   -0.59729122518842
C         1.97029531545793    2.30181908014949   -1.83085521555597
C         0.75534059595534    2.27796229917561   -2.56378150930758
C        -0.24653520001370    3.00262351289623   -1.81245025772133
C         0.35912101653208    3.44034634322812   -0.59672050065237
C         1.73419601045030    2.98597636639791   -0.61023919739567
C        -1.56577586861666    2.56829777873639   -1.80202458418899
C        -1.94750565529845    1.40538805473724   -2.56604098712304
C        -2.93971239726568    0.68388029660367   -1.81835100373812
C        -3.17704018618329    1.39645076110752   -0.59156833032854
C        -2.31541336525707    2.57509831003297   -0.57901878132314
C        -2.94672801828687   -0.71087621669709   -1.83083171022461
C        -1.94758566808749   -1.42573009982076   -2.58485343406810
C        -1.57077339415310   -2.59653968239760   -1.82713245638137
C        -2.33360175879126   -2.59656135122223   -0.60561501727164
C        -3.18212621311907   -1.43375035646785   -0.61161913760774
C        -0.98769357502112   -0.72754468780099   -3.30153245744076
C        -0.98372423843839    0.71609002985192   -3.29827355646438
C         0.37911016805106    1.16091331767801   -3.31164519275296
C         1.23238120988685   -0.01036301078830   -3.29762803249182
C         0.38262195406768   -1.17148938772391   -3.29783328580045
Cl       -1.96063766936165   -0.01030914707972    5.23591948555631
Cl       -3.14353547945180    3.61612308350445    2.88695916207644
Cl        4.45689089006517    1.82950073034536   -2.91126379720390
63
 energy: -142.112741711436 gnorm: 0.002434100999 xtb: 6.4.1 (a3dbbd7)
C        -1.30071076869822    0.00268299966519    3.54764793284379
C        -0.37361863375039   -1.17465441385684    3.30803090444435
C         0.97681446660312   -0.72576133720521    3.27787356845894
C         0.97532150652397    0.71664707117019    3.26831997472683
C        -0.37546563210774    1.17799981715921    3.30529097333301
C         2.32726029888888   -2.58837092103756    0.58554088649731
C         3.17529107215830   -1.42128002121067    0.58482692707462
C         2.94243388086433   -0.70710941007239    1.80477059419343
C         1.94746657370394   -1.42470617398707    2.56318032927152
C         1.57280946492296   -2.58678947973744    1.81205522647642
C         3.17924686170450    1.39811242492042    0.56951974424475
C         2.33472798423246    2.57849978046329    0.57980995963006
C         1.57163784214441    2.56315264307594    1.79280249507861
C         1.94445467924942    1.40233060656546    2.54489866709868
C         2.93841541739171    0.68120944546835    1.79427974046951
C        -0.37642918624109    3.42868181426166    0.58482897371927
C        -1.74050495472330    3.01980164006928    0.58951662431210
C        -2.10241086330262    2.46303566950001    1.95392343977928
C        -0.73515108752556    2.28660262812728    2.58521343478332
C         0.23932121089248    2.97801175127978    1.80804904525325
C        -3.37995798723852    0.70168919073993    0.57882303609081
C        -3.39458188750904   -0.73488298950383    0.57182121855670
C        -2.77279307254633   -1.16516361097710    1.79063034317841
C        -2.39354707294436    0.02320984649209    2.53506816054834
C        -2.75286868972634    1.12898407628243    1.81788320654869
C        -1.74148010392946   -3.01462315653295    0.58421206333035
C        -0.36949742711711   -3.45374445545087    0.58762391908381
C         0.24446725797688   -3.00109548922332    1.81226803916403
C        -0.73614529319384   -2.27782405423850    2.56881045201975
C        -1.97766451005251   -2.29101290022570    1.80271524708738
C        -0.25126507174697   -3.02438045654573   -1.82196837253580
C         0.74401863175456   -2.30120485973710   -2.57460171880021
C         1.96201982423548   -2.29524611776066   -1.81872237466994
C         1.73204060792166   -3.01430978761321   -0.59373711487983
C         0.36090027511628   -3.46281933741913   -0.59187949692310
C         2.77107039666841   -1.15744906554527   -1.82210903173346
C         2.42020790071533   -0.01497318120140   -2.59483026313595
C         2.99286899680759    1.22884960061740   -1.95383531717933
C         3.42587983472126    0.71189412043013   -0.60046841423207
C         3.38955656470658   -0.71293962776580   -0.59708751634739
C         1.96974169254453    2.29890590202054   -1.82955641290126
C         0.75609814713741    2.27695581898740   -2.56360229505237
C        -0.24617468924520    3.00175973161305   -1.81209970082560
C         0.35934367012043    3.43942671629288   -0.59664782373631
C         1.73485582052889    2.98500101076074   -0.61027262597570
C        -1.56552577106242    2.56820965546794   -1.80210319362626
C        -1.94762674351249    1.40528369680897   -2.56640605147524
C        -2.93961347921406    0.68391866559329   -1.81868058329056
C        -3.17688882002804    1.39662734706031   -0.59185716869940
C        -2.31499859120969    2.57512177534129   -0.57917406896388
C        -2.94668400071211   -0.71087879956894   -1.83104172966812
C        -1.94752146280264   -1.42576293925099   -2.58503250906674
C        -1.57076761239454   -2.59653832615538   -1.82707975844336
C        -2.33362604528916   -2.59659782938249   -0.60566262234899
C        -3.18204397261387   -1.43370242950739   -0.61176751979546
C        -0.98749968039150   -0.72750921273232   -3.30130523142272
C        -0.98385901978091    0.71609127872460   -3.29882509775778
C         0.37860935569557    1.16073810594706   -3.31266786523119
C         1.23253796029715   -0.01029569529879   -3.29761613534439
C         0.38292475153117   -1.17130909596882   -3.29724790043663
Cl       -1.96114230732083   -0.01034024057781    5.23567061515393
Cl       -3.14372229088581    3.61553633520456    2.88723233331932
Cl        4.45022976704981    1.83148121783017   -2.90878506583604
63
 energy: -142.112753622157 gnorm: 0.001300224947 xtb: 6.4.1 (a3dbbd7)
C        -1.30047981778486    0.00281302672500    3.54750084328007
C        -0.37339435003532   -1.17452262386954    3.30790407052656
C         0.97704239052086   -0.72570210319737    3.27780129428523
C         0.97560105716072    0.71674976178395    3.26845144684877
C        -0.37521460536598    1.17810069820151    3.30522676518796
C         2.32750364031078   -2.58855229671806    0.58552934235434
C         3.17557301478841   -1.42155858045523    0.58498813223015
C         2.94280644549677   -0.70721139842582    1.80502830910105
C         1.94769524871012   -1.42476483176819    2.56321087680337
C         1.57302457449870   -2.58679567427776    1.81203396848244
C         3.17891231789763    1.39780929864952    0.56988331746596
C         2.33471237414940    2.57841833126271    0.58001939052660
C         1.57197732512282    2.56332705047531    1.79312333122158
C         1.94483571616290    1.40245514920228    2.54522437538198
C         2.93879473207251    0.68113498952986    1.79466849097692
C        -0.37623915724596    3.42893006895567    0.58480416441756
C        -1.74022617389079    3.01986825222258    0.58937005561094
C        -2.10215588261139    2.46312812193682    1.95373146982228
C        -0.73489366076727    2.28672089324348    2.58507948660165
C         0.23958202937497    2.97815177257344    1.80806923824425
C        -3.37962931899183    0.70180647906442    0.57863634527454
C        -3.39431215291868   -0.73474244026691    0.57163936238146
C        -2.77256190279877   -1.16502318100581    1.79046489682263
C        -2.39328488389679    0.02334458686750    2.53488974409455
C        -2.75258775874805    1.12907085324209    1.81768212732127
C        -1.74125271124765   -3.01443817097658    0.58404029015702
C        -0.36931305216872   -3.45359938535622    0.58747454121892
C         0.24464537546099   -3.00096488999692    1.81212019472223
C        -0.73592948423663   -2.27765939009873    2.56862477525622
C        -1.97745403525255   -2.29086697745918    1.80255346920769
C        -0.25113858633269   -3.02445776916285   -1.82212433783283
C         0.74409493151333   -2.30147950187059   -2.57492212756807
C         1.96216912023553   -2.29561789683556   -1.81885852928672
C         1.73224910557653   -3.01450628663587   -0.59382263378127
C         0.36104670556464   -3.46283953693630   -0.59203699843729
C         2.77091523345440   -1.15779842233179   -1.82192440275580
C         2.41939234091492   -0.01529814247066   -2.59414905871755
C         2.99257089416646    1.22900938054360   -1.95372041877777
C         3.42498017516064    0.71149123059502   -0.59997039730317
C         3.38942055853344   -0.71328281355934   -0.59685707742120
C         1.96902870180281    2.29817640995167   -1.82891397798920
C         0.75580353138278    2.27675097552198   -2.56337657302635
C        -0.24621813326283    3.00209698559409   -1.81217504867487
C         0.35929122065058    3.43976748342267   -0.59673411775734
C         1.73455340072988    2.98479362128025   -0.60999129334842
C        -1.56546205583107    2.56841111324617   -1.80236020102806
C        -1.94750370974438    1.40534335394116   -2.56669163406558
C        -2.93942966394837    0.68404326632744   -1.81892033937337
C        -3.17662002400161    1.39673994478914   -0.59204055349073
C        -2.31470622020398    2.57517835076894   -0.57933745846694
C        -2.94652512109284   -0.71077488602323   -1.83127092135418
C        -1.94749923305009   -1.42579291181591   -2.58536012262860
C        -1.57060442152301   -2.59647927541020   -1.82724997557163
C        -2.33342875590042   -2.59645703977042   -0.60583399846579
C        -3.18183538964066   -1.43356377406968   -0.61195117738574
C        -0.98752649888788   -0.72764929397771   -3.30177940534234
C        -0.98388807813699    0.71601328400234   -3.29928283828030
C         0.37849231778686    1.16059931483751   -3.31271605373317
C         1.23215532073949   -0.01060418560262   -3.29734878992703
C         0.38290796101157   -1.17163856720946   -3.29764631453870
Cl       -1.96102564945644   -0.01016118099333    5.23548215916489
Cl       -3.14335846722105    3.61578853834250    2.88674002191665