63
 energy: -142.086504693305 gnorm: 0.139365860224 xtb: 6.4.1 (a3dbbd7)
C        -1.29585809763920    0.00401118881931    3.54517689231029
C        -0.36796043466059   -1.17243305044266    3.30515820987539
C         0.98298838984909   -0.72191219210780    3.27512267957929
C         0.98156472691728    0.71960753564614    3.26971969840148
C        -0.37066843430553    1.17924059866277    3.30150764324135
C         2.33648296598357   -2.58548060321166    0.57950289371033
C         3.18657767566203   -1.41946403917212    0.57781419536533
C         2.94957050634668   -0.69854930588343    1.80123308089156
C         1.95308396825138   -1.41752165469557    2.55613481597303
C         1.57961582984989   -2.57968580834158    1.80518673258983
C         3.18767024138397    1.40991878537575    0.57593180017933
C         2.33807592119235    2.57402574463448    0.57591940987423
C         1.57683795447400    2.56605672116665    1.79975339077111
C         1.95304946478205    1.40835201085528    2.55205927541471
C         2.95072023090319    0.68875745027160    1.80098024590342
C        -0.36516779392141    3.42666371311492    0.57921714402649
C        -1.72924376731069    3.01648005687427    0.58287705229366
C        -2.09463355901587    2.46231282969886    1.94730853737491
C        -0.73027134368917    2.28553619224850    2.58224921046650
C         0.24829448370074    2.97593693088527    1.80334175247540
C        -3.37466967439567    0.70300551329579    0.57574930039426
C        -3.39003092771629   -0.73268815670587    0.56838248256510
C        -2.76818811346571   -1.16356142396752    1.78871572205038
C        -2.38904763717889    0.02437925858140    2.53264263708558
C        -2.74834472581071    1.12995086235998    1.81420011509538
C        -1.73481952354600   -3.00995345707075    0.57938225067925
C        -0.36149853487188   -3.44686666226009    0.58178847329193
C         0.25217194576597   -2.99475012297255    1.80551622011247
C        -0.72930832450935   -2.27346636848304    2.56467955460776
C        -1.97147545437730   -2.28746259180062    1.79868366143107
C        -0.24419850633136   -3.01431906314620   -1.82647673825261
C         0.74940205395547   -2.29291975806330   -2.58286291039202
C         1.97453700920709   -2.29239152825096   -1.82543977569151
C         1.74139873391846   -3.01127177396538   -0.59946235539016
C         0.36858334361035   -3.45436466601281   -0.59762914030018
C         2.79442417375665   -1.17031401238235   -1.82833550582627
C         2.41574661868216   -0.00512369138436   -2.58546959698227
C         2.79806943058290    1.16104826437995   -1.83045397159780
C         3.41356646756867    0.71553904959985   -0.60565027126811
C         3.41126633543504   -0.72579612437446   -0.60436594375932
C         1.98256115237360    2.28538932475628   -1.82964816243890
C         0.75350030248264    2.28551308222168   -2.58573232043658
C        -0.23508280223273    3.00436687434747   -1.82344140510130
C         0.37359850933878    3.44286488634390   -0.60220138875814
C         1.74684322375821    3.00246743965493   -0.60372642363152
C        -1.55566653240424    2.56818250404503   -1.80941223602174
C        -1.93859434660526    1.40592010808590   -2.57168095899201
C        -2.93551210472019    0.68461262540438   -1.82146846795257
C        -3.16898901543324    1.39767486955451   -0.59605965569985
C        -2.30435127708354    2.57332623889815   -0.58497549494069
C        -2.94114405324375   -0.70773319319533   -1.83440725651199
C        -1.94505174587464   -1.42387954866205   -2.59102123509086
C        -1.56548890453788   -2.59170746569988   -1.83211639417485
C        -2.32839595521473   -2.59312664308342   -0.60918315809929
C        -3.17773883520354   -1.43218193780650   -0.61434027481289
C        -0.98775846768414   -0.72638522805960   -3.31322849835342
C        -0.98659864734294    0.71557045446948   -3.30737103344774
C         0.38544609972999    1.16109326157285   -3.31071431262535
C         1.23106807690940   -0.00470839623161   -3.31198800118088
C         0.38446650877846   -1.17000629315169   -3.31255499434049
Cl       -1.95494402211016   -0.00808767691631    5.23350834623694
Cl       -3.13453400293270    3.62205440046694    2.87428256889563
Cl       -4.44498485977337   -1.07131992586123   -2.77375145138715
63
 energy: -142.110419186547 gnorm: 0.062048579868 xtb: 6.4.1 (a3dbbd7)
C        -1.29478187954779    0.00275656843622    3.54496527543447
C        -0.36641735820031   -1.17352708143041    3.30575655463341
C         0.98369574475032   -0.72201662581807    3.27500516743156
C         0.98174764832609    0.71967839121638    3.26936944701250
C        -0.37063580018752    1.17875923899494    3.30063037610717
C         2.33958600609606   -2.58596127762896    0.58105221328499
C         3.18820743555663   -1.41963361947338    0.57884740110134
C         2.95099725824360   -0.69859947171292    1.80194071945461
C         1.95486502520965   -1.41753260964339    2.55683371131137
C         1.58264173938828   -2.58037306523383    1.80696615860477
C         3.18870954814126    1.40949843184582    0.57666605057487
C         2.33926278645669    2.57427843342150    0.57685851277417
C         1.57775151272578    2.56622019076113    1.80042474943468
C         1.95345335110010    1.40822025712795    2.55197965614971
C         2.95190733021032    0.68883648477110    1.80115814281861
C        -0.36202290164177    3.43012573237028    0.58134770124180
C        -1.72708493910116    3.02286800075102    0.58459373579221
C        -2.09456419328733    2.46401835696108    1.94665373934595
C        -0.73024519193716    2.28551308754158    2.58173574295152
C         0.24936849393087    2.97698955379592    1.80474533850469
C        -3.36970526792981    0.70726354966319    0.57872945895286
C        -3.37477947754801   -0.73380921940748    0.57411786588500
C        -2.76507063616372   -1.16775290270250    1.79677923148577
C        -2.38680497858191    0.02053662528585    2.53281212751472
C        -2.74660207972037    1.13072659913885    1.80945820362758
C        -1.73063040908085   -3.01435302404195    0.58830294479311
C        -0.35679394684882   -3.44946609468939    0.58491052358218
C         0.25633258459179   -2.99773556079678    1.80840410783849
C        -0.72623419837904   -2.27704093500228    2.56740467523313
C        -1.96890855888680   -2.29624248603428    1.80608334129357
C        -0.23543072515795   -3.01785082543111   -1.82604913705208
C         0.75479463403797   -2.29805477284986   -2.58260795090018
C         1.97871276897317   -2.29460845539419   -1.82394610578384
C         1.74579376546449   -3.01342933990397   -0.59798151594496
C         0.37357656068753   -3.45676820558928   -0.59568461511429
C         2.79625489401268   -1.17122381526039   -1.82720683794871
C         2.41650800764029   -0.00539050657634   -2.58404973354221
C         2.79923483243884    1.16117441916559   -1.82981140193558
C         3.41420670771823    0.71548727111747   -0.60532316573912
C         3.41247569814688   -0.72604735540832   -0.60390743554426
C         1.98428427574501    2.28715693673756   -1.82903105455912
C         0.75642467448928    2.28907818509859   -2.58391615575666
C        -0.23053459164615    3.01272393906476   -1.82252710932494
C         0.37720687618646    3.44682060998705   -0.59987923752774
C         1.74961367357594    3.00391104992175   -0.60235335026505
C        -1.55059149675030    2.58185791623022   -1.80751284326543
C        -1.93166513510871    1.41305671895441   -2.56104701638940
C        -2.94074653575122    0.71122934376625   -1.82287113117658
C        -3.15684985298915    1.40535392248635   -0.59857981037949
C        -2.30023291071172    2.58620793450594   -0.58477564179171
C        -3.03060402378922   -0.72905111357234   -1.88878584856966
C        -1.92905995964368   -1.42704908049965   -2.58608992124469
C        -1.55627173828204   -2.58497570662392   -1.82531090831745
C        -2.31974857997922   -2.58803037884796   -0.60179136566810
C        -3.16689739227672   -1.43610487404333   -0.59947422319530
C        -0.97807791304930   -0.72764566296272   -3.30217110174894
C        -0.98261219719007    0.71901767241997   -3.30337792352389
C         0.38591401721801    1.16141079374120   -3.30777734216395
C         1.23227599840108   -0.00552184967521   -3.31011582188582
C         0.39020458011365   -1.17320981189018   -3.31276541273111
Cl       -1.95517967383660   -0.00746190504121    5.23327323674349
Cl       -3.13396852950117    3.62311161826795    2.87451619978879
Cl       -4.56529343686399   -1.10699378743268   -2.84704453200788
63
 energy: -142.116457663101 gnorm: 0.014939889082 xtb: 6.4.1 (a3dbbd7)
C        -1.29250237978883    0.00237471214405    3.54351376587071
C        -0.36344041899355   -1.17446060191553    3.30762582495219
C         0.98618088807302   -0.72199758403921    3.27574753756444
C         0.98399961004207    0.71978823972855    3.26977623986990
C        -0.36837421188905    1.17853439648733    3.30056062636127
C         2.34421878710255   -2.58605300887921    0.58363274962518
C         3.19161025325600   -1.41947868755482    0.58113953659086
C         2.95443222078835   -0.69827723475953    1.80403010315161
C         1.95860208771276   -1.41740777120193    2.55887848967627
C         1.58716337190665   -2.58073557778717    1.80981099640074
C         3.19184655876305    1.40984033225571    0.57889269641485
C         2.34229236015893    2.57519173609782    0.57885039099041
C         1.58055758287969    2.56667093049528    1.80206614177863
C         1.95591620665052    1.40846981273472    2.55312039254416
C         2.95500768255549    0.68925495116631    1.80261023305037
C        -0.35829550772092    3.43334287604428    0.58348220052179
C        -1.72328026930633    3.02318180694083    0.58523516443249
C        -2.09181267590021    2.46396276715352    1.94615872115522
C        -0.72785876482870    2.28536002413605    2.58197010284651
C         0.25219793761302    2.97800520603040    1.80632843576649
C        -3.37003161837848    0.70992850513833    0.58066531340685
C        -3.36843677422117   -0.73548602883306    0.57045644733637
C        -2.75702375184485   -1.16596710234511    1.79408963449315
C        -2.38329951930263    0.01810627426128    2.53053544893356
C        -2.74410069504044    1.13099443953060    1.80142707214220
C        -1.72669972861830   -3.01212740705102    0.59175485339098
C        -0.35284922760436   -3.44889793504499    0.58723057066824
C         0.26120604436353   -2.99919086051578    1.81122864347841
C        -0.72258669525035   -2.27994105645311    2.57112403864863
C        -1.96328542912978   -2.29880177394967    1.80786471570633
C        -0.23144672356233   -3.01470397124499   -1.82338768538096
C         0.75689115945210   -2.29782933376647   -2.57746927422967
C         1.98329148410776   -2.29576407092403   -1.82185974452391
C         1.75014741128238   -3.01407446421753   -0.59549333186615
C         0.37730996468756   -3.45585394204891   -0.59364814480410
C         2.79921921262089   -1.17135629584675   -1.82507981576788
C         2.41760759380604   -0.00474839161465   -2.58123869007490
C         2.80167577892694    1.16193240914920   -1.82751646869866
C         3.41650356039071    0.71612641329718   -0.60346067962554
C         3.41487170685867   -0.72557445276573   -0.60215286966986
C         1.98682461473995    2.28858313966813   -1.82712398854631
C         0.75967352283667    2.29156007725818   -2.58131816817303
C        -0.22682755239509    3.01532789701224   -1.82039102344539
C         0.38127607596880    3.45041154056539   -0.59775445649894
C         1.75361672489755    3.00589717926096   -0.60003064364354
C        -1.54619927969144    2.58271088016226   -1.80530285327975
C        -1.93087395304905    1.40955370100035   -2.55343839980986
C        -2.93826752988929    0.71700256803270   -1.81909469405659
C        -3.15034726263294    1.40198533128708   -0.60474139806314
C        -2.29549933039521    2.58593206842516   -0.58440267996063
C        -3.11001128904379   -0.75095150141693   -1.93665079361828
C        -1.92946754285874   -1.42873528121428   -2.58686779238563
C        -1.55324086963745   -2.57187185674972   -1.82134132966143
C        -2.31641408263021   -2.57690955556545   -0.59883067828975
C        -3.16822062982394   -1.43819323134086   -0.59645582795768
C        -0.98046878904229   -0.72920640034741   -3.29483508881405
C        -0.98248237966122    0.72117710504491   -3.30330328559325
C         0.38411985088657    1.16129367171531   -3.30266486029553
C         1.23227122716295   -0.00497748433223   -3.30497746381753
C         0.38888142186123   -1.17103775170337   -3.30394348485851
Cl       -1.95633781885803   -0.00639298950223    5.23140366048364
Cl       -3.13264655624414    3.62178199983724    2.87317422398914
Cl       -4.65582172511189   -1.12685297420011   -2.90105269712620
63
 energy: -142.116768835877 gnorm: 0.008877287864 xtb: 6.4.1 (a3dbbd7)
C        -1.29106924753790    0.00202335872392    3.54187117354927
C        -0.36150765319072   -1.17478591560271    3.30827615584981
C         0.98810432506075   -0.72214433448846    3.27659720301440
C         0.98556339899052    0.71965165025444    3.27005515129711
C        -0.36696698866253    1.17800423517958    3.29996816135012
C         2.34675499758195   -2.58621634270332    0.58495080017104
C         3.19394926344404   -1.41948124704948    0.58245823929947
C         2.95662944648423   -0.69807112383925    1.80529209438502
C         1.96100103678928   -1.41757568366936    2.56030242427010
C         1.58959982988521   -2.58115639455777    1.81138241075326
C         3.19373173258965    1.41037643859881    0.58002908884578
C         2.34389966009670    2.57585608448470    0.57968701519226
C         1.58195945904983    2.56705032711630    1.80284131115027
C         1.95747175833402    1.40875119159122    2.55383992993717
C         2.95687254596024    0.68959697114240    1.80354057775234
C        -0.35707289774563    3.43381339462180    0.58386045720332
C        -1.72172093513486    3.02176898244838    0.58486878336254
C        -2.09059712936434    2.46327903839822    1.94565416356421
C        -0.72669775944040    2.28467350820233    2.58147103369252
C         0.25341411057446    2.97829638002986    1.80674992566426
C        -3.37263540207239    0.71063101638422    0.58202559757172
C        -3.37093801545162   -0.73632199184546    0.56765541765376
C        -2.75353695247161   -1.16454225216807    1.79043708897197
C        -2.38124138982780    0.01723184751395    2.52840669645453
C        -2.74404029099435    1.13095429297840    1.79914300661069
C        -1.72502948938414   -3.00951169921366    0.59097236519964
C        -0.35136464205427   -3.44737246435723    0.58793823655448
C         0.26342748062301   -2.99947231170565    1.81245149166305
C        -0.72082346441898   -2.28058022203126    2.57231949003014
C        -1.96090842251278   -2.29825567957283    1.80717452806572
C        -0.23185037737840   -3.01159980503341   -1.82110998553757
C         0.75650395352411   -2.29608191582518   -2.57430447473708
C         1.98469372156165   -2.29536037779262   -1.82049200910624
C         1.75189461165136   -3.01376900032493   -0.59418356633041
C         0.37837189826000   -3.45395350405222   -0.59251191990551
C         2.80038068234770   -1.17090616624746   -1.82350914089074
C         2.41761314175497   -0.00429645775162   -2.57928883038428
C         2.80299338366464    1.16238179975744   -1.82626720412335
C         3.41813676606627    0.71657811220786   -0.60235700210428
C         3.41668542813835   -0.72521052857509   -0.60097941498143
C         1.98801325910386    2.28887758257190   -1.82624903273038
C         0.76079902036156    2.29194929583232   -2.58041817392186
C        -0.22594300432301    3.01461238240582   -1.81943723841557
C         0.38258974256905    3.45106374899536   -0.59726461962956
C         1.75527724504770    3.00676097677978   -0.59924869976096
C        -1.54497043605492    2.57976134362024   -1.80455233407259
C        -1.93285352637659    1.40663267417350   -2.55350738165007
C        -2.93781864848371    0.71325228879272   -1.81823978788424
C        -3.15159812279740    1.39875916614288   -0.60734802820965
C        -2.29375937346112    2.58249476965003   -0.58417559854193
C        -3.12833994840187   -0.75752816989421   -1.94741774102112
C        -1.93687154333470   -1.43034382479769   -2.59149950624450
C        -1.55467191240662   -2.56791933959226   -1.82140311453572
C        -2.31760374729927   -2.57363932035694   -0.59921029293012
C        -3.17592551940841   -1.43981815034173   -0.59982021846255
C        -0.98479577209695   -0.72976737274986   -3.29540056401971
C        -0.98312552788203    0.72192014875156   -3.30512363480216
C         0.38327797194991    1.16157023532401   -3.30098297076445
C         1.23120652092076   -0.00445927789682   -3.30135706952636
C         0.38620969783916   -1.16915990791302   -3.29867740244199
Cl       -1.95863404116805   -0.00522514699580    5.22877079595199
Cl       -3.13082600254693    3.62112117247254    2.87279242441127
Cl       -4.67032598653327   -1.12474207327158   -2.90888962207191
63
 energy: -142.116885721359 gnorm: 0.004596278918 xtb: 6.4.1 (a3dbbd7)
C        -1.29033333959627    0.00165176509893    3.54066290470266
C        -0.36054504262042   -1.17510230611854    3.30875302726531
C         0.98904588091850   -0.72237046683098    3.27712797706666
C         0.98616821762408    0.71940151587694    3.27000293501361
C        -0.36646284959221    1.17751560847187    3.29944743459672
C         2.34812626059897   -2.58656014365808    0.58550453679636
C         3.19505878163826   -1.41962850555979    0.58295092213490
C         2.95750145428059   -0.69805198455982    1.80571696785199
C         1.96211235290950   -1.41784219300089    2.56099410431047
C         1.59081493535590   -2.58168346221052    1.81222479594622
C         3.19435103397115    1.41061038025403    0.58030344063012
C         2.34428164194648    2.57613137499968    0.57980439823220
C         1.58222892099770    2.56714868148188    1.80299752082590
C         1.95792291718694    1.40880831005043    2.55393643689635
C         2.95743498137653    0.68967316568053    1.80368420542255
C        -0.35689036608946    3.43375617735171    0.58386609303478
C        -1.72128930615530    3.02077324363822    0.58462148667455
C        -2.09042823185605    2.46299975965294    1.94559683305471
C        -0.72650118584279    2.28410511744115    2.58113594528166
C         0.25358203012052    2.97836861361404    1.80687978160189
C        -3.37480209763473    0.71143736744313    0.58399995919171
C        -3.37238345254825   -0.73656557692658    0.56620278359546
C        -2.75131610556365   -1.16374325391489    1.78816305402116
C        -2.38003762574045    0.01651878849520    2.52705292919611
C        -2.74511960111749    1.13124532828767    1.79875227999967
C        -1.72366139187831   -3.00766551598915    0.59031941572388
C        -0.35045733943858   -3.44645121667251    0.58833584189213
C         0.26454316490415   -2.99988917814312    1.81335092262864
C        -0.71990921834735   -2.28113511498798    2.57324635307423
C        -1.95971675680023   -2.29803214361588    1.80700905839732
C        -0.23202070115590   -3.00956026897194   -1.81944489715707
C         0.75640289988722   -2.29512017859337   -2.57273639260285
C         1.98562506431964   -2.29522756827664   -1.81992081278474
C         1.75298351778165   -3.01378537407717   -0.59372360834713
C         0.37900718140250   -3.45277484086307   -0.59184148453138
C         2.80092356810507   -1.17064287944128   -1.82278911856194
C         2.41756445882508   -0.00411980430942   -2.57855943171696
C         2.80356558278820    1.16260045457340   -1.82593584179357
C         3.41886272319208    0.71676440608676   -0.60205717255229
C         3.41765823955781   -0.72506211542885   -0.60057323731058
C         1.98847484865766    2.28895484683239   -1.82612787949706
C         0.76132142440877    2.29212109061381   -2.58038070457196
C        -0.22576440573476    3.01396961805445   -1.81915804220879
C         0.38279755094675    3.45111807947694   -0.59722764281873
C         1.75578009717272    3.00718461852902   -0.59918920700120
C        -1.54428462149991    2.57740351877822   -1.80400207698740
C        -1.93389758399778    1.40443028774802   -2.55396692533582
C        -2.93614093158510    0.70952732348195   -1.81684764277366
C        -3.15267081555821    1.39615416389646   -0.60868414504438
C        -2.29264235967407    2.57979389476541   -0.58390803484759
C        -3.13682761117818   -0.76110624931279   -1.95240918882584
C        -1.94151473473281   -1.43104015910003   -2.59434254007358
C        -1.55509025339803   -2.56548433311145   -1.82128641041832
C        -2.31776046544022   -2.57153937604940   -0.59922104975711
C        -3.18060897776230   -1.44038556943843   -0.60208983532444
C        -0.98706679416213   -0.72995670916188   -3.29584346740339
C        -0.98301097690222    0.72256724808457   -3.30695797800306
C         0.38304225301746    1.16189123794361   -3.30080020874704
C         1.23043835961228   -0.00422489863330   -3.29932114946508
C         0.38459475260956   -1.16820877119398   -3.29559707006085
Cl       -1.96131552503607   -0.00426594088572    5.22671996482733
Cl       -3.12917062213569    3.62161672492410    2.87299607400161
Cl       -4.67161188533142   -1.11859019966043   -2.90886052766013
63
 energy: -142.116925676811 gnorm: 0.002286567954 xtb: 6.4.1 (a3dbbd7)
C        -1.29034572393576    0.00143632572156    3.54023921724456
C        -0.36055852032332   -1.17527599948908    3.30892130211837
C         0.98901459693750   -0.72248640308344    3.27716886696292
C         0.98600608755057    0.71924701410937    3.26978855236196
C        -0.36665575976496    1.17727330266933    3.29919567916074
C         2.34825643858301   -2.58671869801263    0.58542416042210
C         3.19497364437178   -1.41968689661406    0.58282551868602
C         2.95732803752322   -0.69806444690506    1.80555227877301
C         1.96205162915401   -1.41794367496223    2.56093996835706
C         1.59086856297277   -2.58190855191805    1.81226877431767
C         3.19403753012804    1.41060660505862    0.58007083138749
C         2.34387985481819    2.57609657476451    0.57957383228057
C         1.58183381969036    2.56706640288117    1.80279322746229
C         1.95763241155344    1.40875807108697    2.55370203125434
C         2.95713715423110    0.68963997332211    1.80341818847167
C        -0.35727142772176    3.43350113074563    0.58371646366943
C        -1.72164771586622    3.02044189865569    0.58456998118907
C        -2.09088173379088    2.46303844621348    1.94582912000314
C        -0.72686940140598    2.28387901343887    2.58105541141538
C         0.25317950787480    2.97827991751714    1.80679918281660
C        -3.37562897295448    0.71189038742696    0.58523355052947
C        -3.37219914300082   -0.73648991108556    0.56601566137664
C        -2.75065573405503   -1.16366764118180    1.78765801731831
C        -2.37996490786197    0.01611958137369    2.52676296226080
C        -2.74631279448639    1.13154189512520    1.79927935349210
C        -1.72313408050284   -3.00732339287930    0.59017068628349
C        -0.35024372845542   -3.44641320122392    0.58839798139937
C         0.26464512996232   -3.00018394852178    1.81362635233393
C        -0.71982107538099   -2.28148046139038    2.57360662744904
C        -1.95959651988033   -2.29826271064420    1.80724989132078
C        -0.23190694223078   -3.00924834816266   -1.81899788204223
C         0.75654598144415   -2.29515205143148   -2.57272936996540
C         1.98590974387776   -2.29537166115546   -1.82002352381981
C         1.75324355727780   -3.01394697854907   -0.59387733394992
C         0.37916616863261   -3.45264737474440   -0.59176604212919
C         2.80088170735401   -1.17062411589430   -1.82283298284109
C         2.41751363919037   -0.00416869307360   -2.57881647189267
C         2.80343327898706    1.16260635400068   -1.82617683804491
C         3.41872330919216    0.71676934521924   -0.60225833705230
C         3.41765033600967   -0.72503747010710   -0.60072326490271
C         1.98829981316650    2.28890796763164   -1.82638565378259
C         0.76128299475265    2.29209601682001   -2.58073349230884
C        -0.22599143198200    3.01378364720320   -1.81935897363131
C         0.38239340119470    3.45089786318836   -0.59738163841524
C         1.75547148835275    3.00717761947489   -0.59942843751931
C        -1.54421549959413    2.57670794840992   -1.80383829145358
C        -1.93377807440239    1.40358993090304   -2.55396714646955
C        -2.93434912177275    0.70781297757098   -1.81557103120703
C        -3.15273696631624    1.39506313965816   -0.60886535334115
C        -2.29242198328933    2.57896066812900   -0.58382842090303
C        -3.13841959258048   -0.76191572627886   -1.95341153688629
C        -1.94207795449410   -1.43094064629972   -2.59455212597512
C        -1.55468814974033   -2.56485423757462   -1.82102292994563
C        -2.31718620305722   -2.57092627681221   -0.59894511785248
C        -3.18095727823051   -1.44011475605328   -0.60243456772486
C        -0.98713446084618   -0.73002042425769   -3.29568091847386
C        -0.98263241024635    0.72274857413307   -3.30768770492254
C         0.38313435050132    1.16196912368382   -3.30140223650876
C         1.23024719081719   -0.00430269541024   -3.29920076449488
C         0.38431814140788   -1.16825618312472   -3.29510403215080
Cl       -1.96263546617211   -0.00390677610962    5.22617071202458
Cl       -3.12840763205937    3.62266654662288    2.87312182689487
Cl       -4.66677118110088   -1.11280749687911   -2.90558713072576
63
 energy: -142.116936044682 gnorm: 0.001162292311 xtb: 6.4.1 (a3dbbd7)
C        -1.29057842560936    0.00138180928092    3.54030114740443
C        -0.36086376859545   -1.17531264873258    3.30889588937082
C         0.98870500498545   -0.72248355753405    3.27702007820089
C         0.98571120157720    0.71923615839759    3.26965410653153
C        -0.36695236295387    1.17724711637769    3.29915182295006
C         2.34794454622999   -2.58666450629938    0.58522709751085
C         3.19458969296182   -1.41963429524293    0.58262468544079
C         2.95697471544512   -0.69803531595328    1.80534656054734
C         1.96169805655767   -1.41789615348125    2.56070274785085
C         1.59056894278269   -2.58185605293441    1.81204486198436
C         3.19364661312051    1.41056658324457    0.57986103711073
C         2.34349178937344    2.57601180126009    0.57940669838675
C         1.58148214485597    2.56699924469539    1.80261016012048
C         1.95730804080839    1.40873873871029    2.55353647973968
C         2.95679827500931    0.68964279397384    1.80323433162841
C        -0.35758800585688    3.43336323843700    0.58359147282026
C        -1.72205066449882    3.02047353156449    0.58458175621728
C        -2.09126991379011    2.46310550452129    1.94598482327121
C        -0.72719999202277    2.28388939486708    2.58107502510227
C         0.25284366498165    2.97819142076307    1.80667303533345
C        -3.37557506505717    0.71190150108784    0.58543937158324
C        -3.37164283791526   -0.73645538476578    0.56629301355098
C        -2.75083179106560   -1.16387363051937    1.78799560227927
C        -2.38034502576064    0.01600288604134    2.52701512118927
C        -2.74684134467379    1.13160837275953    1.79970172188471
C        -1.72323215453606   -3.00776889957396    0.59029346879889
C        -0.35036070445339   -3.44672654136384    0.58832175244332
C         0.26441942752057   -3.00025611112210    1.81351797169220
C        -0.72001714824075   -2.28157660845813    2.57354363240690
C        -1.95983968015794   -2.29855325445953    1.80747223676402
C        -0.23177550736654   -3.00976204270867   -1.81925618596310
C         0.75667656723222   -2.29550461465226   -2.57319294388808
C         1.98581869739671   -2.29552214919980   -1.82024708137546
C         1.75309762534399   -3.01403319249423   -0.59408383310793
C         0.37909596151208   -3.45296795047834   -0.59192658783242
C         2.80069309487276   -1.17069108485007   -1.82306000502332
C         2.41748776843922   -0.00425147315181   -2.57919339577864
C         2.80315650876649    1.16255433984564   -1.82641880410490
C         3.41839542344405    0.71674774904048   -0.60245566591352
C         3.41733185811350   -0.72503179358973   -0.60092111417586
C         1.98801113841439    2.28885692188926   -1.82658451183777
C         0.76107397489384    2.29200112077812   -2.58097512639792
C        -0.22620252988496    3.01386122937985   -1.81961562275529
C         0.38205930110225    3.45075665756267   -0.59750884499280
C         1.75509792226208    3.00704392710331   -0.59958647465129
C        -1.54442332352454    2.57702558873511   -1.80394731114101
C        -1.93330767426259    1.40367820561757   -2.55372858479149
C        -2.93346728874590    0.70776030813052   -1.81497395822404
C        -3.15235785474022    1.39510252889565   -0.60856982391386
C        -2.29268951108487    2.57929316634560   -0.58391539046567
C        -3.13767474512610   -0.76155541734148   -1.95304136711388
C        -1.94099977998625   -1.43077876301874   -2.59382517062283
C        -1.55433875255407   -2.56527156386917   -1.82090610485167
C        -2.31680563503457   -2.57125373563014   -0.59876783017203
C        -3.17971894199690   -1.43984661771985   -0.60192729369112
C        -0.98653307055171   -0.73012162517204   -3.29546551822851
C        -0.98247937940480    0.72259278937606   -3.30758534328680
C         0.38323023305519    1.16186452121208   -3.30187347479016
C         1.23037781697455   -0.00445286303546   -3.29980547672926
C         0.38462335373346   -1.16861118910430   -3.29572991539383
Cl       -1.96252512536199   -0.00393415376893    5.22656665785343
Cl       -3.12841071890433    3.62328161964729    2.87301070930553