180
 energy: -569.337915210800 gnorm: 11.367758235432 xtb: 6.4.1 (a3dbbd7)
C        -1.23626340000000    0.00000000000000    3.32997640000000
C        -0.38202640000000   -1.17575640000000    3.32997640000000
C         1.00015810000000   -0.72665740000000    3.32997640000000
C         1.00015810000000    0.72665740000000    3.32997640000000
C        -0.38202640000000    1.17575640000000    3.32997640000000
C         2.34433560000000   -2.60145750000000    0.59464210000000
C         3.19857260000000   -1.42570110000000    0.59464210000000
C         2.96246730000000   -0.69904370000000    1.83090550000000
C         1.96230920000000   -1.42570110000000    2.59495830000000
C         1.58028280000000   -2.60145750000000    1.83090550000000
C         3.19857260000000    1.42570110000000    0.59464210000000
C         2.34433560000000    2.60145750000000    0.59464210000000
C         1.58028280000000    2.60145750000000    1.83090550000000
C         1.96230920000000    1.42570110000000    2.59495830000000
C         2.96246730000000    0.69904370000000    1.83090550000000
C        -0.36750900000000    3.48258920000000    0.59464210000000
C        -1.74969350000000    3.03349030000000    0.59464210000000
C        -1.98579880000000    2.30683290000000    1.83090550000000
C        -0.74953540000000    2.30683290000000    2.59495830000000
C         0.25062270000000    3.03349030000000    1.83090550000000
C        -3.42570570000000    0.72665740000000    0.59464210000000
C        -3.42570570000000   -0.72665740000000    0.59464210000000
C        -2.80757400000000   -1.17575640000000    1.83090550000000
C        -2.42554760000000    0.00000000000000    2.59495830000000
C        -2.80757400000000    1.17575640000000    1.83090550000000
C        -1.74969350000000   -3.03349030000000    0.59464210000000
C        -0.36750900000000   -3.48258920000000    0.59464210000000
C         0.25062270000000   -3.03349030000000    1.83090550000000
C        -0.74953540000000   -2.30683290000000    2.59495830000000
C        -1.98579880000000   -2.30683290000000    1.83090550000000
C        -0.25062270000000   -3.03349030000000   -1.83090550000000
C         0.74953540000000   -2.30683290000000   -2.59495830000000
C         1.98579880000000   -2.30683290000000   -1.83090550000000
C         1.74969350000000   -3.03349030000000   -0.59464210000000
C         0.36750900000000   -3.48258920000000   -0.59464210000000
C         2.80757400000000   -1.17575640000000   -1.83090550000000
C         2.42554760000000    0.00000000000000   -2.59495830000000
C         2.80757400000000    1.17575640000000   -1.83090550000000
C         3.42570570000000    0.72665740000000   -0.59464210000000
C         3.42570570000000   -0.72665740000000   -0.59464210000000
C         1.98579880000000    2.30683290000000   -1.83090550000000
C         0.74953540000000    2.30683290000000   -2.59495830000000
C        -0.25062270000000    3.03349030000000   -1.83090550000000
C         0.36750900000000    3.48258920000000   -0.59464210000000
C         1.74969350000000    3.03349030000000   -0.59464210000000
C        -1.58028280000000    2.60145750000000   -1.83090550000000
C        -1.96230920000000    1.42570110000000   -2.59495830000000
C        -2.96246730000000    0.69904370000000   -1.83090550000000
C        -3.19857260000000    1.42570110000000   -0.59464210000000
C        -2.34433560000000    2.60145750000000   -0.59464210000000
C        -2.96246730000000   -0.69904370000000   -1.83090550000000
C        -1.96230920000000   -1.42570110000000   -2.59495830000000
C        -1.58028280000000   -2.60145750000000   -1.83090550000000
C        -2.34433560000000   -2.60145750000000   -0.59464210000000
C        -3.19857260000000   -1.42570110000000   -0.59464210000000
C        -1.00015810000000   -0.72665740000000   -3.32997640000000
C        -1.00015810000000    0.72665740000000   -3.32997640000000
C         0.38202640000000    1.17575640000000   -3.32997640000000
C         1.23626340000000    0.00000000000000   -3.32997640000000
C         0.38202640000000   -1.17575640000000   -3.32997640000000
C        -1.76086815247998    0.00000000000000    4.78849957557021
F        -0.76911826531252    0.00000000000000    5.67468926254662
F        -2.50968386795825   -1.06794314680471    5.04863888333743
F        -2.50968386795825    1.06794314680471    5.04863888333743
C        -0.54413818249354   -1.67468516033722    4.78849957845317
F        -0.23767107904745   -0.73147481112462    5.67468925997942
F        -1.79120914301982   -2.05683909935453    5.04863874564184
F         0.24013968171955   -2.71686350152345    5.04863903502921
C         1.42457227037960   -1.03501233722714    4.78849957248258
F         0.62223011468481   -0.45207589682711    5.67468926529602
F         1.40265511061956   -2.33913928186680    5.04863905501621
F         2.65809836182651   -0.61117154425495    5.04863869666890
C         1.42457227037960    1.03501233722714    4.78849957248258
F         0.62223011468481    0.45207589682711    5.67468926529602
F         2.65809836182651    0.61117154425495    5.04863869666891
F         1.40265511061956    2.33913928186680    5.04863905501621
C         3.37204091334889   -3.72927672645244    0.86730596148276
F         4.06564647311728   -3.51265957144659    1.98125763710228
F         4.25569947457670   -3.84739838595791   -0.11965645964809
F         2.78580317558591   -4.91533944031226    1.00324916143779
C         4.58877084110522   -2.05459160147071    0.86730597290559
F         4.59709252483521   -2.78118520641283    1.98125951001435
F         4.97417519512416   -2.85850196315549   -0.11965482382298
F         5.53562669678859   -1.13053295630600    1.00324569798425
C         2.28376457660886   -3.72927671755932    2.62817408867206
F         3.59030321655004   -3.51265997057976    2.75037870097715
F         2.14318168460923   -4.91533956626619    2.04303190988612
F         1.79618325340524   -3.84739782561575    3.85992562899767
C         4.58877084110522    2.05459160147071    0.86730597290559
F         4.59709252483521    2.78118520641283    1.98125951001435
F         4.97417519512416    2.85850196315549   -0.11965482382298
F         5.53562669678859    1.13053295630600    1.00324569798425
C         2.82790274436383    2.05459160758554    3.71645040671519
F         3.82797483682855    2.78118494419178    3.22571836876305
F         2.11749631416700    2.85850222732984    4.50254863174647
F         3.37293748548841    1.13053297859378    4.50255013394648
C         4.25247495652193    1.01957928511255    2.62817407757680
F         4.45020405360857    2.32910962270745    2.75037677428973
F         5.33704498641440    0.51936149478962    2.04303305824599
F         4.21414295278389    0.51936236815949    3.85992636334022
C        -2.84103082519036    3.32439911178427    2.62817407941587
F        -2.23127406184888    4.50005340761388    2.75037746012491
F        -4.01248672303644    3.55720929213525    2.04303264409737
F        -3.10404037880940    2.89718378306489    3.85992609894427
C        -4.03961820246674   -1.67468514775899    2.62817407948106
F        -4.96930660042402   -0.73147479244129    2.75037763231441
F        -4.62303373288711   -2.71686348978894    2.04303253910982
F        -3.71458666614022   -2.05683907990832    3.85992603200073
C        -3.49548004549360    0.00000000000000    3.71645041414084
F        -4.73163621497510    0.00000000000000    3.22571838476757
F        -3.39327517264965   -1.06794314680471    4.50254938956302
F        -3.39327517264965    1.06794314680471    4.50254938956303
C        -4.03961820246674    1.67468514775899    2.62817407948106
F        -4.96930660042401    0.73147479244129    2.75037763231445
F        -4.62303373288714    2.71686348978891    2.04303253910981
F        -3.71458666614023    2.05683907990836    3.85992603200072
C        -2.50473491433418   -4.35941144902977    0.86730593917895
F        -2.08438487052912   -4.95213043104453    1.98125838386969
F        -2.34400857369757   -5.23632280881804   -0.11965581818547
F        -3.81390519137296   -4.16837996597314    1.00324768478856
C         0.34440953624153   -4.35941144868709    2.62817404748705
F        -0.83992598883967   -4.95213069234126    2.75037577510431
F         1.15529636597892   -5.23632261667420    2.04303359185445
F         0.80829780400759   -4.16837989546168    3.85992670963205
C        -2.84103082519036   -3.32439911178427    2.62817407941587
F        -2.23127406184888   -4.50005340761388    2.75037746012491
F        -4.01248672303644   -3.55720929213525    2.04303264409737
F        -3.10404037880940   -2.89718378306488    3.85992609894427
C         1.08016271022039   -3.32439912180418   -3.71645041587937
F         1.46215754230406   -4.50005299330749   -3.22571838851551
F         0.03290491502765   -3.55721032900471   -4.50254840736000
F         2.06425285383526   -2.89718320022386   -4.50255037491024
C         2.50473491433418   -4.35941144902977   -0.86730593917895
F         2.08438487052912   -4.95213043104453   -1.98125838386969
F         3.81390519137296   -4.16837996597314   -1.00324768478856
F         2.34400857369757   -5.23632280881804    0.11965581818547
C         4.03961820246674   -1.67468514775899   -2.62817407948106
F         4.96930660042401   -0.73147479244129   -2.75037763231445
F         3.71458666614023   -2.05683907990836   -3.85992603200072
F         4.62303373288714   -2.71686348978891   -2.04303253910981
C         3.49548004549360    0.00000000000000   -3.71645041414084
F         4.73163621497510    0.00000000000000   -3.22571838476757
F         3.39327517264965   -1.06794314680471   -4.50254938956302
F         3.39327517264965    1.06794314680471   -4.50254938956303
C         4.92005227074660    1.03501232949151   -0.86730592957069
F         5.35386609588658    0.45207588830481   -1.98125865327758
F         5.14292645153878    2.33913927311179   -1.00324714649869
F         5.70437742108406    0.61117153086585    0.11965558739362
C         2.84103082519036    3.32439911178427   -2.62817407941587
F         2.23127406184888    4.50005340761388   -2.75037746012491
F         3.10404037880940    2.89718378306489   -3.85992609894427
F         4.01248672303644    3.55720929213525   -2.04303264409737
C         0.53602450593361    4.99908416128281   -0.86730591619822
F         1.22448605650957    5.23152837615597   -1.98125850960180
F        -0.63540201352706    5.61404743764837   -1.00324736766175
F         1.18149064144157    5.61404773804446    0.11965571789346
C        -4.25247495652193    1.01957928511255   -2.62817407757680
F        -4.45020405360863    2.32910962270744   -2.75037677428969
F        -4.21414295278388    0.51936236815955   -3.85992636334025
F        -5.33704498641440    0.51936149478958   -2.04303305824604
C        -3.37204091334889    3.72927672645244   -0.86730596148276
F        -4.06564647311728    3.51265957144659   -1.98125763710228
F        -2.78580317558591    4.91533944031226   -1.00324916143779
F        -4.25569947457670    3.84739838595791    0.11965645964809
C        -3.37204091334889   -3.72927672645244   -0.86730596148276
F        -4.06564647311728   -3.51265957144659   -1.98125763710228
F        -2.78580317558591   -4.91533944031226   -1.00324916143779
F        -4.25569947457670   -3.84739838595791    0.11965645964809
C        -4.58877084110522   -2.05459160147071   -0.86730597290559
F        -4.59709252483521   -2.78118520641283   -1.98125951001435
F        -5.53562669678859   -1.13053295630600   -1.00324569798425
F        -4.97417519512416   -2.85850196315549    0.11965482382298
C         0.54413818249354    1.67468516033722   -4.78849957845317
F         0.23767107904745    0.73147481112462   -5.67468925997942
F        -0.24013968171955    2.71686350152345   -5.04863903502921
F         1.79120914301982    2.05683909935453   -5.04863874564184
C         0.54413818249354   -1.67468516033722   -4.78849957845317
F         0.23767107904745   -0.73147481112462   -5.67468925997942
F        -0.24013968171955   -2.71686350152345   -5.04863903502921
F         1.79120914301982   -2.05683909935453   -5.04863874564184
180
 energy: -578.585385003017 gnorm: 10.233212507451 xtb: 6.4.1 (a3dbbd7)
C        -1.23076205058019   -0.00015466394935    3.31995702788542
C        -0.38202318818171   -1.17639562223434    3.32204715472108
C         1.00055434918410   -0.72683293135862    3.32223446870658
C         0.99505010534209    0.72468508322054    3.32072244337213
C        -0.38224089495633    1.17556184916858    3.33253032082349
C         2.33558179444644   -2.58995013760187    0.59139246529317
C         3.19384299237899   -1.42148568507366    0.59353314187671
C         2.96394852906540   -0.70092274983090    1.83103348930919
C         1.96380398127318   -1.42700912202034    2.59465787298686
C         1.57755846769128   -2.59173777060011    1.82612207364823
C         3.18837827063199    1.42519015744563    0.59342696753696
C         2.34392845141586    2.60125966511006    0.59534893140400
C         1.58113268976514    2.60298084627960    1.83085698605184
C         1.95676010806353    1.42426622747331    2.58604403436570
C         2.95539083893604    0.69501836596955    1.82645893597643
C        -0.36885259190779    3.48276275131904    0.59869685784255
C        -1.74675206479728    3.03445393007523    0.59641390936097
C        -1.97909655719775    2.30609430262692    1.82726735635322
C        -0.74935413489292    2.31054033592559    2.59423707516730
C         0.24866982035853    3.03315624035686    1.82936322476804
C        -3.42618615719715    0.72698802564798    0.59458354477238
C        -3.42670279372498   -0.72584444190938    0.59545928247923
C        -2.79966648157016   -1.17090511649493    1.82324687645949
C        -2.41490073708409    0.00001352494608    2.58183037634041
C        -2.80131859964490    1.17171124511373    1.82280855413609
C        -1.74227753949518   -3.02745667572505    0.59325687401094
C        -0.36760916985522   -3.48339373899111    0.59571290076847
C         0.24613967192843   -3.02971320513285    1.82741648881642
C        -0.74982024528782   -2.30810957863014    2.59372181404126
C        -1.97718327719674   -2.30065013528510    1.82660534104730
C        -0.24945227166856   -3.03462137189271   -1.83112529725152
C         0.74837146446537   -2.30691173949709   -2.58878557572922
C         1.98577725548829   -2.30748776319152   -1.83150115886483
C         1.74345870806025   -3.02831578235322   -0.59650196399996
C         0.36819598293931   -3.48392741693795   -0.59679719432801
C         2.80538664175949   -1.17592187424429   -1.82796987443754
C         2.42288179262358    0.00144065946999   -2.59318162131849
C         2.80885127082251    1.17406944221124   -1.83162200295183
C         3.42024235857275    0.72379540354977   -0.59773972868928
C         3.42625652978613   -0.72598970463883   -0.59653582569047
C         1.98568561587597    2.30852083071613   -1.83125009531506
C         0.74716139466325    2.30993187179288   -2.59181149128365
C        -0.25067623209396    3.02972884549630   -1.83222445111737
C         0.36820153245163    3.48369171278468   -0.59571658310551
C         1.75026610485383    3.03336333549072   -0.59380523397360
C        -1.57873426373959    2.60163118531217   -1.83230475543722
C        -1.95894944739948    1.42614392666950   -2.59468396826909
C        -2.96355484228034    0.70059685145178   -1.83185527136694
C        -3.19858436260555    1.42512490383436   -0.59374098383089
C        -2.34651181263100    2.60174224488100   -0.59598333410664
C        -2.96275979858352   -0.70211889464934   -1.83285722717574
C        -1.96225008958842   -1.42578984720146   -2.59371067109379
C        -1.58169929541885   -2.60135823786896   -1.83226840040471
C        -2.33892861033466   -2.59585772343992   -0.59690112654282
C        -3.19535355809553   -1.42156700352282   -0.59521511701745
C        -1.00099926937595   -0.72608559162468   -3.33086831244027
C        -1.00261055431252    0.72624484315586   -3.32980671391258
C         0.38147492676922    1.17640161602178   -3.33058669074935
C         1.23578977831205   -0.00101373290742   -3.33113728574610
C         0.38000270254088   -1.17104560295775   -3.32686309406819
C        -1.77084801756225    0.00500813169520    4.74883277940098
F        -0.79419562099640    0.03775763786725    5.70698025763032
F        -2.52132462529818   -1.03290086294463    5.08686615104347
F        -2.47366901370042    1.08491078482298    5.08526899507550
C        -0.54209792374769   -1.69080531407526    4.75593587855512
F        -0.25804911426102   -0.76860015438088    5.71311232724403
F        -1.75965271099736   -2.12144440669005    5.05595286805213
F         0.17951481957744   -2.74562451204246    5.05311860839059
C         1.43158318210357   -1.04735768073705    4.75751627362507
F         0.65808184604158   -0.47158116951449    5.71222417377788
F         1.46902039322400   -2.32742370758801    5.05334096867916
F         2.66852882002021   -0.68083226966396    5.05512585608408
C         1.43798251994378    1.03879303893542    4.74873167091716
F         0.61779219247014    0.50359279268427    5.70809941729994
F         2.65659328622795    0.65055730429910    5.08066691488503
F         1.36681059812245    2.34060371187098    5.07994725660055
C         3.34732446593449   -3.70596949463396    0.84287381635052
F         4.09251005698447   -3.54999508479468    1.97531012649452
F         4.24743549910196   -3.89625431466472   -0.10749557079303
F         2.83450585774508   -4.93939212792210    0.99231342135151
C         4.57771351747766   -2.04432657818896    0.84435524822299
F         4.64065901507821   -2.74935814634156    2.00598905401849
F         5.02321759740050   -2.80475708599070   -0.12688603812013
F         5.54287022501281   -1.13196865452476    1.00588329623595
C         2.25400722804691   -3.71526442803764    2.60866701715759
F         3.59298738694463   -3.51315625350703    2.81290374034673
F         2.15833545915166   -4.93161988959208    2.09352199058567
F         1.83074312734617   -3.83791410824413    3.88200484407501
C         4.56907216529857    2.02512420704769    0.84432083464045
F         4.61641510820647    2.83788548467133    1.96001671797200
F         4.97447740802171    2.89399625733180   -0.10313244400275
F         5.56238566687173    1.16890477848052    0.98216066422720
C         2.80104333455588    2.02700592746141    3.70800171443208
F         3.81623521667817    2.83633485910562    3.25308949752406
F         2.13774396632908    2.90139187698168    4.49122994870860
F         3.36978437698520    1.17269522869021    4.53252963934562
C         4.23758739602471    1.00261839570847    2.61898909116251
F         4.48575997386126    2.31241735597110    2.77215539470144
F         5.33785927681412    0.48056736990654    2.10169291943234
F         4.26591820982655    0.47707690332913    3.83484138949747
C        -2.82897667487463    3.32094316943098    2.61665857782349
F        -2.23137092134320    4.50395924359361    2.75236518336818
F        -4.01003413012957    3.58786981220800    2.03637085008032
F        -3.07509605307208    2.93803135889269    3.88087369361785
C        -4.00308006958701   -1.67660686791444    2.61660305387691
F        -5.01632153038629   -0.76266993502034    2.72545870281629
F        -4.66764322662958   -2.69423504679347    2.03431707800198
F        -3.76117711884666   -2.08392240095297    3.85412344037883
C        -3.47006349753430    0.00287899865327    3.69151604115046
F        -4.73804936094177   -0.00023686498195    3.27047300960023
F        -3.42573282182428   -1.03723416406917    4.53839627052977
F        -3.42351261206128    1.04340395596729    4.53777068419197
C        -4.00226634591085    1.67946381676075    2.61510228297018
F        -5.01954928504162    0.76140016759413    2.72450037919481
F        -4.65412958359221    2.70804379364992    2.03240729073292
F        -3.76179717180083    2.08568493779894    3.85207247226739
C        -2.49801207568144   -4.33119810010658    0.85542625754951
F        -2.08180863144731   -4.99479840092720    1.95533492902922
F        -2.31848659461623   -5.26848931906229   -0.09873550781194
F        -3.80970372232337   -4.22382837344560    0.99229248256645
C         0.34642631004203   -4.34132737818625    2.61734333911036
F        -0.81827984004994   -4.96610787954312    2.76313831502501
F         1.10850615690116   -5.27201504980875    2.03101453812980
F         0.77373939712210   -4.17936817708756    3.88413615590569
C        -2.83116547121762   -3.30211877238915    2.61062826708013
F        -2.24407864237077   -4.49495118318277    2.79772183816053
F        -4.02851065403209   -3.57124520997767    2.09174904028511
F        -3.07487407367317   -2.93932551603372    3.88702425174924
C         1.07485641577426   -3.31783810230287   -3.70250465039391
F         1.45361323453413   -4.49838025604848   -3.24826419951374
F         0.02656570437068   -3.59508691693891   -4.49188450134348
F         2.09121190344500   -2.92437201057335   -4.49531073308155
C         2.49334427136088   -4.34541534856077   -0.86710564362479
F         2.09540152501369   -4.96507803494028   -1.96436723180354
F         3.82297047725207   -4.17808047713885   -1.03772076637410
F         2.31580010550176   -5.26895544033279    0.08998245314035
C         4.03015224251334   -1.68018986537333   -2.62673196921142
F         4.98790375389272   -0.77456985639890   -2.73606009125121
F         3.73533518125657   -2.11391876571622   -3.82695069853187
F         4.62709994069143   -2.71805722920774   -2.04564116044088
C         3.48434155044546    0.00461858125281   -3.71956551717865
F         4.72539445844109    0.03145038954889   -3.26127532834810
F         3.37812628110923   -1.01413531714206   -4.54213024749249
F         3.39650031058104    1.06593255140354   -4.50415480417631
C         4.90026944690903    1.03422026773909   -0.86437525698924
F         5.37188028630950    0.46719235879355   -1.96651431577180
F         5.15356556964551    2.34209507702519   -1.03995286172985
F         5.72898535389792    0.58047706171464    0.09859595199292
C         2.83873286147304    3.32390618395311   -2.62891405763956
F         2.24900925805662    4.48928290697588   -2.76453053216030
F         3.10704062185819    2.90038635802978   -3.85940925417598
F         4.01431059616763    3.55991697890210   -2.04368542793469
C         0.53464847019073    4.99810419649178   -0.86727307232355
F         1.20781991895287    5.24588593402729   -1.96930355923105
F        -0.63618589026366    5.61571212676703   -1.00304029144125
F         1.18237944385755    5.61557319808797    0.12097806699389
C        -4.25118096436581    1.01952191451836   -2.62826506998061
F        -4.45832682457880    2.31010257021148   -2.76470865851280
F        -4.21494474471566    0.51809553953397   -3.86194419223948
F        -5.33912558785436    0.52081608651280   -2.04413542201088
C        -3.36982680623380    3.72916249636135   -0.86856771427725
F        -4.06068748765352    3.53402672050108   -1.96918159628735
F        -2.78641474807593    4.91706067649622   -1.00293534358776
F        -4.25868948527956    3.84869250739747    0.11930106436184
C        -3.35560938071720   -3.70966958974766   -0.84291999868998
F        -4.05132058368252   -3.55565201692522   -2.01026218922830
F        -2.79269649404013   -4.92777246331182   -1.05015574339073
F        -4.25235604951484   -3.89126878490014    0.08372047326942
C        -4.58212191349431   -2.04697390264010   -0.85824701544979
F        -4.62971234220745   -2.74734194213858   -1.99707411169557
F        -5.53988724498457   -1.13136287036450   -1.00297577619916
F        -5.02447003118350   -2.80332611147857    0.12551792868121
C         0.54376686764698    1.67639077358924   -4.78714222608513
F         0.23724053526019    0.75551871509679   -5.67752127335394
F        -0.24074826601377    2.71814540967106   -5.04940291484310
F         1.78873817560162    2.05760904461859   -5.05217711587301
C         0.53888310315112   -1.66477170280123   -4.77864724569925
F         0.23741873619422   -0.75579596402667   -5.67862210723844
F        -0.26179909990412   -2.69839072259380   -5.07383301857453
F         1.79710577768210   -2.03160070548254   -5.07482442496591
180
 energy: -588.232048620927 gnorm: 9.439738852323 xtb: 6.4.1 (a3dbbd7)
C        -1.22630487588107    0.00117594617583    3.31204302728324
C        -0.38315345816570   -1.17802325605400    3.31876614983944
C         1.00236817612522   -0.72762690736280    3.31767054848524
C         0.99041537671086    0.72262878099203    3.31537863912650
C        -0.38161031005754    1.17486795448246    3.33465823828776
C         2.33428828497333   -2.58480195531238    0.58863069041014
C         3.19273554494787   -1.41808468877269    0.59285275509760
C         2.96530255542034   -0.70154559091292    1.83133471306772
C         1.96508000167095   -1.42896747006507    2.59349657411174
C         1.57746548711177   -2.58757949072380    1.82666355928190
C         3.18654767086553    1.42770678131312    0.59329488563792
C         2.34283267513345    2.60146305276864    0.59518345707175
C         1.58146926458449    2.60345746742103    1.83073227171132
C         1.95421035340305    1.42570973410374    2.58053835000340
C         2.95235787895442    0.69198480044443    1.82485811938012
C        -0.37067890727994    3.47952941053017    0.60256520201294
C        -1.74269525450479    3.03522426684380    0.59798311462889
C        -1.97359210023626    2.30724777789756    1.82510362607081
C        -0.74869739318933    2.31360664229851    2.59349224572789
C         0.24676076643768    3.03278555380626    1.82767870783317
C        -3.42559365809221    0.72754829934134    0.59363607128303
C        -3.42842364482242   -0.72521114016703    0.59688103176318
C        -2.79724837156410   -1.16780335823751    1.81857670305847
C        -2.40724854481321    0.00068450628732    2.56883575927226
C        -2.79808614677883    1.16961456015241    1.81783565940760
C        -1.73663175950525   -3.02594900062334    0.59279965653816
C        -0.36825726942602   -3.48403567635945    0.59578239643367
C         0.24140629782865   -3.03005906523095    1.82581108027042
C        -0.75048540156947   -2.30922191575340    2.59184672972215
C        -1.97225541994176   -2.29987786637583    1.82608638613154
C        -0.24871849631615   -3.03560264383195   -1.82962098612701
C         0.74829098194602   -2.30911699323929   -2.58622659676744
C         1.98548609799939   -2.30809680005905   -1.83210443985914
C         1.73780392823379   -3.02589780442704   -0.59971383500373
C         0.36826079808426   -3.48315651780398   -0.59934538696753
C         2.80460939655896   -1.17632236304008   -1.82549678754348
C         2.42101412268641    0.00339767078772   -2.59191413991129
C         2.80944120060786    1.17217879130056   -1.83161627504700
C         3.41845989477575    0.72117239248910   -0.60223288017485
C         3.42633410602699   -0.72546043793641   -0.59826749322020
C         1.98615954579168    2.31162014164860   -1.83255117538743
C         0.74454596804580    2.31229467022643   -2.58816699432342
C        -0.25060235159327    3.02580047443624   -1.83339753164786
C         0.36890493186134    3.48868706291492   -0.59708776000560
C         1.75059219031820    3.03220688820344   -0.59213276146045
C        -1.57702217614258    2.60000271121608   -1.83406005100091
C        -1.95535473230727    1.42654416514153   -2.59449378511220
C        -2.96664398473132    0.70260753392906   -1.83396573865348
C        -3.19808774403186    1.42414677628781   -0.59242076568354
C        -2.34930156994270    2.60445471962619   -0.59748054874562
C        -2.96114813809571   -0.70535163701868   -1.83405722367314
C        -1.96157154349448   -1.42524949914536   -2.59204331402031
C        -1.58287900800048   -2.60076603670171   -1.83394106072232
C        -2.33684945082211   -2.59414200719849   -0.59999874666518
C        -3.19389387760373   -1.41796645038076   -0.59623827712180
C        -1.00273407398749   -0.72545815639662   -3.33027725728451
C        -1.00510865602039    0.72579493872122   -3.32729042391146
C         0.38102906836807    1.17708816804007   -3.33490906167236
C         1.23519586139004   -0.00187542931304   -3.33111208758406
C         0.37875791904998   -1.16803505957200   -3.32794037873631
C        -1.78828922894710   -0.00457614764800    4.71046647624779
F        -0.81958419717829    0.09274594467018    5.73942570413995
F        -2.51794732284118   -1.00148373117716    5.11759575884602
F        -2.41448928382083    1.10410463469380    5.12741728902822
C        -0.54479195823354   -1.70994626027953    4.72344144961966
F        -0.29959129127948   -0.82217241565046    5.74907636948234
F        -1.73283258481084   -2.16366882242199    5.05909747786783
F         0.13859996368640   -2.76082642935048    5.05711900209404
C         1.44460339199630   -1.06022323683533    4.72588534075387
F         0.72653098260070   -0.49868633573711    5.74596086784148
F         1.51141451979828   -2.31632206741069    5.05723128804395
F         2.67472412663156   -0.72974352102335    5.05622971268721
C         1.45524208911536    1.04142309439023    4.71231351210467
F         0.60427938443838    0.56902197332785    5.74050480235778
F         2.64168486447975    0.67759664955585    5.10841416245281
F         1.31139231727240    2.31809668045084    5.12661571624476
C         3.31783914921396   -3.67990664282792    0.81479556070958
F         4.11900749365438   -3.59826494976455    1.95525223904206
F         4.24128746084816   -3.93028930989563   -0.07880722269525
F         2.89426921906571   -4.95475029338319    0.99900280094934
C         4.56744046778535   -2.03500098924287    0.82174941471228
F         4.68291117548954   -2.71310615169626    2.03432874516684
F         5.05480954288101   -2.76838067806723   -0.13015412931994
F         5.54700105569959   -1.13561771285968    1.00796794066686