180
 energy: -612.362287663379 gnorm: 0.988117788931 xtb: 6.4.1 (a3dbbd7)
C        -1.22770881731546    0.02496547058450    3.39863577626873
C        -0.38165083113360   -1.20672135285794    3.39267403603898
C         1.03495933928777   -0.74443730747860    3.40400600886868
C         0.99475368933245    0.74961773093610    3.41123904789672
C        -0.38207110285471    1.20207127629643    3.25984414795324
C         2.40797062010823   -2.67228254113517    0.61351556171256
C         3.27196690804011   -1.44546379273745    0.61454937413229
C         2.87296385384887   -0.71879471476565    1.81731254630371
C         1.96964041651083   -1.37500001004780    2.51029761539765
C         1.63808425685744   -2.65185216977337    1.88828855152883
C         3.26862741333377    1.49562022867020    0.61526772484094
C         2.27588210614406    2.59490154142662    0.57863607420411
C         1.54356110643736    2.62018072236633    1.78913154830115
C         2.00711792836139    1.49899188976213    2.62638336472646
C         3.02790671785946    0.71172154206109    1.86757578138425
C        -0.39629540398165    3.43191624402133    0.61509658882017
C        -1.66129396737706    3.01175982361073    0.58248558154800
C        -2.00516198562660    2.40271242615933    1.87743337480335
C        -0.70462695425637    2.28308958533124    2.57367787587829
C         0.25696502802159    3.03192094727467    1.82716327881203
C        -3.35966988327278    0.70371921207168    0.53918539764894
C        -3.40734446462295   -0.66445706854911    0.58161240002809
C        -2.89263780039443   -1.17709341165132    1.83662859179182
C        -2.47554749104236    0.01567922902189    2.62038787328933
C        -2.89201780542415    1.21815961707112    1.83846602595360
C        -1.73899879689780   -3.09262916426982    0.61088876633509
C        -0.33232199885832   -3.44470608942186    0.55457742412382
C         0.23584348782267   -3.11371906724466    1.86377900033372
C        -0.74037271766678   -2.29361088386458    2.54570503998707
C        -1.99906806697173   -2.35409636013465    1.86759405901951
C        -0.28102151062499   -3.01282531539981   -1.80039824874942
C         0.76438562228878   -2.39556981224867   -2.65010086042432
C         1.93790365182953   -2.29032259909972   -1.81110927871503
C         1.75652959504432   -3.11318639825382   -0.63915424385157
C         0.32140488955668   -3.44025134019887   -0.59307661489510
C         2.85961770003058   -1.20711388331292   -1.84930862080021
C         2.46183415902658    0.02141425990209   -2.64830477544139
C         2.77418119292560    1.16046325709760   -1.81721850508955
C         3.49557744700620    0.73357646428261   -0.63896309462440
C         3.38450484269917   -0.70869750934051   -0.60011545695960
C         2.01568425369151    2.37529000310460   -1.86366387835127
C         0.70175325177127    2.31384276734437   -2.52800299055127
C        -0.23461896591990    2.98343576386570   -1.83904969422793
C         0.37953658167238    3.58933519204713   -0.61693682051455
C         1.73419026034184    2.99724224776255   -0.55919603782957
C        -1.56681788665148    2.55324851921855   -1.85616232202337
C        -1.92757543015700    1.44903025064229   -2.57044952311683
C        -3.03494614368958    0.72851145285635   -1.88520111534876
C        -3.17166255339916    1.40858872752807   -0.57942446821192
C        -2.40395457981260    2.66949624012255   -0.62525816817782
C        -2.88992465476000   -0.71797106305928   -1.85226246878579
C        -1.96977586117447   -1.40749057079071   -2.57744930983380
C        -1.54017267465629   -2.56793338570301   -1.85889788683199
C        -2.37760450443146   -2.62500012601264   -0.65258677277244
C        -3.27361061831002   -1.43698128358811   -0.63262085256843
C        -1.02537237731313   -0.67186742529215   -3.31122677857903
C        -1.02027897701294    0.69077430558345   -3.29947378874520
C         0.37501485838430    1.20097100111439   -3.40575837247453
C         1.19838617326685    0.00913371604620   -3.29916180419636
C         0.36662170767830   -1.17152938753704   -3.42733520099098
C        -1.72748169888828    0.13964535512518    4.82966079870844
F        -1.00441139769530    0.37821904087782    5.94461297283539
F        -2.27734855924675   -0.76279614408811    5.44432487957339
F        -2.11453431609490    1.38985519269938    5.18970079171340
C        -0.57501763816260   -1.83211540793190    4.78000366287094
F        -0.51694336955272   -1.32291785472521    5.91807696770946
F        -1.70344205693963   -2.39733821465574    5.04667508654000
F         0.03036415727223   -2.91667878369389    5.07614214802130
C         1.58082804683306   -1.13614903653609    4.77302904044940
F         1.22153610559283   -0.77519556576721    5.91222817690020
F         1.70707167575172   -2.35416291118637    5.09188790623866
F         2.88295549768909   -0.93314043660070    4.91545658038875
C         1.36859975910592    1.14343442539031    4.85175688964965
F         0.63184620577677    0.90611797063195    5.88025804780724
F         2.39812791057609    0.73564742313034    5.47760977493844
F         1.05748230954079    2.37855809093249    5.23547248192898
C         3.41080504635670   -3.80430817846620    0.84440253414277
F         4.28789758789638   -3.97459282349715    1.80052940333061
F         4.41410110546529   -4.07457876166614    0.09937950960813
F         3.19645633561236   -5.06051094127537    0.99956570711467
C         4.69854300065351   -1.98632197122850    0.87253639141757
F         4.90763825093199   -2.32451068701788    2.14641131666992
F         5.23995697805748   -2.55209890430463   -0.16452429640886
F         5.62107525829127   -1.12813166792012    0.96819574092836
C         2.33767925981234   -3.68695532586303    2.75953790547032
F         3.55331888941905   -3.31841652148705    3.25356668777959
F         2.39507995115811   -4.90943442193626    2.54504457438969
F         2.10792436691120   -3.78307884184960    4.00853036406257
C         4.58852695818841    2.21415215503756    0.84763737217516
F         4.63988499172433    3.21904702605070    1.74819093467356
F         4.89003795200640    3.18979170459335    0.04898318222810
F         5.66455565759209    1.64188620219021    1.11355464776667
C         2.80406267919649    2.19929795310720    3.72409375604222
F         3.66920806727112    3.24481055187198    3.37380669890589
F         2.27281914259107    3.21480387730085    4.33493843248205
F         3.58639132267256    1.64019157867984    4.52043644481873
C         4.31296116121937    0.84118093403659    2.65946283181591
F         4.83889878149705    1.89449505085587    3.00279819607092
F         5.37466716473450    0.24025726267069    2.24987435848604
F         4.36638026224735    0.15445358951728    3.80759804612522
C        -2.76787865669601    3.46092778847356    2.66354473560966
F        -2.09772707412401    4.59339930327310    2.72443325354268
F        -3.79013514875671    3.98106452557480    2.10104680138600
F        -2.74816452601506    3.24140218679921    3.96158378005789
C        -4.17093653231141   -1.67030932355141    2.51962317991901
F        -5.33732104762331   -0.94198611355880    2.36850632957166
F        -4.94171432163717   -2.51298526336269    1.90457603638002
F        -4.29417369021793   -2.11718237857274    3.66046626758011
C        -3.49054444819252    0.08921179953679    3.72473308065905
F        -4.70765457592772   -0.04182851272363    3.71698218920443
F        -3.81617027431741   -1.01806576263930    4.88049159532279
F        -3.69888613814145    0.85638851531614    4.73112842795345
C        -4.17118038732691    1.70290666621196    2.52062282686396
F        -5.31209644352423    0.97220490456414    2.40467005156090
F        -4.90346272373166    2.55648004779095    1.86082818641039
F        -4.24044814161812    2.16858419839506    3.67680944620952
C        -2.51762920139497   -4.37426161011182    0.68308121313037
F        -2.09640151892313   -5.42564481429702    1.80447744115034
F        -2.04947430263569   -5.45544892900753    0.09556329207034
F        -3.66571519762249   -4.70980734174498    1.07476933489798
C         0.32081623699444   -4.43829017756242    2.63350997792967
F        -0.69535967003462   -5.11757496948355    2.86305335210074
F         0.76926988668360   -5.43916117013660    1.87355751212858
F         0.43839024604799   -4.37856405134611    3.91976142295596
C        -2.83086398740051   -3.31885253357743    2.70708043599904
F        -2.35315187311499   -4.48230432395664    3.09624465163179
F        -3.96165537884472   -3.82394158151839    2.55498135769199
F        -2.87035569800446   -3.19632835615540    3.99772698089442
C         1.07854710011907   -3.41989872611881   -3.73257122249926
F         1.37011871671052   -4.59408474529073   -3.37842911480606
F         0.02991434775019   -3.92790885183987   -4.33147064825050
F         2.18626865813774   -3.26737505843831   -4.35929209223232
C         2.46747002026752   -4.44915368955998   -0.93910693794748
F         2.11349381453848   -5.13837661870584   -1.91728291957335
F         3.67221886634882   -4.32869200697541   -1.48540201174142
F         1.95504823504837   -5.44949604086479   -0.18900506163721
C         4.07299675612824   -1.78719807527218   -2.61438987619556
F         5.16786994915600   -1.15570041831051   -2.65406535783194
F         3.84224066758301   -2.31669461405135   -3.75458523220649
F         4.65191315586500   -2.78657444869849   -2.05157671813293
C         3.46975520337607    0.06471656657434   -3.81855341968136
F         4.69363608557977    0.30642377606516   -3.60412065116606
F         3.36366460698672   -0.84330026245966   -4.71199803156972
F         3.36196085350635    1.09546739994608   -4.58606350585081
C         4.99250546114045    1.02201385511796   -0.92521526484988
F         5.52825948336347    0.52085072481072   -1.95176125249437
F         5.28997727917426    2.18661514253300   -1.39318544700415
F         5.85230916346308    0.36283437183749   -0.19802380220161
C         2.89314186431733    3.34513273721357   -2.65953099527459
F         2.36473474074922    4.47109579095613   -2.91035127100258
F         3.17158934090501    2.94586771791694   -3.84749332020196
F         4.00145679660991    3.61690251900218   -2.04949206990742
C         0.50974498539659    5.06730043703524   -0.83589446578309
F         1.08499345515258    5.40182957463782   -1.91853918432907
F        -0.66540215457768    5.63594143087199   -0.97330107589492
F         1.18614810905535    5.62312371227031    0.15205320950249
C        -4.29449629974178    0.99216268042458   -2.67910656983941
F        -4.53899160840919    2.21335761152464   -2.92216638302740
F        -4.20695322282962    0.46818495554102   -3.89062905518370
F        -5.36113089525970    0.56545682907282   -2.07567166880571
C        -3.38424972102487    3.79832378207477   -0.85300326103701
F        -4.04802546737216    3.72756925128147   -1.93372364030100
F        -2.77267866396939    4.95164026075807   -0.97594140672211
F        -4.28834621033500    3.85832799185419    0.08331953345983
C        -3.25228205156631   -3.81228463006626   -0.82389187203322
F        -3.97137906251063   -3.82751369481014   -2.37609990541840
F        -2.86537357102093   -4.87530994790321   -1.43693858435734
F        -4.42172552460635   -4.05545257946455   -0.41997823950106
C        -4.68050830209849   -1.96052217447420   -0.85330987506523
F        -4.87417363611257   -2.45828509773739   -2.04098232557261
F        -5.59335853935738   -1.05811126505254   -0.96670077390937
F        -5.25196265829057   -2.57589117867566    0.10443391747739
C         0.53469718430977    1.74934356126998   -4.82161330614502
F         0.19975592245278    0.98434782225601   -5.75943204823090
F        -0.26687435398734    2.77853820551836   -5.02352312835293
F         1.73207669919742    2.10700246162415   -5.10941392999077
C         0.50245298300600   -1.64408305921239   -4.87810069499782
F         0.16281375467739   -0.81740039153004   -5.78823909129794
F        -0.44193495004619   -2.44425030453251   -5.29379748605652
F         1.69380577980486   -1.76591060925549   -5.33365107935337
