62
 energy: -137.563166854039 gnorm: 0.000079947565 xtb: 6.4.1 (a3dbbd7)
C        -1.29380189142293    0.00518810975266    3.53475042546279
C        -0.36795491470580   -1.17109445736895    3.30532490038581
C         0.98604358283337   -0.72205662153057    3.28338601634011
C         0.99279845569028    0.71960958020434    3.28670177220412
C        -0.35984581254024    1.17608479242461    3.30752732760340
C         2.33713649004571   -2.58532145161085    0.58372316331785
C         3.18546133793759   -1.42134997264655    0.58338208878717
C         2.95082976620164   -0.69852042803930    1.80993186584047
C         1.95446102216782   -1.41753025851411    2.56281800021944
C         1.57847833033781   -2.57892028349053    1.80920393433954
C         3.19288167803387    1.41169296432545    0.58672865582473
C         2.35105136029066    2.58084981847724    0.59261819528430
C         1.59758832697668    2.57820008875605    1.81796532275165
C         1.96559431354784    1.41132811232743    2.56849274624772
C         2.95756435296723    0.68790137312963    1.81257795942740
C        -0.35275196897409    3.42887133849168    0.59421742049523
C        -1.72920692229924    2.99230129003520    0.61519127722458
C        -1.95197042618735    2.29668273330733    1.78890012206403
C        -0.71485852606077    2.27608556030605    2.56877936383865
C         0.27214507062583    2.99541427636099    1.81693304163630
C        -3.38721742288295    0.70448508843178    0.56514887497333
C        -3.39044375775274   -0.72968934853056    0.56550558817146
C        -2.77113539472441   -1.15912612265277    1.79248966840215
C        -2.41317429079729    0.01751644177935    2.54950357180152
C        -2.77182627205049    1.13563561134442    1.81994410998792
C        -1.73355122268659   -3.00708034664607    0.58129730270537
C        -0.36181166270692   -3.44426421951826    0.58345136711438
C         0.25275073307619   -2.99321810486982    1.80880479424469
C        -0.73039712791208   -2.27135950943121    2.56586851742324
C        -1.97279304600038   -2.28576170766145    1.80102269682824
C        -0.24238615112945   -3.01793584622875   -1.82445515299701
C         0.75219722331257   -2.29732681147523   -2.58092298223561
C         1.97624114646521   -2.29597968001587   -1.82132020587332
C         1.74307643045859   -3.01315945447727   -0.59635165459212
C         0.36952394179264   -3.45595661079619   -0.59532061061890
C         2.79389381083502   -1.17006079615157   -1.82189978789697
C         2.41348009957297   -0.00705489229052   -2.57818086595715
C         2.78999064750528    1.16020365821852   -1.81761248140956
C         3.41015703318610    0.71618948342090   -0.59477681854074
C         3.40904188499398   -0.72628404265143   -0.59717927367984
C         1.96766155284354    2.27743617061842   -1.80961098452332
C         0.73818631315969    2.27318131636995   -2.56526366176596
C        -0.25452817372238    2.98697308127654   -1.81304848877457
C         0.37433917950606    3.44714002836196   -0.57954542322151
C         1.74069841374485    3.00184911275993   -0.58628229109115
C        -1.56594286660743    2.57622153348487   -1.82757382821072
C        -1.93060359076478    1.40833920854940   -2.56142004737257
C        -2.92558718059454    0.68471965133326   -1.80985060540908
C        -3.18336452045091    1.39842201201719   -0.60046258538095
C        -2.49261081939282    2.74597890286004   -0.64190319443319
C        -2.93337982074983   -0.70819502150591   -1.82878957204493
C        -1.94087750651851   -1.42668590891227   -2.58871417977512
C        -1.56447467303262   -2.59492957963295   -1.83010971308821
C        -2.32899579696595   -2.59691491413030   -0.60898361949216
C        -3.17400858337551   -1.43281811038797   -0.61332327338214
C        -0.98438829443742   -0.73034962028861   -3.31153930258603
C        -0.98168514679102    0.71067458913262   -3.30542238699281
C         0.38278275322509    1.15383295034001   -3.30684835980828
C         1.23382314639336   -0.00939761816394   -3.31093861539930
C         0.38818347913191   -1.17531879821918   -3.31264620408259
Cl       -1.92621810876854    0.00794379942123    5.24496950921280
Cl       -3.69873659772651    4.07913281862690   -0.94789575544924
