62
 energy: -137.550228237367 gnorm: 0.000133040204 xtb: 6.4.1 (a3dbbd7)
C        -1.30083914386286   -0.00751482100066    3.52056923705543
C        -0.37369416896997   -1.18117842290798    3.29833153673730
C         0.97572373923154   -0.72362863190271    3.26748998972417
C         0.96737373013025    0.71901929286025    3.27240612737539
C        -0.37364521125742    1.17186286558405    3.30277408346093
C         2.33562306071551   -2.58849866756677    0.58122326632684
C         3.18642607265981   -1.42391308827090    0.57830206226493
C         2.94480354734056   -0.70002048505896    1.80050413133068
C         1.94970719220943   -1.42438104081687    2.55884356031585
C         1.57647159985849   -2.58305455471894    1.80828078351990
C         3.18561998741407    1.39988081379730    0.57662336761434
C         2.32603860919314    2.56485457873048    0.58574128584482
C         1.59491906959305    2.56804378563687    1.80316731774809
C         1.93934627360451    1.42093749451270    2.53614943124470
C         2.94666793515696    0.68335370667637    1.79499263307053
C        -0.36604391823065    3.45636887482196    0.57385634847990
C        -1.71007942670800    2.98221244205455    0.57631313995079
C        -1.93791174100552    2.26645035261735    1.80802254772811
C        -0.74961031784631    2.28364502132478    2.57740473759026
C         0.26009119291040    3.20917637075731    1.92781954514174
C        -3.39852348263253    0.70594621453103    0.56990610575851
C        -3.40450108827357   -0.72754332703306    0.56848554328965
C        -2.78210890826160   -1.16263375940105    1.80116572379351
C        -2.42661696994256   -0.00985596829704    2.55041213212331
C        -2.76910086292144    1.13127287462212    1.80725607989591
C        -1.73751153115336   -3.00670576727649    0.58753051685150
C        -0.36065452037866   -3.44876840456737    0.58558069478686
C         0.25143213398582   -3.00972255794092    1.80782293561252
C        -0.73676030868609   -2.28631246579753    2.56418800924904
C        -1.97730074875702   -2.30117405677204    1.80331581688093
C        -0.24502670381974   -3.01138112079434   -1.82118656787423
C         0.74389916233140   -2.29234590003563   -2.57864392258190
C         1.97432210816721   -2.29303291445647   -1.82365774235101
C         1.74063568461616   -3.01311310938438   -0.59740995932362
C         0.36695716359168   -3.45485864005011   -0.59655341493109
C         2.79396289950226   -1.17438309075003   -1.82811356503906
C         2.41262642353711   -0.00356489903707   -2.58096196181630
C         2.79444075129939    1.15483945975904   -1.82691047223301
C         3.41349545925189    0.70964385888544   -0.60586475332006
C         3.41388301256147   -0.73168300727922   -0.60408860928647
C         1.97159494105666    2.28484483418882   -1.81438892297075
C         0.73977444713025    2.28054038888187   -2.57186248907851
C        -0.24915446906547    3.00127767961017   -1.82095442520220
C         0.36027657557697    3.44350458498613   -0.59419783674190
C         1.74807151703029    3.00522759693232   -0.60421565697300
C        -1.57369711801724    2.57307384334365   -1.82404294611861
C        -1.95274481007090    1.40865621178576   -2.58722842359811
C        -2.94701951061455    0.68564613785902   -1.83303099621203
C        -3.17355981396689    1.40262097212513   -0.60389156383110
C        -2.32293859697609    2.57156901083810   -0.60589507314160
C        -2.94811506214108   -0.70322626297306   -1.83583769230930
C        -1.95070228291072   -1.42239712035431   -2.58848682294148
C        -1.57161575023914   -2.58627187541270   -1.82382245151942
C        -2.32988524703582   -2.58604608732024   -0.60673091360374
C        -3.18139766997434   -1.42532155703045   -0.61047172210995
C        -0.99381966672620   -0.72611155671544   -3.31151480884397
C        -0.99441008985424    0.71500819784840   -3.31106424881544
C         0.37828317764507    1.15976846928787   -3.30678181077326
C         1.22439657953312   -0.00428705991589   -3.30805762631278
C         0.38021144219971   -1.16879727518979   -3.30849577018490
Cl       -1.92743083188636   -0.00230685177412    5.23954211644039
Cl        0.37755499984897    4.77090524233907    2.87430312970216
