62
 energy: -137.538687507115 gnorm: 0.000129739905 xtb: 6.4.1 (a3dbbd7)
C        -1.30862937452703    0.00488461813728    3.53124029649117
C        -0.37754726545257   -1.16839079117254    3.30465844133859
C         0.96402968328788   -0.71168718347232    3.27243491154327
C         0.96500828411780    0.72763142253146    3.27913315910138
C        -0.38485531444857    1.18269134655345    3.31473155747427
C         2.33326629718211   -2.59784195874903    0.58195763153125
C         3.38895893259803   -1.51587489100327    0.62929833989504
C         2.93940863503706   -0.69237168925556    1.81862125756675
C         1.94006932804303   -1.39764644662517    2.53510828090595
C         1.56590124442928   -2.56589004681445    1.78222033718987
C         3.18104221749123    1.41596154590133    0.58357737055556
C         2.32711769055609    2.57394044412101    0.58054023792551
C         1.56775990115097    2.57406274759713    1.80529211438592
C         1.93738855433462    1.41493166800826    2.55687699795641
C         2.93241341187029    0.68915951207827    1.80450045371028
C        -0.36747907289716    3.45321496996008    0.58882537373850
C        -1.74086682471368    3.00839187581465    0.59126623863692
C        -1.98614489822951    2.30474394422180    1.81557252542919
C        -0.74676392557959    2.28242944619232    2.56848466357791
C         0.24315731768577    3.00100806646058    1.80631135667985
C        -3.40254656906079    0.72468489882926    0.57566827830531
C        -3.40426822637159   -0.71230110371684    0.57663390547418
C        -2.78126781741430   -1.14241668883117    1.81222651941329
C        -2.43481165268784    0.00659504652711    2.56075012195457
C        -2.78292791676525    1.15981387001952    1.80786627015725
C        -1.74159451500264   -2.99914006513210    0.59088025086832
C        -0.37075217833906   -3.44342811789185    0.58884386373411
C         0.24208218543459   -2.99792720514973    1.80172657755530
C        -0.74652925928483   -2.27682155078905    2.56698594848095
C        -1.97983001510914   -2.28840657357338    1.81897939801123
C        -0.24747302489570   -3.00649473506653   -1.81775761867974
C         0.74754280812453   -2.28682271595556   -2.57677094596942
C         1.97508550569772   -2.29661374556600   -1.83700926438633
C         1.73504396552601   -3.00022634588054   -0.59169030376855
C         0.36291261673644   -3.44118077429693   -0.59377441453235
C         2.77888294944186   -1.15679978186645   -1.81526844442924
C         2.39689856535055    0.00585734704954   -2.58587076357412
C         2.77647333966204    1.16838972235908   -1.83129629807533
C         3.38622552920052    0.70307971722079   -0.60188494878987
C         3.40482194370905   -0.71109516141409   -0.62046365237811
C         1.96437796477389    2.28857889407248   -1.82845165330239
C         0.73887938286884    2.29290839965176   -2.58616272389465
C        -0.24945909817207    3.01214863694149   -1.82281488712549
C         0.36531328848404    3.45343282960983   -0.59408926312004
C         1.73137065893605    3.01183517825661   -0.59725905953538
C        -1.57024877815832    2.58334970531152   -1.82129154336483
C        -1.95136415280423    1.41851729415981   -2.58380836565905
C        -2.94667943359959    0.69917866378316   -1.82885085881043
C        -3.17801156562961    1.41982630834236   -0.60318210133874
C        -2.32882487157873    2.58430542601308   -0.59840878113298
C        -2.94614382261555   -0.68958168288397   -1.82664719554805
C        -1.95217252610035   -1.41292614654969   -2.57872604167115
C        -1.57118308958026   -2.57747637389384   -1.81641305018609
C        -2.32900236462903   -2.57766447377645   -0.59704269360084
C        -3.17855323635424   -1.40656487701505   -0.59868246697297
C        -0.99559382873035   -0.71956692562607   -3.30850008461834
C        -0.99803661802560    0.72386748766392   -3.31290493638140
C         0.37251785514627    1.17064009376980   -3.31756115170861
C         1.21770484404310    0.00410879738871   -3.31583003165029
C         0.37317909841191   -1.16375603951048   -3.31125790170637
Cl       -1.94503868108793   -0.02602967532373    5.25046783815419
Cl        5.04758194691306   -2.22748462907490    0.95384955392366
