62
 energy: -137.538335258828 gnorm: 0.000104817601 xtb: 6.4.1 (a3dbbd7)
C        -1.30236942464827   -0.00154477377808    3.53522634025386
C        -0.38144189271611   -1.17470898751159    3.32811291300321
C         1.05307949477884   -0.76657666452367    3.53489174626079
C         0.97016007560702    0.72139968347507    3.29083125303310
C        -0.36086878338249    1.15378648069225    3.29100275751584
C         2.33266108803917   -2.58639042732925    0.56538686580635
C         3.16487595224551   -1.41981742325243    0.56854198831357
C         2.90908082364184   -0.70414627017977    1.80748108404383
C         1.96274296748458   -1.41878138233040    2.55795228599386
C         1.57494824144693   -2.56638308278139    1.79153039406235
C         3.16857763651680    1.41267698718707    0.58229862364046
C         2.32627145015329    2.58198250251060    0.57653298845958
C         1.56267680046568    2.57343074513272    1.80027464522856
C         1.93698630768716    1.40883692391565    2.55833551504156
C         2.93077606106105    0.70171842146875    1.81046591659274
C        -0.36516862783554    3.45622055612591    0.57676353598465
C        -1.73383463783455    3.00511774628697    0.58270115987657
C        -1.95903076626951    2.29007334606831    1.81087231425621
C        -0.73926892579887    2.27814566616718    2.55853895531457
C         0.24783418857627    3.00052008759288    1.80039378744125
C        -3.39533787297238    0.71111447747221    0.56908290415587
C        -3.40751744179782   -0.72182406038642    0.56586175235851
C        -2.78247634518011   -1.15095404822780    1.79189058506456
C        -2.42173852637268    0.00541832379488    2.55826520788418
C        -2.76758885451161    1.13978540013691    1.80793414237810
C        -1.72996202876583   -2.99243744149337    0.56800642146953
C        -0.35899217809077   -3.43774822333374    0.56789645136226
C         0.25586169000453   -2.98398510660509    1.78667696433363
C        -0.72470674989754   -2.23117079620190    2.54726203869112
C        -1.96061099190631   -2.26404416426002    1.78686332724267
C        -0.25048464991973   -3.01223656038237   -1.84544173266417
C         0.74209037070401   -2.29108072811618   -2.59848245031613
C         1.96934439324456   -2.29412909630626   -1.83802517149707
C         1.73797246555195   -3.01612060746138   -0.61707165015402
C         0.36778786143257   -3.45785671535155   -0.61417390463165
C         2.78433016722004   -1.16670997997324   -1.83418943487398
C         2.40759453890112   -0.00061901791288   -2.58919798425290
C         2.78514129887444    1.16466762718881   -1.82565741186930
C         3.39583598396350    0.72140028886626   -0.60215760364271
C         3.39255953102285   -0.72388304155943   -0.60559732529090
C         1.96805770033190    2.28897730980346   -1.82714675352109
C         0.74295177790460    2.28848774619125   -2.58546258477893
C        -0.24789920901426    3.00878151103247   -1.82696305936926
C         0.36472076456002    3.45907495287935   -0.60223677036105
C         1.73718232989598    3.01324963983022   -0.60235094768365
C        -1.56970919124708    2.57924585587279   -1.82529514841919
C        -1.94912867111158    1.41456248348451   -2.58882789145941
C        -2.93908524418743    0.69240515537238   -1.83370250400921
C        -3.17080183749862    1.40807159037510   -0.60505229444989
C        -2.32412561574610    2.57940488897113   -0.60168306012032
C        -2.94218927665870   -0.69873226456816   -1.83760733749529
C        -1.94752631212893   -1.41742350706302   -2.59824789501588
C        -1.56808507426429   -2.58424389053015   -1.84532864719327
C        -2.33000827537594   -2.58154941643821   -0.61395103476856
C        -3.17908328128577   -1.41894024235604   -0.61666087588555
C        -0.99215531974422   -0.71890845325079   -3.32394173948615
C        -0.99208513227214    0.72187280056178   -3.31865548253942
C         0.37852827627235    1.16676604545609   -3.31844751399060
C         1.22606595157432    0.00135885183404   -3.31884242909707
C         0.37945152978439   -1.16443790578150   -3.32405975429472
Cl       -1.94816761215201    0.05661550993500    5.26141377563691
Cl        1.61000543250612   -1.09889246877889    5.26144557820076
