156
 energy: -495.994663399793 gnorm: 8.294000137195 xtb: 6.4.1 (a3dbbd7)
C        -1.23626340000000    0.00000000000000    3.32997640000000
C        -0.38202640000000   -1.17575640000000    3.32997640000000
C         1.00015810000000   -0.72665740000000    3.32997640000000
C         1.00015810000000    0.72665740000000    3.32997640000000
C        -0.38202640000000    1.17575640000000    3.32997640000000
C         2.34433560000000   -2.60145750000000    0.59464210000000
C         3.19857260000000   -1.42570110000000    0.59464210000000
C         2.96246730000000   -0.69904370000000    1.83090550000000
C         1.96230920000000   -1.42570110000000    2.59495830000000
C         1.58028280000000   -2.60145750000000    1.83090550000000
C         3.19857260000000    1.42570110000000    0.59464210000000
C         2.34433560000000    2.60145750000000    0.59464210000000
C         1.58028280000000    2.60145750000000    1.83090550000000
C         1.96230920000000    1.42570110000000    2.59495830000000
C         2.96246730000000    0.69904370000000    1.83090550000000
C        -0.36750900000000    3.48258920000000    0.59464210000000
C        -1.74969350000000    3.03349030000000    0.59464210000000
C        -1.98579880000000    2.30683290000000    1.83090550000000
C        -0.74953540000000    2.30683290000000    2.59495830000000
C         0.25062270000000    3.03349030000000    1.83090550000000
C        -3.42570570000000    0.72665740000000    0.59464210000000
C        -3.42570570000000   -0.72665740000000    0.59464210000000
C        -2.80757400000000   -1.17575640000000    1.83090550000000
C        -2.42554760000000    0.00000000000000    2.59495830000000
C        -2.80757400000000    1.17575640000000    1.83090550000000
C        -1.74969350000000   -3.03349030000000    0.59464210000000
C        -0.36750900000000   -3.48258920000000    0.59464210000000
C         0.25062270000000   -3.03349030000000    1.83090550000000
C        -0.74953540000000   -2.30683290000000    2.59495830000000
C        -1.98579880000000   -2.30683290000000    1.83090550000000
C        -0.25062270000000   -3.03349030000000   -1.83090550000000
C         0.74953540000000   -2.30683290000000   -2.59495830000000
C         1.98579880000000   -2.30683290000000   -1.83090550000000
C         1.74969350000000   -3.03349030000000   -0.59464210000000
C         0.36750900000000   -3.48258920000000   -0.59464210000000
C         2.80757400000000   -1.17575640000000   -1.83090550000000
C         2.42554760000000    0.00000000000000   -2.59495830000000
C         2.80757400000000    1.17575640000000   -1.83090550000000
C         3.42570570000000    0.72665740000000   -0.59464210000000
C         3.42570570000000   -0.72665740000000   -0.59464210000000
C         1.98579880000000    2.30683290000000   -1.83090550000000
C         0.74953540000000    2.30683290000000   -2.59495830000000
C        -0.25062270000000    3.03349030000000   -1.83090550000000
C         0.36750900000000    3.48258920000000   -0.59464210000000
C         1.74969350000000    3.03349030000000   -0.59464210000000
C        -1.58028280000000    2.60145750000000   -1.83090550000000
C        -1.96230920000000    1.42570110000000   -2.59495830000000
C        -2.96246730000000    0.69904370000000   -1.83090550000000
C        -3.19857260000000    1.42570110000000   -0.59464210000000
C        -2.34433560000000    2.60145750000000   -0.59464210000000
C        -2.96246730000000   -0.69904370000000   -1.83090550000000
C        -1.96230920000000   -1.42570110000000   -2.59495830000000
C        -1.58028280000000   -2.60145750000000   -1.83090550000000
C        -2.34433560000000   -2.60145750000000   -0.59464210000000
C        -3.19857260000000   -1.42570110000000   -0.59464210000000
C        -1.00015810000000   -0.72665740000000   -3.32997640000000
C        -1.00015810000000    0.72665740000000   -3.32997640000000
C         0.38202640000000    1.17575640000000   -3.32997640000000
C         1.23626340000000    0.00000000000000   -3.32997640000000
C         0.38202640000000   -1.17575640000000   -3.32997640000000
C        -1.76086815247998    0.00000000000000    4.78849957557021
F        -0.76911826531252    0.00000000000000    5.67468926254662
F        -2.50968386795825   -1.06794314680471    5.04863888333743
F        -2.50968386795825    1.06794314680471    5.04863888333743
C        -0.54413818249354   -1.67468516033722    4.78849957845317
F        -0.23767107904745   -0.73147481112462    5.67468925997942
F        -1.79120914301982   -2.05683909935453    5.04863874564184
F         0.24013968171955   -2.71686350152345    5.04863903502921
C         1.42457227037960   -1.03501233722714    4.78849957248258
F         0.62223011468481   -0.45207589682711    5.67468926529602
F         1.40265511061956   -2.33913928186680    5.04863905501621
F         2.65809836182651   -0.61117154425495    5.04863869666890
C         4.58877084110522   -2.05459160147071    0.86730597290559
F         4.59709252483521   -2.78118520641283    1.98125951001435
F         4.97417519512416   -2.85850196315549   -0.11965482382298
F         5.53562669678859   -1.13053295630600    1.00324569798425
C         4.25247495652193   -1.01957928511255    2.62817407757680
F         4.45020405360863   -2.32910962270744    2.75037677428969
F         5.33704498641440   -0.51936149478958    2.04303305824604
F         4.21414295278388   -0.51936236815955    3.85992636334025
C         4.58877084110522    2.05459160147071    0.86730597290559
F         4.59709252483521    2.78118520641283    1.98125951001435
F         4.97417519512416    2.85850196315549   -0.11965482382298
F         5.53562669678859    1.13053295630600    1.00324569798425
C         2.28376457660886    3.72927671755932    2.62817408867206
F         3.59030321655004    3.51265997057976    2.75037870097715
F         2.14318168460923    4.91533956626619    2.04303190988612
F         1.79618325340524    3.84739782561575    3.85992562899767
C         2.82790274436383    2.05459160758554    3.71645040671519
F         3.82797483682855    2.78118494419178    3.22571836876305
F         2.11749631416700    2.85850222732984    4.50254863174647
F         3.37293748548841    1.13053297859378    4.50255013394648
C         0.34440953624153    4.35941144868709    2.62817404748705
F        -0.83992598883967    4.95213069234126    2.75037577510431
F         1.15529636597892    5.23632261667420    2.04303359185445
F         0.80829780400759    4.16837989546168    3.85992670963205
C        -4.92005227074660    1.03501232949151    0.86730592957069
F        -5.35386609588658    0.45207588830481    1.98125865327758
F        -5.70437742108406    0.61117153086585   -0.11965558739362
F        -5.14292645153878    2.33913927311179    1.00324714649869
C         0.34440953624153   -4.35941144868709    2.62817404748705
F        -0.83992598883967   -4.95213069234126    2.75037577510431
F         1.15529636597892   -5.23632261667420    2.04303359185445
F         0.80829780400759   -4.16837989546168    3.85992670963205
C        -2.84103082519036   -3.32439911178427    2.62817407941587
F        -2.23127406184888   -4.50005340761388    2.75037746012491
F        -4.01248672303644   -3.55720929213525    2.04303264409737
F        -3.10404037880940   -2.89718378306488    3.85992609894427
C        -0.34440953624153   -4.35941144868709   -2.62817404748705
F         0.83992598883967   -4.95213069234126   -2.75037577510431
F        -0.80829780400759   -4.16837989546168   -3.85992670963205
F        -1.15529636597892   -5.23632261667420   -2.04303359185445
C         2.50473491433418   -4.35941144902977   -0.86730593917895
F         2.08438487052912   -4.95213043104453   -1.98125838386969
F         3.81390519137296   -4.16837996597314   -1.00324768478856
F         2.34400857369757   -5.23632280881804    0.11965581818547
C         4.03961820246674   -1.67468514775899   -2.62817407948106
F         4.96930660042401   -0.73147479244129   -2.75037763231445
F         3.71458666614023   -2.05683907990836   -3.85992603200072
F         4.62303373288714   -2.71686348978891   -2.04303253910981
C         4.03961820246674    1.67468514775899   -2.62817407948106
F         4.96930660042402    0.73147479244129   -2.75037763231441
F         3.71458666614022    2.05683907990832   -3.85992603200073
F         4.62303373288711    2.71686348978894   -2.04303253910982
C         4.92005227074660   -1.03501232949151   -0.86730592957069
F         5.35386609588658   -0.45207588830481   -1.98125865327758
F         5.14292645153878   -2.33913927311179   -1.00324714649869
F         5.70437742108406   -0.61117153086585    0.11965558739362
C         1.08016271022039    3.32439912180418   -3.71645041587937
F         1.46215754230407    4.50005299330749   -3.22571838851551
F         2.06425285383526    2.89718320022386   -4.50255037491024
F         0.03290491502764    3.55721032900471   -4.50254840735999
C        -0.34440953624153    4.35941144868709   -2.62817404748705
F         0.83992598883967    4.95213069234126   -2.75037577510431
F        -0.80829780400759    4.16837989546168   -3.85992670963205
F        -1.15529636597892    5.23632261667420   -2.04303359185445
C         0.53602450593361    4.99908416128281   -0.86730591619822
F         1.22448605650957    5.23152837615597   -1.98125850960180
F        -0.63540201352706    5.61404743764837   -1.00324736766175
F         1.18149064144157    5.61404773804446    0.11965571789346
C        -2.28376457660886    3.72927671755932   -2.62817408867206
F        -3.59030321655004    3.51265997057978   -2.75037870097715
F        -1.79618325340527    3.84739782561575   -3.85992562899768
F        -2.14318168460923    4.91533956626621   -2.04303190988614
C        -4.25247495652193   -1.01957928511255   -2.62817407757680
F        -4.45020405360857   -2.32910962270745   -2.75037677428973
F        -4.21414295278389   -0.51936236815949   -3.85992636334022
F        -5.33704498641440   -0.51936149478962   -2.04303305824599
C        -2.28376457660886   -3.72927671755932   -2.62817408867206
F        -3.59030321655004   -3.51265997057978   -2.75037870097715
F        -1.79618325340527   -3.84739782561575   -3.85992562899768
F        -2.14318168460923   -4.91533956626621   -2.04303190988614
C         1.76086815247998    0.00000000000000   -4.78849957557021
F         0.76911826531252    0.00000000000000   -5.67468926254662
F         2.50968386795825    1.06794314680471   -5.04863888333743
F         2.50968386795825   -1.06794314680471   -5.04863888333743
156
 energy: -501.724880533024 gnorm: 6.126288808311 xtb: 6.4.1 (a3dbbd7)
C        -1.23610078995113    0.00237317272257    3.32498030592122
C        -0.38265109106738   -1.17768638965700    3.32152022193105
C         1.00159601128814   -0.72469511910434    3.32437019688175
C         0.99919868790929    0.72599866477748    3.33256899427495
C        -0.38271102210059    1.17635275983367    3.33287031964057
C         2.34469057503607   -2.59977192976174    0.59813071132309
C         3.18812202493355   -1.42587349649314    0.59425377193283
C         2.95726739339282   -0.69646007498299    1.83173441892162
C         1.96233202369754   -1.42785388661243    2.59404438706754
C         1.58391695608815   -2.59970033542290    1.83185903558596
C         3.19862446108217    1.42640914807301    0.59567296759666
C         2.34444984123504    2.60282954649804    0.59644871513945
C         1.57928545141546    2.59454069794101    1.82402710375423
C         1.95981426598126    1.42045571665143    2.59202340205390
C         2.96294814516501    0.70085789432525    1.83144182767252
C        -0.37116256706014    3.48318055927539    0.59623586290587
C        -1.75005238226631    3.03302856528065    0.59646876731874
C        -1.98539048149575    2.30696268696903    1.82973028221835
C        -0.75200181682705    2.30754878962203    2.59405836881865
C         0.24342953234320    3.02707433253424    1.82696649975272
C        -3.42837978511578    0.72711413017795    0.59627701194415
C        -3.42521134978607   -0.72972367601683    0.59566459042923
C        -2.80974982239958   -1.17026544818026    1.83042352008386
C        -2.42831596934151    0.00057478430546    2.59072762735429
C        -2.80430785202104    1.17600972779279    1.83278270913739
C        -1.74594533525033   -3.03408268458928    0.59212362449064
C        -0.37114013209637   -3.48143773120680    0.59245457000847
C         0.25004010393099   -3.03746033787519    1.83139078060237
C        -0.74931707530709   -2.30645623721202    2.59391846251801
C        -1.98812420906432   -2.31017816733432    1.83136396004239
C        -0.24529619289729   -3.02904294899477   -1.82721643444922
C         0.75022068474961   -2.30546161435852   -2.59485085937574
C         1.98335509510071   -2.30704939597153   -1.83300037020539
C         1.75053565933664   -3.03637546657408   -0.59610281664167
C         0.36586683194705   -3.48166496313748   -0.59434803315253
C         2.80160679551001   -1.17415972477527   -1.83158532534110
C         2.42727956062982   -0.00057103034098   -2.59326385784363
C         2.80874933478734    1.17482180547875   -1.83109749950956
C         3.42610537990227    0.72491094324178   -0.59552995920313
C         3.41869705908709   -0.72122950459545   -0.59605150034771
C         1.98471128679301    2.30991453049649   -1.83194478026900
C         0.75006105094738    2.29920377964857   -2.59085505589645
C        -0.24978780984440    3.02206044087277   -1.82278557209896
C         0.36855032784735    3.47348613382368   -0.58975780185653
C         1.74956801057151    3.03532229392353   -0.59628432797116
C        -1.58200105173113    2.59059207301087   -1.82624912296767
C        -1.96409618341521    1.42353171603996   -2.59510507850507
C        -2.96318426621524    0.70477964474491   -1.82985989426487
C        -3.19493039882484    1.42649920241992   -0.60016125441690
C        -2.34609739980232    2.60083273998921   -0.59354189366678
C        -2.96426472520174   -0.70106379124331   -1.83141745650818
C        -1.96093890307767   -1.42598530580240   -2.59626872057849
C        -1.58179573494202   -2.59325095490773   -1.82709416842975
C        -2.34576832951482   -2.60104235466597   -0.59352699362091
C        -3.19728194700502   -1.42649084981474   -0.59096296525399
C        -0.99792029077822   -0.72513718803414   -3.33014463736250
C        -0.99912041491135    0.72490085501412   -3.33091265793650
C         0.37854032262814    1.17445198436485   -3.33082198769235
C         1.23604120381347   -0.00026317445742   -3.33040546877702
C         0.37869793123767   -1.17737081293182   -3.33072383403061
C        -1.77994532462390    0.00410112637410    4.77023439554253
F        -0.80499640868882    0.05504279938204    5.69587634968442
F        -2.56550714570426   -0.99915316288724    5.05137636689153
F        -2.51149351794018    1.07249621192125    5.05107775732007
C        -0.54951916899043   -1.69286683743748    4.76776333789619
F        -0.25403111162366   -0.78181265793540    5.70210094644721
F        -1.74307118588644   -2.12822691005357    5.05400875229795
F         0.15893953368750   -2.74716343295435    5.05343245933379
C         1.44017279208514   -1.04770627277201    4.76728106492027
F         0.68285635153431   -0.42412329035925    5.69770032751278
F         1.48911501257515   -2.31721088648742    5.05172252077469
F         2.65839553520516   -0.61208384579619    5.05481924440008
C         4.56692407767895   -2.01592056934132    0.85253875308961
F         4.61228191167254   -2.84535236310116    1.95685345769029
F         4.97907692554693   -2.90929254329456   -0.09604624317403
F         5.56215495704818   -1.18489119019481    0.97420015092065
C         4.24557075400219   -1.00516082229433    2.62150608270055
F         4.44315123834912   -2.31940175985241    2.81348876012410
F         5.33101882773360   -0.46881637652666    2.12608201750985
F         4.21957423744753   -0.52184294838611    3.86263415353852
C         4.58759471354008    2.05302779834378    0.86216992889313
F         4.62762784071043    2.77393403503931    1.95594970124292
F         4.97678401004224    2.86054214347447   -0.11712724769361
F         5.53979973701043    1.13521362353472    1.00328453157208
C         2.24246492857607    3.70233176673219    2.62758019784566
F         3.60184359223376    3.57436594663266    2.73416159010021
F         2.19403617830520    4.93819107455702    2.02090992514394
F         1.81211231247573    3.90896063029913    3.83638986029758
C         2.81245912801243    2.04593547699835    3.71656089489521
F         3.85288840115063    2.74478625772900    3.26920332293108
F         2.13769222020885    2.78434026214147    4.56403700791382
F         3.37718428901955    1.13377239697142    4.50687249736358
C         0.33101708805033    4.34552704325615    2.61847099486285
F        -0.84150863529272    4.95512019787368    2.75162861319143
F         1.12353500642115    5.27170037474404    2.03418098536860
F         0.76788037437928    4.18308570218983    3.88541190568928
C        -4.91943167598424    1.03423277667727    0.86712039078035
F        -5.35520689541202    0.45192606345889    1.98252712652661
F        -5.70588099577347    0.61160197388817   -0.11938650861762
F        -5.14390713609233    2.34061844092422    1.00356659315109
C         0.34554989776429   -4.35961906220980    2.62697275771393
F        -0.80841784588121   -4.96564476361741    2.75137119199325
F         1.15699037488726   -5.23828211620530    2.04334025691652
F         0.81066707641851   -4.17180831611252    3.86014970907582
C        -2.84258408073325   -3.32326831088481    2.62708259699872
F        -2.26463729263524   -4.49252455129206    2.75132612973994
F        -4.01482627241183   -3.55763676196757    2.04254029851506
F        -3.10763633672802   -2.89875906163429    3.86001263059747
C        -0.33380336641224   -4.34630439138245   -2.61867731935972
F         0.81290382800609   -4.95562038756251   -2.77029042395882
F        -0.77945800634091   -4.17710285860930   -3.88554538309421
F        -1.13277479373381   -5.26692786125205   -2.03107734068705
C         2.50329554363824   -4.35901813014557   -0.86520655124802
F         2.11404270067005   -4.95517943341977   -1.96607640615848
F         3.81489330647574   -4.17409842054115   -1.00286284865759
F         2.34515853497887   -5.23826742452972    0.12005526896025
C         4.02596188272206   -1.68307971802262   -2.62720592099321
F         4.95921809133775   -0.75851564919933   -2.80428587988665
F         3.71703812389608   -2.05952947364235   -3.86209746583943
F         4.58847799625750   -2.75259042399603   -2.12608956258412
C         4.03537063588177    1.67818283339366   -2.62813811345510
F         4.96888550554997    0.76832634471788   -2.76607220120036
F         3.72037966014649    2.05885923913962   -3.85878184261815
F         4.62427770086740    2.71952895734491   -2.04666155137291
C         4.88207096864272   -1.05244063606924   -0.85469454706447
F         5.40239923915397   -0.43622894456724   -1.94417398540734
F         5.19562618033427   -2.31049969349550   -0.97565578778444
F         5.74233989692976   -0.56922022384782    0.09802866996540
C         1.07180719722311    3.29787064576321   -3.72045584392080
F         1.52405545085794    4.48982579364462   -3.26569461433590
F         2.06431275740903    2.90277262516029   -4.50545951965410
F         0.08996613811688    3.51052956892439   -4.56460269436618
C        -0.37382813990685    4.31454401572495   -2.60588193825733
F         0.82456233035986    5.00048467158455   -2.78209106359180
F        -0.83580374463812    4.22654864786003   -3.84906860321482
F        -1.16946299638806    5.25351835387190   -2.10435822394602
C         0.51961309260228    4.98421992153997   -0.84874880090489
F         1.27315121899920    5.27084078561077   -1.94060811999959
F        -0.60848372156458    5.65459803600876   -0.91894983248848
F         1.18695575449495    5.62058222748443    0.11950695263900
C        -2.28893609979696    3.70945639356352   -2.61791203389670
F        -3.59250002092082    3.51371746367260   -2.75147229799713
F        -1.83464083600830    3.83535642869845   -3.88742396410907
F        -2.19089065664428    4.92576255976747   -2.03142740396939
C        -4.25281892361927   -1.01638428230467   -2.62685977923689
F        -4.47261471935932   -2.30464370810473   -2.75167795881897
F        -4.21471743882808   -0.51888539353758   -3.86197328083677
F        -5.33879824837830   -0.51886648247834   -2.04369169723214
C        -2.28611829855084   -3.71268126611419   -2.61850899470937
F        -3.57337403382967   -3.54203675628812   -2.75165114170382
F        -1.82526548465612   -3.83781292630839   -3.88433232320741
F        -2.17837269227541   -4.92710344155490   -2.03189016489296
C         1.75974846514376   -0.00028312618760   -4.78801991273017
F         0.76820784481496    0.00003196502007   -5.67707873706745
F         2.50958672503388    1.06394506922264   -5.05342477785947
F         2.50859595554082   -1.06741975722123   -5.05244226457284
156
 energy: -506.976837041695 gnorm: 5.497986926222 xtb: 6.4.1 (a3dbbd7)
C        -1.23810961373414    0.00612267675430    3.32733420870285
C        -0.38356841540864   -1.17968028566378    3.31762950087793
C         1.00359125248470   -0.72325144539068    3.32519395243360
C         0.99672323427404    0.72645621399134    3.33513252773180
C        -0.38186154636267    1.17932619922779    3.33059454730575
C         2.34286404138633   -2.59902262613442    0.60421938779803
C         3.18681361983145   -1.43012241818799    0.59647854829592
C         2.95438015159030   -0.69466877662328    1.83535395531559
C         1.96213617032672   -1.43266567949863    2.59103134558632
C         1.58828204310398   -2.59316360548236    1.82758614228262
C         3.20067901446660    1.42791908314431    0.59708080211185
C         2.34380562994598    2.60396786060472    0.59569649038039
C         1.58267719815653    2.59317817708100    1.82126532891215
C         1.95965915103045    1.41507866220331    2.59001571882557
C         2.96237579221273    0.70250478899486    1.83208923711553
C        -0.37595383083728    3.48168830761083    0.59831234042276
C        -1.75038199968835    3.03177238108794    0.59743670111437
C        -1.98554071652260    2.30623226271048    1.82885174438868
C        -0.75489571298758    2.30545937706095    2.59333370486610
C         0.23508005370255    3.02590617742840    1.82539951192978
C        -3.43796019399049    0.72800216994273    0.59924841088558
C        -3.41972362256273   -0.73335376199159    0.59603035215188
C        -2.81116226845161   -1.16254508861851    1.82637515190755
C        -2.43239356642463    0.00084963126010    2.58366906725306
C        -2.79991469323560    1.17599535781809    1.83482577902696
C        -1.74168886973501   -3.03444124795953    0.58921980077650
C        -0.37511487337464   -3.47731192830646    0.58894624622368
C         0.24902642087495   -3.04373182956893    1.83523575938176
C        -0.74892096906099   -2.30479032959415    2.59339993230165
C        -1.99152650914989   -2.31609633045334    1.83546301894662
C        -0.24006530830821   -3.03059763681607   -1.82597902105986
C         0.75213430636809   -2.29981753663199   -2.59355389226708
C         1.97857362778876   -2.30932588971008   -1.83522945956342
C         1.75214018403501   -3.04209826840243   -0.59881719285561
C         0.36374077334359   -3.48185977144188   -0.59207050814953
C         2.79606598137746   -1.17256997753881   -1.83540717813342
C         2.42825692126059   -0.00107070703766   -2.59137505218780
C         2.81223874988103    1.17419314665392   -1.83316450260688
C         3.42611568925401    0.72280768484840   -0.59705227907373
C         3.41663745242573   -0.71559748590339   -0.59995858231131
C         1.98223636426705    2.31435355711358   -1.82761672841326
C         0.75255278397078    2.29528580238797   -2.59114599520370
C        -0.25048266357970    3.02039249865797   -1.82248165684141
C         0.37032384044631    3.47252179054615   -0.58536373710047
C         1.75026924914321    3.03103361158572   -0.59836683936542
C        -1.58892273666313    2.58234194833876   -1.82172861468258
C        -1.96590013096514    1.41979878112812   -2.59489523646706
C        -2.95858292198323    0.71190947532528   -1.82489851420410
C        -3.19024493220476    1.42733724042989   -0.60706920731151
C        -2.34792964278872    2.59780372851627   -0.59081049590538
C        -2.97220457983962   -0.70389716924113   -1.83601780698763
C        -1.95847702424976   -1.42433197252603   -2.59777645081065
C        -1.58657513336755   -2.59063607214218   -1.82696601330862
C        -2.34740197307458   -2.59793163692463   -0.59096942030703
C        -3.19476091393236   -1.42799898152481   -0.58675503717789
C        -0.99622170789639   -0.72404929902100   -3.32864531833625
C        -0.99751031857443    0.72341394732965   -3.32933146485965
C         0.37333738547989    1.17191721086746   -3.33123104426372
C         1.23622183602812   -0.00096458228089   -3.33876909475319
C         0.37505157857601   -1.17973249577536   -3.32762915401974
C        -1.79966120707659    0.00040849261517    4.75018271532609
F        -0.84405434290763    0.14430304595209    5.71727113202917
F        -2.59671516679833   -0.96225667560026    5.05425340748984
F        -2.51142550977479    1.07530061801488    5.05239475888158
C        -0.55571448100812   -1.70799194902216    4.75386196319609
F        -0.28869150906789   -0.88962332454972    5.72011133764276
F        -1.71541136801321   -2.16660677874355    5.05840977402975
F         0.11448823984833   -2.76124005162450    5.05842394541190
C         1.45423591126397   -1.06219517899657    4.74458204044953
F         0.76636799430194   -0.37148698528273    5.72363012660056
F         1.53595706202883   -2.30671046206244    5.05464211338901
F         2.65561649407154   -0.61395550064899    5.06123234430158
C         4.54659031900873   -1.96355310402317    0.83806503400842
F         4.62422219456893   -2.90809060320158    1.95943380266528
F         4.97875192883477   -2.96866453522228   -0.05016722272953
F         5.56810936928213   -1.25375011217633    0.98607309305472
C         4.24101310889910   -0.99111214416093    2.61378510485993
F         4.44006858085705   -2.31759129971985    2.85302110351935
F         5.32571172864731   -0.44255337385274    2.17464166285444
F         4.22602843140549   -0.52598982291046    3.86223883324479
C         4.58685852609630    2.05157182553985    0.85660253857743
F         4.65873782812453    2.76514986962135    1.92957191342677
F         4.97943946840192    2.86267517566206   -0.11371078320955
F         5.54358158988735    1.14211504104542    1.00354790411469
C         2.20195692698492    3.67157490783857    2.63170073260223
F         3.61786504011169    3.62230361644540    2.72916150602552
F         2.28142398425763    4.94227098058587    2.00843051634292
F         1.86173282161287    3.94323451088337    3.81615193153378
C         2.79987125302841    2.03837593622126    3.71770460076919
F         3.86557712893575    2.72478233946710    3.30385762035587
F         2.14803665958743    2.74373266475692    4.59782564418152
F         3.37949839066554    1.14056334489838    4.50938862745159
C         0.32454177643558    4.33121843927137    2.60215428251591
F        -0.84402926320501    4.95922289179091    2.75423503668594
F         1.05132742867816    5.31613585372701    2.02862527631469
F         0.70302495965553    4.19697530638994    3.92153718466663
C        -4.91987487402737    1.03358335845020    0.86717307130845
F        -5.35650850659206    0.45181635813975    1.98373973002963
F        -5.70730856285708    0.61221754708013   -0.11897214545522
F        -5.14479534706159    2.34222447915259    1.00381013842901
C         0.34577041409881   -4.36002162670264    2.62596320102749
F        -0.77876562175223   -4.97804640159714    2.75215352316929
F         1.15864969531483   -5.24021105435693    2.04374930209391
F         0.81378575444216   -4.17577872817741    3.85953969351564
C        -2.84404681341309   -3.32275873431884    2.62630687924275
F        -2.29580886622206   -4.48560272911225    2.75217227235347
F        -4.01733885546023   -3.55797741103015    2.04184175150181
F        -3.11223129798830   -2.90035464664902    3.85928921410607
C        -0.32301229208350   -4.33762938045758   -2.60920860314388
F         0.78790399166197   -4.95980063512212   -2.79011068861955
F        -0.70613556890781   -4.20123943858988   -3.90501362139578
F        -1.06371468681671   -5.30438260508654   -2.02356746248137
C         2.50109635826848   -4.35956435979657   -0.86408501177588
F         2.14209059362602   -4.95789404917566   -1.95171130568396
F         3.81469891407560   -4.18140098924295   -1.00220134409797
F         2.34637072432833   -5.24014204834170    0.12061169226050
C         4.01402652762726   -1.69192555316335   -2.62395683975024
F         4.95734504766086   -0.78052992873910   -2.84059938746920
F         3.72044511177877   -2.06243545640066   -3.86211288903606
F         4.56885161381030   -2.77307772442762   -2.17465702690411
C         4.03144957775139    1.68184159075713   -2.62816854495224
F         4.96854616725282    0.80713396760645   -2.77968700436582
F         3.72741395752651    2.06101498487284   -3.85710584823128
F         4.62533668587223    2.72239414778019   -2.05102907969855
C         4.83196122402814   -1.08008243072206   -0.85243920333452
F         5.44822392349075   -0.42383187992580   -1.92572856048720
F         5.24129836567149   -2.26789942998491   -0.98501394364151
F         5.79144879527704   -0.50739682662053    0.05514790515039
C         1.05843045890944    3.26761575593580   -3.72599995023558
F         1.60187765804116    4.47736629702143   -3.30344092640406
F         2.06207448731044    2.91036488267219   -4.50628352023363
F         0.12343125705728    3.48289906342190   -4.59926099934639