62
 energy: -137.578639183629 gnorm: 0.041396990405 xtb: 6.4.1 (a3dbbd7)
C        -1.31467015267971    0.00000001337589    3.59679623096441
C        -0.39483847531672   -1.15407613722743    3.29584067367078
C         0.96701516678879   -0.71277572585418    3.26838882945790
C         0.96701517571879    0.71277567833789    3.26838878273355
C        -0.39483843851468    1.15407606799144    3.29584063464027
C         2.32776993706267   -2.56386451642596    0.57168837911599
C         3.18106838077070   -1.40857987735681    0.56984208131595
C         2.92573267946370   -0.69123880658912    1.79624366568138
C         1.92872119265696   -1.40029095149776    2.54365263739810
C         1.56676044937259   -2.55803939419212    1.79023069951600
C         3.18106835330522    1.40857982495296    0.56984194513616
C         2.32776997507241    2.56386450763875    0.57168847559779
C         1.56676056867453    2.55803945809438    1.79023074062362
C         1.92872115648089    1.40029110518601    2.54365261541830
C         2.92573291278898    0.69123877918598    1.79624362220297
C        -0.36435044508610    3.40799767075868    0.58204922189321
C        -1.72586168954711    2.95816705813524    0.57585028243889
C        -1.97991498383585    2.25127657578036    1.79515777813529
C        -0.73595323668567    2.25155622822207    2.56953555345481
C         0.24442165178451    2.95888069330009    1.80039018812007
C        -3.35953308220797    0.71273040635995    0.57721102907678
C        -3.35953312649292   -0.71273034730643    0.57721107866752
C        -2.78341622863454   -1.15458315323380    1.81061203336513
C        -2.64683677956202   -0.00000010930968    2.76847238865192
C        -2.78341628973508    1.15458340188165    1.81061191393158
C        -1.72586147835295   -2.95816713419424    0.57585024177093
C        -0.36435046950774   -3.40799763206483    0.58204925911147
C         0.24442170859279   -2.95888062151806    1.80039015782135
C        -0.73595327976937   -2.25155615657539    2.56953560145549
C        -1.97991499163612   -2.25127658373311    1.79515787092055
C        -0.23332494526445   -2.99215696767505   -1.83064940974836
C         0.75780966280491   -2.28033617764864   -2.58631503205621
C         1.97747773315381   -2.28034546825184   -1.82816079107288
C         1.73951424423355   -2.99228246205478   -0.60479680485007
C         0.36674668782459   -3.42113713477141   -0.59578118031490
C         2.79511772446107   -1.16284121673425   -1.82919244103099
C         2.41730248282082   -0.00000005790078   -2.58606886957602
C         2.79511768547136    1.16284125618825   -1.82919241004072
C         3.40551394933198    0.72013901863455   -0.60623328245049
C         3.40551396121148   -0.72013901262006   -0.60623343029899
C         1.97747781161152    2.28034544435457   -1.82816087277861
C         0.75780977576064    2.28033619777559   -2.58631506120082
C        -0.23332496722583    2.99215687221659   -1.83064944235521
C         0.36674673487022    3.42113722265103   -0.59578105793541
C         1.73951425980103    2.99228247848204   -0.60479697963801
C        -1.54881794451372    2.56394601980591   -1.83687724589876
C        -1.92492312313134    1.40849895291722   -2.60297442647516
C        -2.91125076681053    0.69122781668294   -1.83055162276861
C        -3.13810189524167    1.40074326050393   -0.60593044541035
C        -2.30353831094469    2.55874139506773   -0.61449527413505
C        -2.91125062732920   -0.69122792593733   -1.83055162592533
C        -1.92492334247999   -1.40849890127640   -2.60297431332283
C        -1.54881791012942   -2.56394604298566   -1.83687731423774
C        -2.30353825338289   -2.55874131607186   -0.61449536338826
C        -3.13810196469767   -1.40074319659266   -0.60593049320793
C        -0.97032156618907   -0.72016486785871   -3.32602057680168
C        -0.97032168015688    0.72016484286314   -3.32602070512706
C         0.39660272231473    1.16298807458920   -3.32042806069446
C         1.24251773625512   -0.00000001623459   -3.31669497427185
C         0.39660272638941   -1.16298805227615   -3.32042811723916
Cl       -1.64395781034532    0.00000004169280    5.38603567078619
Cl       -4.10906116114259    0.00000001699607    3.85103560894640
62
 energy: -137.582078216545 gnorm: 0.017502602233 xtb: 6.4.1 (a3dbbd7)
C        -1.30709475163850    0.00000002457176    3.58625005570054
C        -0.38789135302660   -1.16358022277109    3.29250544419294
C         0.97224337487313   -0.71728320455403    3.27065562822704
C         0.97224340283321    0.71728320032702    3.27065561851835
C        -0.38789131776017    1.16358020970131    3.29250541175317
C         2.33437637503991   -2.57762094784130    0.57966969144591
C         3.18440143145794   -1.41422457514637    0.58022109510774
C         2.94061324364248   -0.69316517770013    1.80673147437754
C         1.94067197651867   -1.40972401566572    2.55265942074169
C         1.57364411666916   -2.57336954643158    1.80054817722904
C         3.18440141045903    1.41422457263101    0.58022106178049
C         2.33437639231827    2.57762097713537    0.57966974897525
C         1.57364417314644    2.57336957147063    1.80054818804324
C         1.94067196734177    1.40972411666362    2.55265943883440
C         2.94061337740905    0.69316520505927    1.80673151676550
C        -0.36316130702591    3.42946755068721    0.57946934812457
C        -1.73068628458548    2.98246216021564    0.57436101537227
C        -1.97962939569074    2.26849759755689    1.79397625387396
C        -0.73598737848668    2.26866930800881    2.56730666476603
C         0.24719784784481    2.98291643089288    1.80343459475290
C        -3.36642813021537    0.71724753225220    0.57379229241287
C        -3.36642813111939   -0.71724752024808    0.57379232071808
C        -2.78453315278628   -1.16370172709276    1.80295137524076
C        -2.64071368939316   -0.00000005310148    2.75712841218482
C        -2.78453320365804    1.16370184452901    1.80295131171986
C        -1.73068621113883   -2.98246218601671    0.57436100022735
C        -0.36316134770243   -3.42946752691635    0.57946936958015
C         0.24719787486042   -2.98291639140476    1.80343458425322
C        -0.73598742605738   -2.26866925093453    2.56730667616680
C        -1.97962942555555   -2.26849759752196    1.79397628945930
C        -0.23784521958301   -3.00472875076772   -1.83172388583837
C         0.75507182763248   -2.28743230388917   -2.58595275480826
C         1.97911247960275   -2.28747128554190   -1.82533336451874
C         1.74276135058416   -3.00477403142981   -0.60102839223085
C         0.36880817935258   -3.44094614792474   -0.59893534028776
C         2.79718452117519   -1.16558519380049   -1.82487150297588
C         2.41807808690060   -0.00000003041750   -2.58244420470130
C         2.79718449898146    1.16558519707636   -1.82487148423667
C         3.40915218302487    0.72147706560067   -0.59936685110612
C         3.40915217552130   -0.72147707917271   -0.59936692649863
C         1.97911249355546    2.28747124804756   -1.82533336915886
C         0.75507185845155    2.28743229526302   -2.58595277098554
C        -0.23784523312503    3.00472871177304   -1.83172392704457
C         0.36880822247764    3.44094615786867   -0.59893528412879
C         1.74276137220074    3.00477404103822   -0.60102844890535
C        -1.55852022079910    2.57767609478307   -1.83921382883332
C        -1.93538503475019    1.41419854075042   -2.60112682983169
C        -2.92701969236463    0.69315141546326   -1.83918804693055
C        -3.15259894570742    1.40992855134614   -0.61247561958262
C        -2.31603698975981    2.57358312510114   -0.61631731923665
C        -2.92701960028040   -0.69315143339480   -1.83918805652987
C        -1.93538513914899   -1.41419851519500   -2.60112681827935
C        -1.55852021325029   -2.57767607365624   -1.83921382829640
C        -2.31603698513173   -2.57358308374416   -0.61631733948942
C        -3.15259896390309   -1.40992850633947   -0.61247562730915
C        -0.97751289536149   -0.72149192759538   -3.32540729421609
C        -0.97751296015312    0.72149188108357   -3.32540732737782
C         0.39234235597820    1.16564155747277   -3.31944218209419
C         1.23947470101285   -0.00000000286365   -3.31504085249512
C         0.39234236802924   -1.16564155540592   -3.31944220155247
Cl       -1.60360736999301    0.00000006905590    5.37879387309511
Cl       -4.11728187944355    0.00000002771288    3.81566259360834
62
 energy: -137.582245180853 gnorm: 0.008527547125 xtb: 6.4.1 (a3dbbd7)
C        -1.30393498644311    0.00000001806766    3.57430711069419
C        -0.38327892730826   -1.16765147485249    3.28756359647942
C         0.97404437991778   -0.71955684024641    3.27019784233469
C         0.97404440996305    0.71955685089747    3.27019783572424
C        -0.38327890417408    1.16765147877661    3.28756356371299
C         2.33661677028889   -2.58319601843615    0.58325218123373
C         3.18508881454336   -1.41634021561279    0.58436725608693
C         2.94652683769193   -0.69372858470585    1.80964829623677
C         1.94656435866844   -1.41444443048961    2.55722735133775
C         1.57643319166796   -2.57943303292386    1.80573888791609
C         3.18508882437067    1.41634023333646    0.58436726604254
C         2.33661677841659    2.58319604048436    0.58325219345792
C         1.57643321584169    2.57943304143626    1.80573888020715
C         1.94656437538964    1.41444447966643    2.55722737172473
C         2.94652691618494    0.69372862889442    1.80964836112007
C        -0.36245589506063    3.43915722338285    0.57806492124187
C        -1.73292116176654    2.99426363590915    0.57361984569939
C        -1.97792373259479    2.27601313945906    1.79257445552421
C        -0.73586342933949    2.27605797684781    2.56437724706377
C         0.24855868263986    2.99440656862630    1.80478814950669
C        -3.36811591101869    0.71954476057492    0.57222087258335
C        -3.36811589517647   -0.71954475778062    0.57222087755763
C        -2.78259844184698   -1.16761823281039    1.79680650437688
C        -2.63180842876461   -0.00000000860160    2.74927340961759
C        -2.78259846764210    1.16761826267501    1.79680648169172
C        -1.73292115965576   -2.99426363201917    0.57361984581177
C        -0.36245592477081   -3.43915721134186    0.57806493271892
C         0.24855868282490   -2.99440655212649    1.80478815542593
C        -0.73586346185926   -2.27605795258193    2.56437725480535
C        -1.97792375675381   -2.27601313839632    1.79257446179575
C        -0.23995667534254   -3.00930611771087   -1.83157924222100
C         0.75339154916965   -2.28965151864672   -2.58499646268525
C         1.97931582034574   -2.28967782171547   -1.82330546190320
C         1.74374492012575   -3.00931789526298   -0.59899435092853
C         0.36980685524914   -3.44982168199356   -0.60039779478484
C         2.79693874581352   -1.16630744807270   -1.82264920009552
C         2.41786619375564   -0.00000000884744   -2.58060087286920
C         2.79693873954327    1.16630744174284   -1.82264919780718
C         3.41020636435138    0.72165812969512   -0.59659502613924
C         3.41020634577785   -0.72165813741707   -0.59659504304808
C         1.97931581315908    2.28967780053613   -1.82330544945559
C         0.75339154156918    2.28965150695662   -2.58499646881016
C        -0.23995667742621    3.00930611264807   -1.83157926730096
C         0.36980688093510    3.44982167119190   -0.60039778806476
C         1.74374493252821    3.00931789466245   -0.59899435428950
C        -1.56251472458196    2.58320830614158   -1.83951634186654
C        -1.93928160070683    1.41633648983833   -2.59970167712819
C        -2.93218259333171    0.69371739725832   -1.84311717499790
C        -3.15973005948349    1.41448467468812   -0.61551831388367
C        -2.32195368571279    2.57942412557364   -0.61653263410426
C        -2.93218255812027   -0.69371737316212   -1.84311719117475
C        -1.93928162094776   -1.41633648410472   -2.59970170431856
C        -1.56251473206666   -2.58320828777863   -1.83951632646003
C        -2.32195369321746   -2.57942410619934   -0.61653262786536
C        -3.15973005073290   -1.41448464336154   -0.61551831113361
C        -0.98020229407579   -0.72166042027588   -3.32460699587162
C        -0.98020231437353    0.72166038641436   -3.32460696850501
C         0.39067397270430    1.16631441545012   -3.31777748118846
C         1.23812897047447    0.00000000359951   -3.31364904505009
C         0.39067398302323   -1.16631441981812   -3.31777748186733
Cl       -1.63994216729314    0.00000011083990    5.35638845741214
Cl       -4.08062814504677    0.00000005767468    3.84011065644506
62
 energy: -137.582477603285 gnorm: 0.003258570219 xtb: 6.4.1 (a3dbbd7)
C        -1.30496077207720    0.00000001283888    3.57729459499871
C        -0.38253810472514   -1.16631791511584    3.28561252018281
C         0.97364808393225   -0.71962648943991    3.26891949042452
C         0.97364810503212    0.71962650153352    3.26891948017233
C        -0.38253809137728    1.16631792175232    3.28561248964567
C         2.33600393461139   -2.58307729445930    0.58371108800819
C         3.18455828638219   -1.41623262435727    0.58440306322114
C         2.94657244636558   -0.69357587853835    1.80884572575723
C         1.94704034646190   -1.41481101583994    2.55769218943279
C         1.57592250180132   -2.57890041598049    1.80656018329786
C         3.18455830871637    1.41623264282136    0.58440307715453
C         2.33600394049904    2.58307730458231    0.58371108510706
C         1.57592251729677    2.57890042556263    1.80656017509272
C         1.94704036795908    1.41481104483753    2.55769220347107
C         2.94657250902534    0.69357591848813    1.80884578216350
C        -0.36281164223001    3.43904756475249    0.57862466236201
C        -1.73340804192036    2.99449877624294    0.57442769835413
C        -1.97758074183030    2.27541809188457    1.79317428641506
C        -0.73656612286114    2.27541264335118    2.56421680213065
C         0.24801939957529    2.99451824819945    1.80554666010111
C        -3.36694327189844    0.71962590776974    0.57205964828036
C        -3.36694325621783   -0.71962589618242    0.57205964705228
C        -2.78119483569689   -1.16629100415304    1.79534625201535
C        -2.63417999102727    0.00000000710390    2.75158729152482
C        -2.78119484686705    1.16629101714548    1.79534624023212
C        -1.73340805079803   -2.99449876368170    0.57442770389658
C        -0.36281165964708   -3.43904755485803    0.57862467152438
C         0.24801939205542   -2.99451823541754    1.80554666984288
C        -0.73656614149563   -2.27541263054299    2.56421681391285
C        -1.97758075630476   -2.27541808589655    1.79317429032863
C        -0.24031421252096   -3.00884872383657   -1.83074209120662
C         0.75284076938865   -2.28923117917829   -2.58418365243473
C         1.97883119898950   -2.28924201927845   -1.82244095483559
C         1.74317423714362   -3.00885634409888   -0.59830109581265
C         0.36944935660259   -3.44991455598403   -0.59978887323735
C         2.79618129542440   -1.16611051184815   -1.82224996060877
C         2.41748403704020   -0.00000000383497   -2.58025736370462
C         2.79618129319974    1.16611050451828   -1.82224996163486
C         3.40992294527713    0.72141862197251   -0.59653799084911
C         3.40992292975609   -0.72141862138851   -0.59653799378191
C         1.97883119399963    2.28924200871706   -1.82244094901776
C         0.75284075936982    2.28923116980864   -2.58418365537126
C        -0.24031420912832    3.00884872584137   -1.83074210503725
C         0.36944937098484    3.44991455154001   -0.59978888094000
C         1.74317424212560    3.00885633952338   -0.59830109410998
C        -1.56262741765280    2.58307280599734   -1.83872961604502
C        -1.93908232182765    1.41623049045697   -2.59917493732878
C        -2.93149166738000    0.69356795212728   -1.84350821920066
C        -3.16032745900768    1.41480932885676   -0.61568313011244
C        -2.32242960374227    2.57887547342303   -0.61568845995133
C        -2.93149166461087   -0.69356792859318   -1.84350823577834
C        -1.93908232001470   -1.41623048832699   -2.59917495420220
C        -1.56262742724395   -2.58307279861773   -1.83872960474673
C        -2.32242960783733   -2.57887545891950   -0.61568845163710
C        -3.16032744857975   -1.41480930299238   -0.61568312724194
C        -0.98010689995986   -0.72141674510693   -3.32424722758794
C        -0.98010690606983    0.72141672626829   -3.32424720117910
C         0.39065600519445    1.16610864091806   -3.31688385789518
C         1.23798884451264    0.00000000166302   -3.31311112842873
C         0.39065601195842   -1.16610864871339   -3.31688385619668
Cl       -1.60512756944037    0.00000010097500    5.36567333393499
Cl       -4.10445577839062    0.00000008036168    3.81300107784510
62
 energy: -137.582499034326 gnorm: 0.001904720650 xtb: 6.4.1 (a3dbbd7)
C        -1.30555922201694    0.00000001410287    3.57761647557287
C        -0.38291996289241   -1.16604931157565    3.28621707350289
C         0.97286747622041   -0.71941587067699    3.26874672309068
C         0.97286749440714    0.71941588755138    3.26874671905747
C        -0.38291994928986    1.16604932250760    3.28621704933150
C         2.33537068265533   -2.58190461237878    0.58302426637487
C         3.18412744866274   -1.41564654598521    0.58358966817740
C         2.94539800346404   -0.69338080704261    1.80795177117256
C         1.94593616139454   -1.41414960517390    2.55708115072470
C         1.57522472163943   -2.57742020080950    1.80575574619086
C         3.18412746787336    1.41564655957353    0.58358967488081
C         2.33537069232354    2.58190462094899    0.58302426528613
C         1.57522473903093    2.57742021671096    1.80575574210891
C         1.94593618085638    1.41414963716878    2.55708116358029
C         2.94539806163518    0.69338083981588    1.80795181416340
C        -0.36287980143719    3.43727982721853    0.57876509630355
C        -1.73301044539877    2.99263106377256    0.57456200153896
C        -1.97779775081675    2.27459808437177    1.79361837568663
C        -0.73682580617599    2.27460008635009    2.56471918055586
C         0.24773660421133    2.99265786450831    1.80530799345075
C        -3.36623220528256    0.71941585191970    0.57260484206740
C        -3.36623219732543   -0.71941583310249    0.57260484458311
C        -2.78145036777723   -1.16605125598673    1.79589810855286
C        -2.63401767566099    0.00000000889371    2.75217294900244
C        -2.78145037128968    1.16605128154250    1.79589809448099
C        -1.73301044950530   -2.99263105125008    0.57456200962514
C        -0.36287981603922   -3.43727981553373    0.57876510759761
C         0.24773659547805   -2.99265784725526    1.80530800276648
C        -0.73682582211710   -2.27460006801798    2.56471919308513
C        -1.97779776394916   -2.27459807058140    1.79361838553365
C        -0.23994156962708   -3.00768403830874   -1.83067395767705
C         0.75304742500217   -2.28856528670075   -2.58428047161467
C         1.97875621316888   -2.28857093911886   -1.82267791799790
C         1.74289975079734   -3.00769023134406   -0.59861541135228
C         0.36928389610216   -3.44823353251317   -0.59955465044534
C         2.79612804115758   -1.16588254715285   -1.82272332421778
C         2.41754600831344   -0.00000000547139   -2.58068777177849
C         2.79612803847418    1.16588254076758   -1.82272332216214
C         3.40971823214490    0.72121838090666   -0.59714293826242
C         3.40971822307806   -0.72121837800952   -0.59714294662532
C         1.97875621454524    2.28857093057570   -1.82267791939425
C         0.75304742419785    2.28856527923009   -2.58428047646002
C        -0.23994156532354    3.00768403768358   -1.83067397054117
C         0.36928390891166    3.44823353501325   -0.59955465727528
C         1.74289975734451    3.00769022984678   -0.59861541853655
C        -1.56176889321395    2.58190528364655   -1.83851019515261
C        -1.93819017568286    1.41564414726212   -2.59921871498427
C        -2.93018304667268    0.69337590267463   -1.84290621549353
C        -3.15918198923372    1.41415878904568   -0.61502851861882
C        -2.32137508148527    2.57742729339058   -0.61543787930545
C        -2.93018304462502   -0.69337589237904   -1.84290622555966
C        -1.93819018075737   -1.41564414504785   -2.59921871717810
C        -1.56176889956048   -2.58190527885308   -1.83851018550418
C        -2.32137508460816   -2.57742727819923   -0.61543787239008
C        -3.15918198644571   -1.41415876679351   -0.61502851499606
C        -0.97951020515287   -0.72121837784846   -3.32443865235893
C        -0.97951021079176    0.72121836382154   -3.32443864297019
C         0.39107101700513    1.16588478804975   -3.31713632959398
C         1.23831324974543   -0.00000000191708   -3.31342256422746
C         0.39107102045413   -1.16588479706387   -3.31713632996743
Cl       -1.60968388824132    0.00000006308907    5.36492079338380
Cl       -4.10164953159869    0.00000007678488    3.81655469898052
62
 energy: -137.582502024377 gnorm: 0.001643201574 xtb: 6.4.1 (a3dbbd7)
C        -1.30589534198163    0.00000001200676    3.57726753918218
C        -0.38255376758546   -1.16616512384342    3.28593483517711
C         0.97251084547072   -0.71954362189154    3.26848716993662
C         0.97251085873670    0.71954364215659    3.26848717522932
C        -0.38255375713610    1.16616514065710    3.28593482740855
C         2.33517903574436   -2.58175441876364    0.58299285541551
C         3.18392920033110   -1.41548633270830    0.58353737081672
C         2.94543768610480   -0.69330384569278    1.80765696127314
C         1.94591326985576   -1.41428542461045    2.55720562105289
C         1.57504417901518   -2.57703361515699    1.80589272324500
C         3.18392921719037    1.41548634365873    0.58353737800954
C         2.33517904683470    2.58175442533529    0.58299285213100
C         1.57504419089912    2.57703363018893    1.80589272221627
C         1.94591328760197    1.41428544641422    2.55720563252457
C         2.94543772318906    0.69330386927254    1.80765699015098
C        -0.36287645406763    3.43714860768095    0.57877418957998
C        -1.73307251898715    2.99275471036750    0.57468217492974
C        -1.97776820974393    2.27492755866293    1.79393585847306
C        -0.73709587677878    2.27492404752767    2.56483373845784
C         0.24766619735377    2.99274177024310    1.80542804968495
C        -3.36584741997806    0.71954593748447    0.57281881572234
C        -3.36584742103589   -0.71954592419647    0.57281881678218
C        -2.78130494774676   -1.16616443968784    1.79545210357348
C        -2.63357025969052    0.00000000940522    2.75232803454910
C        -2.78130493356806    1.16616444934931    1.79545209503788
C        -1.73307252908226   -2.99275469939797    0.57468218350795
C        -0.36287646285983   -3.43714859973643    0.57877419752881
C         0.24766618552539   -2.99274175849281    1.80542805816112
C        -0.73709588629685   -2.27492403335298    2.56483374571945
C        -1.97776822094838   -2.27492754712536    1.79393586659091
C        -0.23996660710213   -3.00739205649029   -1.83055013123526
C         0.75296676674585   -2.28838117858751   -2.58422665349635
C         1.97873231676131   -2.28837987467831   -1.82258635217901
C         1.74279753251684   -3.00739022238039   -0.59854450047843
C         0.36923686680804   -3.44810512195209   -0.59947241766108
C         2.79610364932883   -1.16583564622335   -1.82282904268642
C         2.41760068904986   -0.00000000170598   -2.58080648106387
C         2.79610364903941    1.16583564109062   -1.82282903873792
C         3.40979332039146    0.72108008667278   -0.59724395244257
C         3.40979331838290   -0.72108008218890   -0.59724395822973
C         1.97873232025324    2.28837987175608   -1.82258635455103
C         0.75296676937555    2.28838117500933   -2.58422665668815
C        -0.23996660078886    3.00739205845648   -1.83055013695709
C         0.36923687453918    3.44810512600146   -0.59947242692899
C         1.74279753922020    3.00739022312505   -0.59854450437118
C        -1.56166237882145    2.58175485097017   -1.83834019952264
C        -1.93807586031977    1.41548835078834   -2.59905865599418
C        -2.92994309089633    0.69330370827512   -1.84305824309322
C        -3.15925362255021    1.41428303493958   -0.61493101285430
C        -2.32139305955611    2.57703372500781   -0.61519119844506
C        -2.92994309699648   -0.69330370361698   -1.84305824672498
C        -1.93807585946978   -1.41548834928782   -2.59905865270730
C        -1.56166238395158   -2.58175484830139   -1.83834019325296
C        -2.32139306443045   -2.57703371643830   -0.61519119250389
C        -3.15925362522544   -1.41428302412034   -0.61493101008987
C        -0.97946628244095   -0.72108014968290   -3.32454106943165
C        -0.97946628156114    0.72108014779213   -3.32454106876133
C         0.39116028402736    1.16583460683346   -3.31715850459065
C         1.23837920000478   -0.00000000240690   -3.31352318667212
C         0.39116028371671   -1.16583461264501   -3.31715850367345
Cl       -1.61162776788227    0.00000008968303    5.36354526265922
Cl       -4.09972292423428    0.00000009520448    3.81753596906614
62
 energy: -137.582496574257 gnorm: 0.002181971303 xtb: 6.4.1 (a3dbbd7)
C        -1.30660867997830    0.00000001248099    3.57697977981301
C        -0.38236612458551   -1.16551559545330    3.28515028689889
C         0.97238654303134   -0.71954951376535    3.26812541465203
C         0.97238655006366    0.71954954200340    3.26812542581769
C        -0.38236611764165    1.16551562154116    3.28515028316261
C         2.33514741580177   -2.58175002939678    0.58287960003768
C         3.18392324787738   -1.41544461618435    0.58338571053098
C         2.94561315913782   -0.69326122702482    1.80733335189533
C         1.94598990789977   -1.41436317041933    2.55713146961025
C         1.57497395796994   -2.57674164134184    1.80587560949596
C         3.18392325999080    1.41544462346906    0.58338570991404
C         2.33514742784077    2.58175003443992    0.58287958856977
C         1.57497396529724    2.57674165798141    1.80587560350844
C         1.94598991814966    1.41436318788380    2.55713147425316
C         2.94561315302768    0.69326123834733    1.80733335018804
C        -0.36287416108806    3.43708395322596    0.57878441428592
C        -1.73317579757041    2.99302516826882    0.57480398119601
C        -1.97794096973773    2.27557709665992    1.79429199667927
C        -0.73725338799905    2.27482180923200    2.56474508713782
C         0.24763520724476    2.99267483182717    1.80546903522188
C        -3.36575986510413    0.71972468586941    0.57314649309199
C        -3.36575987616084   -0.71972466916499    0.57314649583002
C        -2.78178978883845   -1.16698864231758    1.79536938979988
C        -2.63387710116310    0.00000001304332    2.75226653345210
C        -2.78178975873545    1.16698865017170    1.79536938150722
C        -1.73317581334769   -2.99302514974079    0.57480399611498
C        -0.36287416890057   -3.43708394116874    0.57878442710994
C         0.24763519233749   -2.99267481643364    1.80546904874672
C        -0.73725339422363   -2.27482179030353    2.56474509722901
C        -1.97794097997772   -2.27557707594141    1.79429200852782
C        -0.24001697877411   -3.00705339880231   -1.83044578705520
C         0.75287505748907   -2.28789623646646   -2.58403312866325
C         1.97886277996277   -2.28867325338953   -1.82266037671827
C         1.74276069728857   -3.00739210874565   -0.59853809019349
C         0.36916717370201   -3.44804480041185   -0.59942446854786
C         2.79670202816642   -1.16663450653315   -1.82310620763573
C         2.41822361031513   -0.00000000070941   -2.58055082248602
C         2.79670203235642    1.16663450045509   -1.82310620642413
C         3.41007151195316    0.72110462456415   -0.59746819613836
C         3.41007151250654   -0.72110462295275   -0.59746819597545
C         1.97886278843565    2.28867325341654   -1.82266038540693
C         0.75287506677105    2.28789623572043   -2.58403313660990
C        -0.24001696745374    3.00705340422511   -1.83044579463725
C         0.36916718173509    3.44804480825798   -0.59942448617380
C         1.74276070736804    3.00739211208735   -0.59853809908159
C        -1.56165901920559    2.58161399975747   -1.83814289266557
C        -1.93812612958066    1.41535606414956   -2.59882824510139
C        -2.92994191972797    0.69326125698238   -1.84302301106219
C        -3.15937038835050    1.41441038998602   -0.61472017586782
C        -2.32150660931337    2.57685301693641   -0.61494814201982
C        -2.92994193059745   -0.69326125128649   -1.84302300741003
C        -1.93812612831652   -1.41535606046469   -2.59882823619259
C        -1.56165902639503   -2.58161399401887   -1.83814288337884
C        -2.32150661820201   -2.57685300623667   -0.61494813089790
C        -3.15937039739826   -1.41441038106001   -0.61472017076658
C        -0.97954298745054   -0.72088373406452   -3.32439089589373
C        -0.97954298009451    0.72088374116695   -3.32439090244982
C         0.39128928574263    1.16500565540894   -3.31658741506934
C         1.23896882613229   -0.00000000419291   -3.31322905646476
C         0.39128927992572   -1.16500565901765   -3.31658740999493
Cl       -1.61201940991529    0.00000006581700    5.36275997420102
Cl       -4.09928917939283    0.00000005828642    3.81757220627185
62
 energy: -137.582500588242 gnorm: 0.001179498824 xtb: 6.4.1 (a3dbbd7)
C        -1.30626407041686    0.00000001319576    3.57729128314641
C        -0.38252512890015   -1.16574295529028    3.28552131306184
C         0.97249557341970   -0.71952747297450    3.26831922197869
C         0.97249558136546    0.71952749820773    3.26831922805669
C        -0.38252512121073    1.16574297845881    3.28552130311318