63
 energy: -142.068685687430 gnorm: 0.137836400273 xtb: 6.4.1 (a3dbbd7)
C        -1.29380189142293    0.00518810975266    3.53475042546279
C        -0.36795491470580   -1.17109445736895    3.30532490038581
C         0.98604358283337   -0.72205662153057    3.28338601634011
C         0.99279845569028    0.71960958020434    3.28670177220412
C        -0.35984581254024    1.17608479242461    3.30752732760340
C         2.33713649004571   -2.58532145161085    0.58372316331785
C         3.18546133793759   -1.42134997264655    0.58338208878717
C         2.95082976620164   -0.69852042803930    1.80993186584047
C         1.95446102216782   -1.41753025851411    2.56281800021944
C         1.57847833033781   -2.57892028349053    1.80920393433954
C         3.19288167803387    1.41169296432545    0.58672865582473
C         2.35105136029066    2.58084981847724    0.59261819528430
C         1.59758832697668    2.57820008875605    1.81796532275165
C         1.96559431354784    1.41132811232743    2.56849274624772
C         2.95756435296723    0.68790137312963    1.81257795942740
C        -0.35275196897409    3.42887133849168    0.59421742049523
C        -1.72920692229924    2.99230129003520    0.61519127722458
C        -1.95197042618735    2.29668273330733    1.78890012206403
C        -0.71485852606077    2.27608556030605    2.56877936383865
C         0.27214507062583    2.99541427636099    1.81693304163630
C        -3.38721742288295    0.70448508843178    0.56514887497333
C        -3.39044375775274   -0.72968934853056    0.56550558817146
C        -2.77113539472441   -1.15912612265277    1.79248966840215
C        -2.41317429079729    0.01751644177935    2.54950357180152
C        -2.77182627205049    1.13563561134442    1.81994410998792
C        -1.73355122268659   -3.00708034664607    0.58129730270537
C        -0.36181166270692   -3.44426421951826    0.58345136711438
C         0.25275073307619   -2.99321810486982    1.80880479424469
C        -0.73039712791208   -2.27135950943121    2.56586851742324
C        -1.97279304600038   -2.28576170766145    1.80102269682824
C        -0.24238615112945   -3.01793584622875   -1.82445515299701
C         0.75219722331257   -2.29732681147523   -2.58092298223561
C         1.97624114646521   -2.29597968001587   -1.82132020587332
C         1.74307643045859   -3.01315945447727   -0.59635165459212
C         0.36952394179264   -3.45595661079619   -0.59532061061890
C         2.79389381083502   -1.17006079615157   -1.82189978789697
C         2.41348009957297   -0.00705489229052   -2.57818086595715
C         2.78999064750528    1.16020365821852   -1.81761248140956
C         3.41015703318610    0.71618948342090   -0.59477681854074
C         3.40904188499398   -0.72628404265143   -0.59717927367984
C         1.96766155284354    2.27743617061842   -1.80961098452332
C         0.73818631315969    2.27318131636995   -2.56526366176596
C        -0.25452817372238    2.98697308127654   -1.81304848877457
C         0.37433917950606    3.44714002836196   -0.57954542322151
C         1.74069841374485    3.00184911275993   -0.58628229109115
C        -1.56594286660743    2.57622153348487   -1.82757382821072
C        -1.93060359076478    1.40833920854940   -2.56142004737257
C        -2.92558718059454    0.68471965133326   -1.80985060540908
C        -3.18336452045091    1.39842201201719   -0.60046258538095
C        -2.49261081939282    2.74597890286004   -0.64190319443319
C        -2.93337982074983   -0.70819502150591   -1.82878957204493
C        -1.94087750651851   -1.42668590891227   -2.58871417977512
C        -1.56447467303262   -2.59492957963295   -1.83010971308821
C        -2.32899579696595   -2.59691491413030   -0.60898361949216
C        -3.17400858337551   -1.43281811038797   -0.61332327338214
C        -0.98438829443742   -0.73034962028861   -3.31153930258603
C        -0.98168514679102    0.71067458913262   -3.30542238699281
C         0.38278275322509    1.15383295034001   -3.30684835980828
C         1.23382314639336   -0.00939761816394   -3.31093861539930
C         0.38818347913191   -1.17531879821918   -3.31264620408259
Cl       -1.92621810876854    0.00794379942123    5.24496950921280
Cl       -3.69873659772651    4.07913281862690   -0.94789575544924
Cl        4.80900678209887   -2.15577351327839    0.90090729047822
63
 energy: -142.092531106580 gnorm: 0.059980688102 xtb: 6.4.1 (a3dbbd7)
C        -1.29776170185634    0.00583101430182    3.53689428655890
C        -0.37307650427507   -1.17103698696168    3.30763822310421
C         0.97895133268368   -0.71867588955426    3.28795161768734
C         0.98752498628954    0.72124269986915    3.29301715106177
C        -0.36409535972903    1.17673227355588    3.31047267253553
C         2.32031478711179   -2.58775887891817    0.58417907597851
C         3.28132888333956   -1.46518693866262    0.60387069009263
C         2.93657895419167   -0.69115956272414    1.81668030032959
C         1.94483885252126   -1.41122458721937    2.55831933695626
C         1.56839846810693   -2.57429488077585    1.80386266774648
C         3.18707080910787    1.41450733986426    0.58437783427324
C         2.34925832919984    2.57940042595747    0.59163961498213
C         1.59449104117972    2.57724032014712    1.81831979984980
C         1.96076996534914    1.41453836082516    2.57409587007447
C         2.94272920213849    0.68912672359280    1.81238718534487
C        -0.35428423115694    3.42976308248516    0.59396046177317
C        -1.72818831470312    2.99298559834410    0.61447292149126
C        -1.95297435532238    2.29735905671598    1.79006211705712
C        -0.71759639368465    2.27619709737166    2.56956041336016
C         0.26995192337889    2.99465902323135    1.81666128492674
C        -3.38763569024662    0.70523707326965    0.56543359056403
C        -3.39174912040665   -0.72855719702145    0.56613065555757
C        -2.77369989156450   -1.15789027258651    1.79350056580137
C        -2.41576721167407    0.01826331475293    2.55049497622975
C        -2.77259586300305    1.13680437625509    1.82044011344470
C        -1.73765694031622   -3.00737541333231    0.58311052322510
C        -0.36832733803134   -3.44851260536287    0.58639471270597
C         0.24376031056122   -2.99694612622996    1.80912177945501
C        -0.73645638460690   -2.27223353159495    2.56786106179566
C        -1.97758564471795   -2.28635688584719    1.80334289918817
C        -0.24397215586356   -3.01736837286252   -1.82320610584830
C         0.75158367555608   -2.29522568882987   -2.58022201506537
C         1.97221753270039   -2.29167849432776   -1.82401322120558
C         1.73044244506659   -3.00633494756757   -0.59315220367353
C         0.36337005199102   -3.45914860399126   -0.59469651184220
C         2.78531528341171   -1.15785167432255   -1.82413665421603
C         2.40972539985968    0.00173961593080   -2.58916555421777
C         2.78621465036108    1.16773251561640   -1.82956211700194
C         3.39822165283741    0.71672653159342   -0.60333023286739
C         3.41913050446070   -0.71435139693666   -0.61844512981119
C         1.96501264118589    2.28280752238562   -1.81618390732532
C         0.73528000136461    2.27642598459555   -2.56999805657244
C        -0.25571000970254    2.98853937126975   -1.81456351060133
C         0.37477615040192    3.44838245926505   -0.58152245949899
C         1.73820373956970    3.00492913427207   -0.58967936227362
C        -1.56645795936416    2.57691005082848   -1.82785912546005
C        -1.93166739516071    1.40884130828482   -2.56163617178809
C        -2.92630008839518    0.68504711144731   -1.80967787084901
C        -3.18302938038006    1.39892554899092   -0.60045345598766
C        -2.49256849024925    2.74667555039384   -0.64197617305294
C        -2.93368262753812   -0.70790113414301   -1.82850445462379
C        -1.94225580641869   -1.42680996327473   -2.58889190468195
C        -1.56567055673137   -2.59418311579991   -1.82917501503689
C        -2.33069941433550   -2.59629391862538   -0.60807684042005
C        -3.17496925163562   -1.43226989761919   -0.61282025896606
C        -0.98571854092024   -0.72973841315827   -3.31269910716286
C        -0.98412563351502    0.71168520953154   -3.30692773259795
C         0.37939559190559    1.15718993191857   -3.31164762088065
C         1.23017822683387   -0.00515558371841   -3.31878709867720
C         0.38579627989943   -1.17284764872166   -3.31576038778563
Cl       -1.92835534403660    0.00631073637526    5.24730265393314
Cl       -3.69901778433976    4.07921990240613   -0.94837726528717
Cl        4.93935987954166   -2.21695620982647    0.93346543274791
63
 energy: -142.098524963275 gnorm: 0.014105148836 xtb: 6.4.1 (a3dbbd7)
C        -1.30243429201385    0.00663381415812    3.53786995166162
C        -0.37648179686854   -1.16979389913974    3.30671066454113
C         0.97477997433386   -0.71597400532565    3.28442725262299
C         0.98222831690682    0.72096478878364    3.29245173186006
C        -0.36864316298598    1.17817983830944    3.31296245003990
C         2.32159262723266   -2.59193615579881    0.58520331348283
C         3.36558837002125   -1.50546492200842    0.62447178047762
C         2.93888945557545   -0.69141984377141    1.82052198170285
C         1.94292143917401   -1.40414371510013    2.54788835492695
C         1.56671766227546   -2.56766674590494    1.79368922500779
C         3.18644211234509    1.41620858036808    0.58421062339542
C         2.34705088307675    2.57483649519697    0.58966790950736
C         1.59040496292394    2.57468095765875    1.81624073832031
C         1.95554297267712    1.41074653809317    2.56963411993812
C         2.93929306020277    0.68377116733245    1.81136901450217
C        -0.35790119437818    3.43020220678519    0.59309436067921
C        -1.72929568000262    2.99403212718625    0.61310540551353
C        -1.95537955900671    2.29815658851141    1.79034861598063
C        -0.72135687076546    2.27702414010171    2.56998957185070
C         0.26697854237786    2.99405873945575    1.81564999981866
C        -3.39016701009049    0.70679562956001    0.56526611263025
C        -3.39456443492434   -0.72658362416354    0.56648361940630
C        -2.77775208428611   -1.15611612228699    1.79414790042935
C        -2.42034730509064    0.01962896492993    2.55145629272684
C        -2.77534340340545    1.13849011581893    1.82039885321598
C        -1.74224625144149   -3.00711751746404    0.58412173506726
C        -0.37203534024720   -3.44516220098824    0.58796497265324
C         0.24041892588988   -2.99445114272793    1.80633766141316
C        -0.74024016014756   -2.27115090365520    2.56744824631835
C        -1.98192114862131   -2.28538563305482    1.80460814177846
C        -0.24556378036839   -3.01324546095502   -1.82137185971587
C         0.75165588038950   -2.29121938710231   -2.57767663370908
C         1.97183961481723   -2.29100920500034   -1.82606345354548
C         1.73023583930108   -3.00147691545503   -0.58791003798806
C         0.36225304658074   -3.45089777713265   -0.59250441000603
C         2.78048867980346   -1.15275776914191   -1.81639979069498
C         2.40410446226296    0.00415930403226   -2.58877568205649
C         2.77999529128731    1.16809750934824   -1.83041024819675
C         3.38996813009723    0.70896481989410   -0.60249064041666
C         3.41523401940944   -0.70994011745969   -0.62140954026251
C         1.96068913138053    2.28379906560617   -1.81851368497662
C         0.73185345249838    2.27974128168356   -2.57428931507083
C        -0.25868340406121    2.99082067781108   -1.81690554474912
C         0.37340547272875    3.44881625335678   -0.58333845444795
C         1.73403307841663    3.00688287189107   -0.59199112727236
C        -1.56895210565769    2.57869230322299   -1.82902235187803
C        -1.93458516614033    1.41043908544674   -2.56280828158989
C        -2.92883149359799    0.68670547880784   -1.80992923400773
C        -3.18477223312177    1.40033310555769   -0.60086254075339
C        -2.49466676155481    2.74808405799453   -0.64275501912526
C        -2.93555205455591   -0.70627421741839   -1.82848025596243
C        -1.94531145374464   -1.42543191741662   -2.58927652480694
C        -1.56771797151948   -2.59192836074886   -1.82856874657669
C        -2.33384811175219   -2.59499096886022   -0.60757539789450
C        -3.17695141057373   -1.43064698482122   -0.61260455835616
C        -0.98829270668462   -0.72817553968701   -3.31349266846647
C        -0.98799054876694    0.71382976337241   -3.30908551215370
C         0.37557571043604    1.16028697427209   -3.31611639768129
C         1.22597054317143   -0.00255497326017   -3.32082252015974
C         0.38216641493578   -1.17034984143006   -3.31783406806142
Cl       -1.93179435426392    0.00474364861454    5.24858363535569
Cl       -3.70102720067738    4.08042207032955   -0.94886845899396
Cl        5.03887254701329   -2.25931165108346    0.95170368730520
63
 energy: -142.098841280270 gnorm: 0.008485147287 xtb: 6.4.1 (a3dbbd7)
C        -1.30420765769758    0.00708696049889    3.53813752555265
C        -0.37729332836582   -1.16869210219040    3.30508643227673
C         0.97412428273086   -0.71563914462681    3.28085180505537
C         0.98064393941235    0.72033639998828    3.29045911365874
C        -0.37030167597293    1.17883405612452    3.31351024114837
C         2.33005306325109   -2.59643380709679    0.58649582047733
C         3.38545950499254   -1.51579470198998    0.63071015381035
C         2.94777217268243   -0.69462739606968    1.82271735334594
C         1.94491534917758   -1.40256162938792    2.54461606037718
C         1.56881683756874   -2.56620629297307    1.79057358165406
C         3.18814150333844    1.41748298048708    0.58498591489950
C         2.34647159863217    2.57317705907198    0.58879133836338
C         1.58863721311414    2.57246609982277    1.81444758476337
C         1.95399179467214    1.40735917341188    2.56584451457933
C         2.94276732105538    0.68117811411077    1.81171095499293
C        -0.35971474057396    3.43021495852653    0.59266354286504
C        -1.73050424461605    2.99476888525685    0.61264701404250
C        -1.95706949139577    2.29880176635493    1.79044936174999
C        -0.72301562518023    2.27716719530730    2.56976061446963
C         0.26575267556238    2.99326601447546    1.81484479485459
C        -3.39180598198136    0.70782704501064    0.56510693634330
C        -3.39646006586628   -0.72549149529473    0.56663474331934
C        -2.77992078661779   -1.15527252005122    1.79442211795776
C        -2.42243938140516    0.02043059313322    2.55182055697969
C        -2.77719062630821    1.13951388185540    1.82043745897145
C        -1.74375877191710   -3.00619930917300    0.58421885145475
C        -0.37235539824834   -3.44204673425181    0.58812574464649
C         0.24098389992305   -2.99124211421658    1.80483360509429
C        -0.74098372168417   -2.26962591834950    2.56620385595984
C        -1.98353663750965   -2.28447136758828    1.80472480812995
C        -0.24567417884061   -3.01011903371704   -1.81981441273902
C         0.75174898300453   -2.28982952191041   -2.57692323615220
C         1.97272130423484   -2.29256149799394   -1.82737786205717
C         1.73430589732601   -3.00214970957645   -0.58639979910022
C         0.36355680076364   -3.44555907800627   -0.59093407912522
C         2.78104948889838   -1.15394626628008   -1.81265407086261
C         2.40163827106635    0.00316116700472   -2.58582529507385
C         2.77705591485335    1.16628528520470   -1.82785733569789
C         3.38974636016436    0.70507326917274   -0.59993535404304
C         3.41264630284723   -0.71145038762296   -0.61750560888389
C         1.95886241398464    2.28282258459036   -1.81830932629131
C         0.73066355347130    2.28045793584330   -2.57541486667824
C        -0.25998882993389    2.99179995263194   -1.81796107063952
C         0.37246089801725    3.44875190513118   -0.58381395977314
C         1.73226289149013    3.00700562222581   -0.59234288805409
C        -1.57028071790195    2.57972493934523   -1.82982822191253
C        -1.93608586754383    1.41128822121790   -2.56368059279995
C        -2.93029210987242    0.68775560884267   -1.81022647979978
C        -3.18603454582226    1.40129244405723   -0.60118382654004
C        -2.49599147217697    2.74900811826949   -0.64327038064905
C        -2.93690640484356   -0.70528788404167   -1.82851509884383
C        -1.94689965453448   -1.42458066805963   -2.58935364432206
C        -1.56834082939593   -2.59027508787023   -1.82794897231501
C        -2.33523449349677   -2.59367878471107   -0.60731408722593
C        -3.17847023431656   -1.42960141537118   -0.61255612407559
C        -0.98959763201660   -0.72762584294436   -3.31360105269975
C        -0.98963433321723    0.71461452416724   -3.31011514207991
C         0.37429384783560    1.16088395067137   -3.31725461673936
C         1.22451722353726   -0.00227912660968   -3.32008059023387
C         0.38063529251163   -1.16981121707263   -3.31809351565025
Cl       -1.93462274709371    0.00219060064912    5.24850862607950
Cl       -3.70231712751151    4.08132772237268   -0.94923505115634
Cl        5.05677288196467   -2.26364353465827    0.95086049889486
63
 energy: -142.098948293760 gnorm: 0.004762062397 xtb: 6.4.1 (a3dbbd7)
C        -1.30484512444311    0.00748648404952    3.53863962128000
C        -0.37769796310579   -1.16795733949673    3.30415681891829
C         0.97362508256352   -0.71536595218780    3.27858571797301
C         0.97995732145367    0.72026569626720    3.28960573720569
C        -0.37109084887392    1.17953232200210    3.31431494077967
C         2.33509199554944   -2.59866768857565    0.58694619601193
C         3.39388162567459   -1.52034482875331    0.63364160022530
C         2.95298195481450   -0.69637397935844    1.82347008537021
C         1.94554150885633   -1.40126638078499    2.54253246563925
C         1.56947276115398   -2.56499110578507    1.78859139862290
C         3.18945558311410    1.41919130451707    0.58572481572285
C         2.34666989207186    2.57294808722700    0.58857415173298
C         1.58785231462943    2.57124637474670    1.81352085073762
C         1.95320246196432    1.40541875872420    2.56385142642860
C         2.94460524450532    0.68012489606124    1.81183576029745
C        -0.36040487539436    3.43020176815309    0.59260780508704
C        -1.73077946935159    2.99516430109507    0.61256685727857
C        -1.95778151747247    2.29915087560938    1.79069810519279
C        -0.72365033998734    2.27722789182682    2.56973064936915
C         0.26543954676646    2.99295303610814    1.81463682997520
C        -3.39229993698422    0.70817639485378    0.56505160148141
C        -3.39729394254354   -0.72510179290224    0.56677086606875
C        -2.78094314838353   -1.15498970058788    1.79468015697478
C        -2.42311862361127    0.02075000246999    2.55204920785716
C        -2.77778235934999    1.13996402167098    1.82046691027921
C        -1.74467283754198   -3.00592175403770    0.58422260461657
C        -0.37258008283290   -3.44056664889436    0.58809627606111
C         0.24121085672014   -2.98895369911539    1.80392768066858
C        -0.74140123527304   -2.26866076978363    2.56546125453847
C        -1.98439404508401   -2.28425953728459    1.80476505551554
C        -0.24562877855386   -3.00845230499022   -1.81889528106095
C         0.75173414413152   -2.28968305163227   -2.57706590891324
C         1.97299302828675   -2.29409125851566   -1.82880085807428
C         1.73635364130060   -3.00257045172428   -0.58584371524245
C         0.36432442176623   -3.44268166596014   -0.58989767590096
C         2.78132103415534   -1.15527523685620   -1.81041792256570
C         2.40014115263772    0.00232221960028   -2.58366886250109
C         2.77518564136834    1.16493699934338   -1.82593409745754
C         3.38974992791796    0.70280518065955   -0.59785519484889
C         3.40928896135456   -0.71252172659378   -0.61406804903141
C         1.95829877117111    2.28221293353606   -1.81801978304184
C         0.73052775389703    2.28051659017148   -2.57573678462058
C        -0.26018286229233    2.99218596623295   -1.81836460405371
C         0.37239244137082    3.44875167150021   -0.58384676391836
C         1.73165258840647    3.00728760478087   -0.59227266246269
C        -1.57043334239862    2.58001257544032   -1.83011077522224
C        -1.93635406790792    1.41144824681087   -2.56408268842380
C        -2.93059793215374    0.68804796332199   -1.81033719849684
C        -3.18619163177906    1.40152717464225   -0.60131488296199
C        -2.49623913134100    2.74924960655272   -0.64341740493097
C        -2.93741435254690   -0.70503585930413   -1.82855418639443
C        -1.94754943184204   -1.42443956429396   -2.58946191371275
C        -1.56858431234682   -2.58974855578160   -1.82771361494714
C        -2.33587487544359   -2.59309282985193   -0.60720159340159
C        -3.17921955366741   -1.42926214481054   -0.61256195586283
C        -0.99004294461683   -0.72768808604942   -3.31369526149887
C        -0.99006149152938    0.71471222009846   -3.31064357948416
C         0.37411713375062    1.16083646174601   -3.31758404947539
C         1.22408112513211   -0.00245842678408   -3.31966133070478
C         0.37995830338249   -1.16996687594088   -3.31839638567505
Cl       -1.93632299485454   -0.00001619966488    5.24852675154646
Cl       -3.70260626938394    4.08144294113144   -0.94942895026492
Cl        5.05947227124949   -2.26104170952079    0.94647870024846
63
 energy: -142.098989630197 gnorm: 0.002446845863 xtb: 6.4.1 (a3dbbd7)
C        -1.30487308875762    0.00759542066499    3.53903739661796
C        -0.37777281355580   -1.16772425373250    3.30398259294967
C         0.97338858461889   -0.71525967633628    3.27801462216657
C         0.97988892049884    0.72041649658486    3.28976437851750
C        -0.37126002299360    1.17981965411272    3.31494323829891
C         2.33608240805148   -2.59880347877849    0.58685334071621
C         3.39609979976775   -1.52147917755217    0.63432120249268
C         2.95394110363013   -0.69663099942064    1.82326400333928
C         1.94521436327181   -1.40054157563196    2.54170552040275
C         1.56912460030641   -2.56430751012509    1.78781205086564
C         3.18990943828218    1.42028769740540    0.58617544934478
C         2.34717689641091    2.57334827428909    0.58881381991189
C         1.58784618998925    2.57101222847252    1.81349612664297
C         1.95302588927464    1.40488434231721    2.56359205939310
C         2.94463759457400    0.68002675723186    1.81184352334480
C        -0.36030194351519    3.43014903358072    0.59269910078761
C        -1.73042187957998    2.99521056696423    0.61258084117639
C        -1.95770186664885    2.29918019222024    1.79084933462755
C        -0.72357432883792    2.27709914228955    2.56976400453141
C         0.26566475502143    2.99294977559694    1.81479690887647
C        -3.39210914010064    0.70812854729093    0.56502051010972
C        -3.39727130296723   -0.72511678580418    0.56683704753677
C        -2.78103598590463   -1.15500699232844    1.79480572919704
C        -2.42300748139200    0.02076515339191    2.55209160933697
C        -2.77755479827850    1.13999954401731    1.82040705941745
C        -1.74499100074645   -3.00609448090871    0.58427495823126
C        -0.37274746785032   -3.44050534291826    0.58809817493261
C         0.24113494125599   -2.98821447947827    1.80376148445853
C        -0.74154023187566   -2.26841203189922    2.56532082632303
C        -1.98458560457663   -2.28443047479047    1.80481136373272
C        -0.24556282961258   -3.00828123727985   -1.81865680455534
C         0.75172270371218   -2.29019184212757   -2.57744694399675
C         1.97284183259102   -2.29488353232944   -1.82955739944654
C         1.73645610417538   -3.00251594672406   -0.58570482264203
C         0.36449204123963   -3.44210904199668   -0.58946563282577
C         2.78101232304234   -1.15581138845349   -1.80954345064964
C         2.39969885281085    0.00203975686264   -2.58290222764247
C         2.77456927363496    1.16443496813301   -1.82527071723490
C         3.38938141782302    0.70200855584670   -0.59687190915094
C         3.40649057385382   -0.71270396781163   -0.61229880425323
C         1.95853541431252    2.28208755239060   -1.81788019790166
C         0.73089067715689    2.28029498997407   -2.57563393426652
C        -0.25980917409456    2.99212967931926   -1.81833525409036
C         0.37282592644919    3.44876978985136   -0.58372966984801
C         1.73180397493561    3.00757160342943   -0.59205559886009
C        -1.56998553409839    2.57986820296303   -1.83007021496512
C        -1.93595853164980    1.41127627622434   -2.56410362687033
C        -2.93025771441135    0.68793272150362   -1.81033376343527
C        -3.18579501467074    1.40139794175628   -0.60134723415537
C        -2.49588761534563    2.74911956978947   -0.64340562034514
C        -2.93728224025250   -0.70516030955461   -1.82856349190821
C        -1.94748098566538   -1.42465141078690   -2.58950655536181
C        -1.56856127043177   -2.58997818389301   -1.82773357759118
C        -2.33590550993844   -2.59307226203159   -0.60714087624092
C        -3.17922855985927   -1.42932479643401   -0.61257289999137
C        -0.98988657231854   -0.72796300385020   -3.31372256947104
C        -0.98978876412839    0.71451103303652   -3.31070133618323
C         0.37446792711071    1.16057558816993   -3.31748148597381
C         1.22424627304016   -0.00272743718574   -3.31966897334394
C         0.37992444102920   -1.17035841942880   -3.31860543333230
Cl       -1.93698744646243   -0.00090636887521    5.24850520164532
Cl       -3.70228959687019    4.08119807257851   -0.94955521378337
Cl        5.05546124374554   -2.25627127466319    0.94149772494463
63
 energy: -142.099001409293 gnorm: 0.001319347369 xtb: 6.4.1 (a3dbbd7)
C        -1.30474784134134    0.00751159337684    3.53913540705378
C        -0.37771462288699   -1.16782873332493    3.30420173568048
C         0.97339209068874   -0.71530396275099    3.27845947823473
C         0.98003444047213    0.72051135424933    3.29018745550233
C        -0.37115300368910    1.17974536878818    3.31511103316628
C         2.33503104477175   -2.59825216322493    0.58674021760601
C         3.39574391160496   -1.52116426489364    0.63399468603148
C         2.95282068947226   -0.69626248232391    1.82301346018401
C         1.94482544972531   -1.40054311112407    2.54191189247489
C         1.56871370799994   -2.56433030649298    1.78801328498037
C         3.18977581576682    1.42039437508838    0.58630290240450
C         2.34749053978976    2.57364522612303    0.58910718205224
C         1.58811331895296    2.57128251502655    1.81385619168859
C         1.95315739239026    1.40514404810135    2.56412471919907
C         2.94406234539350    0.68022847637779    1.81192400440123
C        -0.36001503441997    3.43011054068614    0.59276104251654
C        -1.73006177917487    2.99511194524354    0.61257358348002
C        -1.95740405695583    2.29907948614485    1.79084588957996
C        -0.72333124681524    2.27696450018822    2.56979054723847
C         0.26590769669674    2.99302738557419    1.81496903131256
C        -3.39184439976114    0.70801838181960    0.56498597970536
C        -3.39698626277098   -0.72521472024856    0.56681604497851
C        -2.78077483102776   -1.15506557833581    1.79478371140245
C        -2.42276953719167    0.02069621041876    2.55202682215045
C        -2.77721536926483    1.13990153648353    1.82032044799225
C        -1.74490956986594   -3.00629208032193    0.58434178105669
C        -0.37280009468145   -3.44096788657613    0.58815197958816
C         0.24100532880395   -2.98856571823884    1.80400539376495
C        -0.74152228817880   -2.26858463149400    2.56550205353745
C        -1.98445254455681   -2.28458676539818    1.80484830857289
C        -0.24553394412205   -3.00879629486653   -1.81880420440611
C         0.75175858662593   -2.29063435144323   -2.57760279737093
C         1.97267792321812   -2.29493131103979   -1.82950590102943
C         1.73587424922112   -3.00241527352929   -0.58568381197359
C         0.36435593474906   -3.44269686279468   -0.58948746851976
C         2.78058768849642   -1.15567042393637   -1.80962672747515
C         2.39994942978290    0.00213548825458   -2.58314496927336
C         2.77482683583814    1.16454460980769   -1.82550837791784
C         3.38898596014180    0.70217712746146   -0.59687670282400
C         3.40536884356404   -0.71239317687880   -0.61215648392465
C         1.95890490215804    2.28219268952359   -1.81786799777821
C         0.73119387614860    2.28011972466797   -2.57548079463555
C        -0.25947867127413    2.99193721550302   -1.81819206898042
C         0.37318479020048    3.44876366778737   -0.58366071668720
C         1.73212135907291    3.00766035310853   -0.59191927080059
C        -1.56962518707982    2.57968263137190   -1.82997184758929
C        -1.93559075890220    1.41112375746148   -2.56399588648228
C        -2.92992808779793    0.68778880574201   -1.81031776681269
C        -3.18548566131769    1.40127366615352   -0.60135673222195
C        -2.49555982401700    2.74897878934624   -0.64338513043855
C        -2.93700055768823   -0.70529641800040   -1.82856356391946
C        -1.94720009412153   -1.42483071667713   -2.58949603899480
C        -1.56845186159906   -2.59029702154831   -1.82780896654658
C        -2.33571431392418   -2.59323659106275   -0.60711890017313
C        -3.17896208225846   -1.42944521499167   -0.61258663357667
C        -0.98959484815559   -0.72812623627254   -3.31369594801060
C        -0.98944291461200    0.71434869865867   -3.31054990326561
C         0.37477676005649    1.16041206549649   -3.31732921093472
C         1.22451521054372   -0.00287937019507   -3.31982559743756
C         0.38015069410709   -1.17059060348327   -3.31862091456049
Cl       -1.93692289823594   -0.00072570935464    5.24843953656506
Cl       -3.70193202318163    4.08104785953486   -0.94961753514385