63
 energy: -142.068168733146 gnorm: 0.137865188629 xtb: 6.4.1 (a3dbbd7)
C        -1.29380189142293    0.00518810975266    3.53475042546279
C        -0.36795491470580   -1.17109445736895    3.30532490038581
C         0.98604358283337   -0.72205662153057    3.28338601634011
C         0.99279845569028    0.71960958020434    3.28670177220412
C        -0.35984581254024    1.17608479242461    3.30752732760340
C         2.33713649004571   -2.58532145161085    0.58372316331785
C         3.18546133793759   -1.42134997264655    0.58338208878717
C         2.95082976620164   -0.69852042803930    1.80993186584047
C         1.95446102216782   -1.41753025851411    2.56281800021944
C         1.57847833033781   -2.57892028349053    1.80920393433954
C         3.19288167803387    1.41169296432545    0.58672865582473
C         2.35105136029066    2.58084981847724    0.59261819528430
C         1.59758832697668    2.57820008875605    1.81796532275165
C         1.96559431354784    1.41132811232743    2.56849274624772
C         2.95756435296723    0.68790137312963    1.81257795942740
C        -0.35275196897409    3.42887133849168    0.59421742049523
C        -1.72920692229924    2.99230129003520    0.61519127722458
C        -1.95197042618735    2.29668273330733    1.78890012206403
C        -0.71485852606077    2.27608556030605    2.56877936383865
C         0.27214507062583    2.99541427636099    1.81693304163630
C        -3.38721742288295    0.70448508843178    0.56514887497333
C        -3.39044375775274   -0.72968934853056    0.56550558817146
C        -2.77113539472441   -1.15912612265277    1.79248966840215
C        -2.41317429079729    0.01751644177935    2.54950357180152
C        -2.77182627205049    1.13563561134442    1.81994410998792
C        -1.73355122268659   -3.00708034664607    0.58129730270537
C        -0.36181166270692   -3.44426421951826    0.58345136711438
C         0.25275073307619   -2.99321810486982    1.80880479424469
C        -0.73039712791208   -2.27135950943121    2.56586851742324
C        -1.97279304600038   -2.28576170766145    1.80102269682824
C        -0.24238615112945   -3.01793584622875   -1.82445515299701
C         0.75219722331257   -2.29732681147523   -2.58092298223561
C         1.97624114646521   -2.29597968001587   -1.82132020587332
C         1.74307643045859   -3.01315945447727   -0.59635165459212
C         0.36952394179264   -3.45595661079619   -0.59532061061890
C         2.79389381083502   -1.17006079615157   -1.82189978789697
C         2.41348009957297   -0.00705489229052   -2.57818086595715
C         2.78999064750528    1.16020365821852   -1.81761248140956
C         3.41015703318610    0.71618948342090   -0.59477681854074
C         3.40904188499398   -0.72628404265143   -0.59717927367984
C         1.96766155284354    2.27743617061842   -1.80961098452332
C         0.73818631315969    2.27318131636995   -2.56526366176596
C        -0.25452817372238    2.98697308127654   -1.81304848877457
C         0.37433917950606    3.44714002836196   -0.57954542322151
C         1.74069841374485    3.00184911275993   -0.58628229109115
C        -1.56594286660743    2.57622153348487   -1.82757382821072
C        -1.93060359076478    1.40833920854940   -2.56142004737257
C        -2.92558718059454    0.68471965133326   -1.80985060540908
C        -3.18336452045091    1.39842201201719   -0.60046258538095
C        -2.49261081939282    2.74597890286004   -0.64190319443319
C        -2.93337982074983   -0.70819502150591   -1.82878957204493
C        -1.94087750651851   -1.42668590891227   -2.58871417977512
C        -1.56447467303262   -2.59492957963295   -1.83010971308821
C        -2.32899579696595   -2.59691491413030   -0.60898361949216
C        -3.17400858337551   -1.43281811038797   -0.61332327338214
C        -0.98438829443742   -0.73034962028861   -3.31153930258603
C        -0.98168514679102    0.71067458913262   -3.30542238699281
C         0.38278275322509    1.15383295034001   -3.30684835980828
C         1.23382314639336   -0.00939761816394   -3.31093861539930
C         0.38818347913191   -1.17531879821918   -3.31264620408259
Cl       -1.92621810876854    0.00794379942123    5.24496950921280
Cl       -3.69873659772651    4.07913281862690   -0.94789575544924
Cl        1.14106153465537   -3.48665809059241   -3.88873629302480
63
 energy: -142.092414833665 gnorm: 0.059650980809 xtb: 6.4.1 (a3dbbd7)
C        -1.29448874049580    0.00577028886905    3.53606858121435
C        -0.36845698216971   -1.17027902350392    3.30797458143531
C         0.98568549518973   -0.72110806824505    3.28612784484533
C         0.99201955000867    0.72005417384645    3.28785143402968
C        -0.36029571199577    1.17632467690410    3.30822949502245
C         2.34111441424449   -2.58358231264500    0.59208997034026
C         3.18927737873989   -1.42247435554453    0.59051147518440
C         2.95172855478866   -0.69833347342614    1.81453113108355
C         1.95510466964920   -1.41716236465141    2.56773948192684
C         1.57919846347087   -2.57859195958656    1.81508818580290
C         3.19165183430436    1.41156442383682    0.58767663687652
C         2.35027282473968    2.58125284602921    0.59305027477388
C         1.59720046018959    2.57835448305321    1.81802893778204
C         1.96539291205413    1.41157448032309    2.56916038026092
C         2.95719848970484    0.68813083041415    1.81444433815530
C        -0.35325836516935    3.43073119456495    0.59522708842914
C        -1.72963980901771    2.99376252955787    0.61602596782142
C        -1.95219014779964    2.29720335187748    1.78891685857020
C        -0.71521300412489    2.27644781370326    2.56883934294528
C         0.27168826524954    2.99577129065529    1.81757563488252
C        -3.38782776396618    0.70556414020053    0.56623941304979
C        -3.38928658032043   -0.72907575043575    0.56692576276869
C        -2.77122645308701   -1.15910758781730    1.79496705037339
C        -2.41315822885856    0.01699711165673    2.54997795046715
C        -2.77185450813405    1.13580387225233    1.81860653132857
C        -1.73597357259343   -3.01046087745506    0.58892616211903
C        -0.36547742353573   -3.44469893035268    0.59171790742980
C         0.25265298307031   -2.99310973411529    1.81428787413940
C        -0.73106473246396   -2.27130570954447    2.57039312440177
C        -1.97375476957490   -2.28679438911460    1.80599550670459
C        -0.24888444537315   -3.01546677014268   -1.80905481577683
C         0.77569347448321   -2.37021781151222   -2.65858121987911
C         1.98045259864639   -2.29015648494286   -1.80589765813901
C         1.74102282602839   -3.00373168050348   -0.58962782135733
C         0.36614951170919   -3.44687607912014   -0.58875222254730
C         2.78843300867499   -1.16601548807373   -1.80889633481035
C         2.41040139566240   -0.00182301160561   -2.57476154105608
C         2.78768577732863    1.16053439923773   -1.81719726845372
C         3.40827234282777    0.71589265447224   -0.59300043464348
C         3.41261146250494   -0.72608037095705   -0.59131020946958
C         1.96646526599208    2.28298842294257   -1.80975086419398
C         0.73671228515323    2.28280980194973   -2.56504721991583
C        -0.25629522840003    2.99358945918541   -1.81147851465882
C         0.37353654845066    3.45094920971108   -0.57802306715136
C         1.73997700591082    3.00391296494142   -0.58649079493707
C        -1.56784689497425    2.58255665542142   -1.82627594994978
C        -1.93403907018607    1.41716798370988   -2.56180039826372
C        -2.92664408290039    0.68990283505726   -1.80921608902121
C        -3.18385002204917    1.40065950795566   -0.60108934981081
C        -2.49410555791880    2.74883726005096   -0.64064386237165
C        -2.93135053263264   -0.70646076329460   -1.82791572220280
C        -1.94111678238707   -1.42028779863907   -2.58413839863188
C        -1.56275255794083   -2.58808566927333   -1.81671829324542
C        -2.33209084667752   -2.59856858668164   -0.60243750608402
C        -3.17254239928773   -1.43197095998878   -0.61071787619702
C        -0.98038928217821   -0.71733832173101   -3.30406923996405
C        -0.98487637844093    0.72519770707075   -3.30716926083049
C         0.37741565111867    1.16738376324322   -3.30791116648322
C         1.22322024051173   -0.00076971395687   -3.30346648472603
C         0.38221905845267   -1.15871373733195   -3.33214519091259
Cl       -1.92702413449508    0.00837556626711    5.24603678199661
Cl       -3.70010622808029    4.08144755348538   -0.94592328538267
Cl        1.17522140915182   -3.59309860043899   -3.98949226404331
63
 energy: -142.098447798191 gnorm: 0.013907869583 xtb: 6.4.1 (a3dbbd7)
C        -1.29528005425497    0.00782382776148    3.53908247651619
C        -0.36916745502663   -1.16842292039791    3.31220884253618
C         0.98492055385018   -0.71914345727635    3.29019375341411
C         0.99051622156770    0.72171594618654    3.29042504590699
C        -0.36131731407998    1.17832482708158    3.31091150911800
C         2.33966780642834   -2.57931530204079    0.59393344124473
C         3.18632369021872   -1.42133690419538    0.59437185056885
C         2.95205331796065   -0.69727096790407    1.81907747684405
C         1.95462147455072   -1.41581436381682    2.57220901022635
C         1.57866375242556   -2.57624096570552    1.81800474460540
C         3.18917829799679    1.41218304579643    0.58930521056092
C         2.34827913990990    2.58270637638130    0.59500318872587
C         1.59566716869707    2.57970317474152    1.81959658105365
C         1.96408364130129    1.41281993227885    2.57081701144952
C         2.95610390962386    0.68934101284608    1.81725326386850
C        -0.35442196394106    3.43419404213879    0.59749291073580
C        -1.73072655359101    2.99730099284700    0.61845992558830
C        -1.95285587633972    2.29964082944736    1.79072405350985
C        -0.71610478358562    2.27838742511265    2.57073683984734
C         0.27029987826323    2.99774361135640    1.81991265078854
C        -3.38816951119795    0.70820449518657    0.56914758645338
C        -3.38788409635459   -0.72704239738562    0.56908326202837
C        -2.77108806536141   -1.15754045383443    1.79841481956685
C        -2.41264145670724    0.01811844763782    2.55157357431955
C        -2.77185346766843    1.13779148265626    1.81878583507413
C        -1.73434340749922   -3.00831060945552    0.59337129725290
C        -0.36645276352466   -3.44008961261929    0.59368275513138
C         0.25219838301130   -2.99076218697084    1.81691558030519
C        -0.73149123218448   -2.26987200868808    2.57482447006604
C        -1.97459075610195   -2.28655579747636    1.81099258004894
C        -0.24949627719147   -3.01965808073309   -1.80992263253368
C         0.79712183088227   -2.43639208496242   -2.72521362167248
C         1.98374974390658   -2.29285253932772   -1.80662064935279
C         1.73761380424463   -2.99293664775341   -0.59261532780665
C         0.36286028867616   -3.43550839626486   -0.59182845148744
C         2.78250421895554   -1.16924758158427   -1.80633717801735
C         2.41029699579835    0.00015640813394   -2.57534546020453
C         2.78256436863860    1.15894289032879   -1.81651992779888
C         3.40324571976394    0.71591721056822   -0.59106340671042
C         3.40476782963501   -0.72574479398616   -0.58947662240919
C         1.96471723621747    2.28729137584723   -1.80798444995387
C         0.73533102031801    2.28682848062278   -2.56215168444171
C        -0.25764411348250    2.99984501374377   -1.80987109125274
C         0.37208617757415    3.45563621311578   -0.57569304403145
C         1.73859665664505    3.00631220383387   -0.58526870812813
C        -1.56953486193032    2.58835689629779   -1.82482639820984
C        -1.93391643528929    1.42140885277903   -2.55896054649599
C        -2.92647472553076    0.69447260067554   -1.80624391238182
C        -3.18347143337611    1.40350903285152   -0.59993650945863
C        -2.49533808982187    2.75309787745555   -0.63831801896260
C        -2.92583296613433   -0.70468435840741   -1.82665952525382
C        -1.94184483932765   -1.41852628259461   -2.58347866924035
C        -1.55610571891237   -2.58704833508049   -1.81384306933606
C        -2.32573342893478   -2.59344676138691   -0.59982101108777
C        -3.16869793036504   -1.42897156905100   -0.60782661481812
C        -0.97194947542595   -0.71683887307554   -3.29666489719778
C        -0.98400054352322    0.72851458982535   -3.30230939885721
C         0.37545113818447    1.16962002024273   -3.30268684541963
C         1.21653619936203   -0.00465500748003   -3.29600660117528
C         0.38017215726416   -1.15412068081362   -3.33119639268087
Cl       -1.93028408249170    0.01082098022924    5.24799421053343
Cl       -3.70278677752686    4.08434987070466   -0.94102181155023
Cl        1.19990275559367   -3.66696317862931   -4.06856189891143
63
 energy: -142.098765002930 gnorm: 0.008247296151 xtb: 6.4.1 (a3dbbd7)
C        -1.29588728686419    0.00912600197517    3.54097971499320
C        -0.36962472142945   -1.16751831984870    3.31465627925142
C         0.98455798338841   -0.71813571757346    3.29237247713713
C         0.98986283692896    0.72280118264500    3.29221182419524
C        -0.36188760148395    1.17960688236481    3.31264055204225
C         2.33714672423169   -2.57738622798224    0.59272689052980
C         3.18353622043230   -1.42045516163864    0.59456578762997
C         2.95145333272693   -0.69649402130924    1.82034726374751
C         1.95408482576151   -1.41487216121284    2.57372789128440
C         1.57781123283443   -2.57432576776868    1.81803449172193
C         3.18735287346588    1.41220466530844    0.58985458442455
C         2.34734389260112    2.58342603095950    0.59608021476804
C         1.59495182881995    2.58060139786109    1.82070109225996
C         1.96335415807950    1.41375542925926    2.57208490633974
C         2.95493585945414    0.69003653267555    1.81834358515469
C        -0.35484305483338    3.43589847657363    0.59847275233768
C        -1.73112323474763    2.99892352640357    0.61950979940722
C        -1.95326202062826    2.30108937384502    1.79186143371139
C        -0.71655742006181    2.27958368567311    2.57193049417294
C         0.26967936570788    2.99900837880998    1.82117912202307
C        -3.38833341254836    0.70945064696492    0.57062978682312
C        -3.38663229347215   -0.72592490791321    0.56977823516798
C        -2.77049380804951   -1.15622940322316    1.79971110511474
C        -2.41260126046672    0.01920924919628    2.55274781267497
C        -2.77207657713474    1.13911201646417    1.81947537987755
C        -1.73244861523061   -3.00605756311892    0.59374183187431
C        -0.36531714498670   -3.43697846186954    0.59255833442440
C         0.25195553482701   -2.98864609890509    1.81688988127780
C        -0.73162556434819   -2.26884155005954    2.57653066108560
C        -1.97448680887865   -2.28567634400783    1.81250407642588
C        -0.24780334444110   -3.02641321996784   -1.81708243254050
C         0.80288711375866   -2.45375965990906   -2.74044526872508
C         1.98679558240205   -2.29918635495655   -1.81378497161117
C         1.73711968663362   -2.99107382122450   -0.59595399546661
C         0.36238283501636   -3.43334926032498   -0.59519893744543
C         2.78234567175127   -1.17266152442785   -1.80943474896034
C         2.41204623337638    0.00031782355161   -2.57689098963668
C         2.78074850475626    1.15835600859115   -1.81652080062028
C         3.39971102081339    0.71541052914580   -0.59051485858514
C         3.39938492385792   -0.72619100002868   -0.59012594628649
C         1.96416736960081    2.28818499849004   -1.80691003296577
C         0.73483038900677    2.28671176305699   -2.56053612942035
C        -0.25795328720881    3.00150056028682   -1.80921501070320
C         0.37165520098625    3.45752673381105   -0.57483068207827
C         1.73812041722468    3.00712273009795   -0.58443293147624
C        -1.57006494666743    2.59001424494823   -1.82418000928179
C        -1.93288963762774    1.42168281643539   -2.55707033553127
C        -2.92618034793130    0.69557600531164   -1.80466338883198
C        -3.18341983023635    1.40444822122440   -0.59905058131672
C        -2.49605146873213    2.75480726116748   -0.63730141791836
C        -2.92378353447167   -0.70408014731851   -1.82642840965125
C        -1.94317053985263   -1.41940243279861   -2.58462266673187
C        -1.55367994930450   -2.58944935175338   -1.81674977928033
C        -2.32073240342904   -2.59041831066110   -0.60016518622434
C        -3.16558837296383   -1.42728191780531   -0.60696714238328
C        -0.96891370991232   -0.72024972405671   -3.29559753754210
C        -0.98268944194975    0.72681977440585   -3.29865205160760
C         0.37574030686136    1.16755362951645   -3.29916543122503
C         1.21642711135424   -0.00888677120456   -3.29500030327153
C         0.38110597590684   -1.15719515268226   -3.32743500474306
Cl       -1.93346278243578    0.01384986329114    5.24899123761969
Cl       -3.70463001355196    4.08579626512280   -0.93615149602197
Cl        1.20331434409632   -3.67660548206875   -4.08452964036366
63
 energy: -142.098865039168 gnorm: 0.004672242219 xtb: 6.4.1 (a3dbbd7)
C        -1.29620104544279    0.00956363173024    3.54181644749716
C        -0.36981306693807   -1.16736880306953    3.31603058570090
C         0.98455480491320   -0.71787600954198    3.29349982557976
C         0.98975179617345    0.72311098882933    3.29299734444169
C        -0.36200527126675    1.17989585573847    3.31325082656069
C         2.33542881480470   -2.57609847533263    0.59202572295286
C         3.18231924637982   -1.41992654841110    0.59459366949479
C         2.95136821474597   -0.69607551871016    1.82102340285752
C         1.95410286734738   -1.41445641865736    2.57450522643554
C         1.57729049623274   -2.57317382930566    1.81793396104315
C         3.18678956656623    1.41215512537890    0.59001906763950
C         2.34719438477788    2.58367083613403    0.59644821557181
C         1.59485069583813    2.58085601734383    1.82109554572141
C         1.96323968290926    1.41413330704474    2.57269557443866
C         2.95446242653401    0.69033038065073    1.81876278865538
C        -0.35482458745630    3.43618737935038    0.59849866961151
C        -1.73101551720448    2.99904446733778    0.61950093572969
C        -1.95332940638428    2.30136323494391    1.79205293751981
C        -0.71660452544082    2.27970432390426    2.57210122305439
C         0.26956698965208    2.99922925435522    1.82146796970979
C        -3.38866677001555    0.70981040944132    0.57119927754477
C        -3.38628371614360   -0.72561634167302    0.56994376210672
C        -2.77017128054005   -1.15563202759708    1.80019174356161
C        -2.41266245584639    0.01954822316116    2.55321415999425
C        -2.77230903380835    1.13952639934819    1.81956756843213
C        -1.73166868522864   -3.00493869107270    0.59383681117013
C        -0.36457758895886   -3.43491761590028    0.59193032525693
C         0.25179905633312   -2.98733174996361    1.81674247831307
C        -0.73186586193302   -2.26847900680415    2.57743036191991
C        -1.97462371438013   -2.28532634361585    1.81335393109375
C        -0.24682642433213   -3.02973238220414   -1.82136739933328
C         0.80533536055129   -2.46110061280774   -2.74647444006017
C         1.98824987857775   -2.30240468147964   -1.81810332049268
C         1.73669199615609   -2.98957328649345   -0.59748349993716
C         0.36192647099976   -3.43169737231816   -0.59676366910006
C         2.78245160219420   -1.17415252443659   -1.81107125323567
C         2.41384083603079    0.00093214061996   -2.57783466385970
C         2.78054581001054    1.15836363334594   -1.81674165727212
C         3.39792647356512    0.71506151055827   -0.59030725990859
C         3.39658386735300   -0.72653524734499   -0.59048716114877
C         1.96430819009285    2.28857653816857   -1.80651684833203
C         0.73476389448738    2.28636475639737   -2.55991986081317
C        -0.25796948726925    3.00179862094738   -1.80918140783351
C         0.37170883552513    3.45816336201573   -0.57480695984737
C         1.73824952513665    3.00738755263157   -0.58422421484703
C        -1.57032475816115    2.59042969503459   -1.82425250615133
C        -1.93239044526113    1.42144738929264   -2.55633136071628
C        -2.92643758452370    0.69579510906646   -1.80409332977899
C        -3.18367536411340    1.40450925481346   -0.59893822901979
C        -2.49651012058115    2.75523054819035   -0.63725472304504
C        -2.92357292878217   -0.70401259619449   -1.82662537824951
C        -1.94496016396089   -1.42002030703893   -2.58541914043324
C        -1.55271404659150   -2.59048564505047   -1.81825576289914
C        -2.31799753927867   -2.58888272711004   -0.60034952465643
C        -3.16402466897468   -1.42650749277197   -0.60664301961222
C        -0.96749541816417   -0.72272780762467   -3.29489900886531
C        -0.98183408925959    0.72545894807347   -3.29627296659390
C         0.37599526826358    1.16598002418227   -3.29689838821280
C         1.21691957290819   -0.01149578272373   -3.29433525561469
C         0.38167900978149   -1.15912806827001   -3.32316990567952
Cl       -1.93523413481441    0.01554984077000    5.24931824509682
Cl       -3.70534274995496    4.08636912188446   -0.93341784457941
Cl        1.20263173695149   -3.67410709934625   -4.08837726352665
63
 energy: -142.098904747374 gnorm: 0.002480852264 xtb: 6.4.1 (a3dbbd7)
C        -1.29623294085267    0.00955026720828    3.54183060360706
C        -0.36982600432347   -1.16751803200597    3.31632649329969
C         0.98464436683810   -0.71796839778334    3.29368567149275
C         0.98982558503161    0.72301404111121    3.29297044462283
C        -0.36192942815536    1.17977548058240    3.31314857883214
C         2.33485976314230   -2.57569734252068    0.59192303919864
C         3.18229587454858   -1.41982717049032    0.59466943596227
C         2.95157505053310   -0.69602682171030    1.82127883571449
C         1.95432000002744   -1.41443704130373    2.57470661205401
C         1.57716406178623   -2.57289133558977    1.81790195379623
C         3.18699668295224    1.41208894705942    0.58994751942902
C         2.34736981933982    2.58360671006585    0.59634113781274
C         1.59496843849901    2.58075257140232    1.82097699208753
C         1.96335665382031    1.41412324442722    2.57270015939367
C         2.95444611277522    0.69030798245429    1.81873841864577
C        -0.35469434174271    3.43581336159090    0.59813521461988
C        -1.73078303280342    2.99860944522992    0.61913717462898
C        -1.95325932927340    2.30111036437749    1.79179249664000
C        -0.71651939796424    2.27944798934174    2.57180012373649
C         0.26964664350725    2.99897010343046    1.82122915622733
C        -3.38888358346519    0.70969651640905    0.57117012364688
C        -3.38643781443047   -0.72576838725755    0.56981388767230
C        -2.77003092634535   -1.15558744505007    1.80014997880821
C        -2.41266129490386    0.01943433639505    2.55312324184285
C        -2.77241691880022    1.13943011801226    1.81930330845300
C        -1.73168955868568   -3.00487020150797    0.59390876848519
C        -0.36434622724194   -3.43427459004766    0.59187135639429
C         0.25175348120540   -2.98698671875033    1.81667353465949
C        -0.73204026468279   -2.26852484097986    2.57763213837167
C        -1.97483157678914   -2.28544113221752    1.81368819819482
C        -0.24657276206232   -3.03007256574963   -1.82237253680424
C         0.80597856683448   -2.46308196399216   -2.74821232458483
C         1.98833195598602   -2.30282052630513   -1.81912406270708
C         1.73639545593164   -2.98862129689070   -0.59760443985307
C         0.36159422303591   -3.43070084716140   -0.59691505619571
C         2.78239717510704   -1.17431996337880   -1.81116280517533
C         2.41483669445573    0.00144407295957   -2.57806285409199
C         2.78109245876128    1.15849993651862   -1.81698516950817
C         3.39769734353569    0.71489585295229   -0.59031493717558
C         3.39595523266813   -0.72675532617951   -0.59051136422532
C         1.96467271952339    2.28864333546998   -1.80657298702120
C         0.73489494492816    2.28614504763851   -2.55997975706150
C        -0.25787841087880    3.00144961237487   -1.80938132131568
C         0.37187519128961    3.45807617468956   -0.57511064148021
C         1.73852628237002    3.00731727225765   -0.58440827900196
C        -1.57036891877396    2.59019301243084   -1.82454455520715
C        -1.93232926728859    1.42116594097954   -2.55640080582488
C        -2.92680777185046    0.69560894683084   -1.80415246364313
C        -3.18385170840065    1.40421999565223   -0.59923383008310
C        -2.49664044279889    2.75505509722868   -0.63757132583813
C        -2.92413654340287   -0.70427774838543   -1.82694018666087
C        -1.94612522705455   -1.42025984460427   -2.58563059325403
C        -1.55253966216336   -2.59048418251681   -1.81829903252013
C        -2.31726469829833   -2.58863724947446   -0.60031328529744
C        -3.16379105984589   -1.42649288335752   -0.60664159791306
C        -0.96703547509387   -0.72368744111580   -3.29422161011009
C        -0.98151103773995    0.72494690128619   -3.29546200745031
C         0.37603714910882    1.16536279498411   -3.29611275995448
C         1.21715683977695   -0.01241989454195   -3.29367053704025
C         0.38176315506931   -1.15956315595966   -3.31997696062927
Cl       -1.93564534462754    0.01610033735425    5.24918981495269
Cl       -3.70526486844409    4.08629401311983   -0.93277527343637
Cl        1.20051283757745   -3.66736860918253   -4.08686767116781
63
 energy: -142.098916815629 gnorm: 0.001366529932 xtb: 6.4.1 (a3dbbd7)
C        -1.29615122604596    0.00943073787165    3.54155423575371
C        -0.36977655868764   -1.16763475188324    3.31606693904028
C         0.98468120839765   -0.71808548212883    3.29343289087350
C         0.98988120649215    0.72286927117615    3.29267855373377
C        -0.36185860713067    1.17963856094252    3.31286581598514
C         2.33510478437353   -2.57592342557282    0.59212755954119
C         3.18269511039120   -1.41996976599384    0.59475353894722
C         2.95174159409024   -0.69616279275923    1.82125776699157
C         1.95443711750339   -1.41455940006155    2.57460461119061
C         1.57726656932999   -2.57311830223677    1.81795632431932
C         3.18731948912424    1.41204390861802    0.58983888241869
C         2.34753023360889    2.58348339724999    0.59612868646147
C         1.59505802044528    2.58060554296596    1.82073126920671
C         1.96344811006832    1.41399170429242    2.57247021462661
C         2.95458845085811    0.69017775301504    1.81859197606888
C        -0.35463474894671    3.43549129973534    0.59785850870853
C        -1.73068691910911    2.99833272243947    0.61888861319426
C        -1.95321350465770    2.30089156201377    1.79154414168429
C        -0.71647439286183    2.27929386578040    2.57153856793660
C         0.26971435146837    2.99875733761979    1.82095377259362
C        -3.38891963177419    0.70951018678843    0.57096992042505
C        -3.38663546648267   -0.72597878265762    0.56968558959154
C        -2.77001737155913   -1.15576978898112    1.79998974549843
C        -2.41262423976724    0.01924927487231    2.55289054366866
C        -2.77242411746658    1.13924795177491    1.81907900466901
C        -1.73195848837260   -3.00524861018298    0.59398177436538
C        -0.36444541088420   -3.43461404404325    0.59208850937474
C         0.25178583846016   -2.98723317017565    1.81672312621702
C        -0.73206181381031   -2.26867160205324    2.57749843899833
C        -1.97490791366759   -2.28567379172903    1.81367597585636
C        -0.24673836674788   -3.02929780883423   -1.82154960575547
C         0.80582921991190   -2.46270632896361   -2.74818603890724
C         1.98795685255709   -2.30209943540561   -1.81830014571634
C         1.73637177621634   -2.98854606258901   -0.59717522926455
C         0.36152626387455   -3.43065203548333   -0.59649517789742
C         2.78235888856477   -1.17405362623815   -1.81065225064873
C         2.41493282981154    0.00151835794592   -2.57789708312881
C         2.78157528322349    1.15852394739109   -1.81709590146539
C         3.39820787757873    0.71488050047070   -0.59038972995917
C         3.39646419132887   -0.72683160353140   -0.59038788812350
C         1.96490041766845    2.28854626880410   -1.80676372492926
C         0.73504390272448    2.28611149462250   -2.56024427773573
C        -0.25779473209434    3.00113143321799   -1.80955522076077
C         0.37196071256228    3.45781541576323   -0.57534197485260
C         1.73866613183436    3.00716412637580   -0.58463927466773
C        -1.57029154359049    2.58991179246795   -1.82473801292909
C        -1.93245275016337    1.42104077709801   -2.55670355084918
C        -2.92696173286964    0.69539825264425   -1.80437681751998
C        -3.18385244595746    1.40399998274048   -0.59949546438752
C        -2.49656797309012    2.75483304162564   -0.63782650602406
C        -2.92457101609580   -0.70455521955419   -1.82708905452909
C        -1.94630017265337   -1.42028298250226   -2.58549209361254
C        -1.55271594466185   -2.59026521432590   -1.81779551894974
C        -2.31766666274293   -2.58903189605214   -0.60019573302316
C        -3.16419165252801   -1.42679805780767   -0.60672715897705
C        -0.96713857478596   -0.72348825696053   -3.29384886748826
C        -0.98157339029592    0.72508345244364   -3.29577516527330
C         0.37597568734316    1.16548783517836   -3.29640127402028
C         1.21709839982206   -0.01218501201695   -3.29330199014660
C         0.38158997463568   -1.15912055641449   -3.31886150447990
Cl       -1.93533290786465    0.01596111237166    5.24898361480591
Cl       -3.70498133619666    4.08596931878369   -0.93339782291142