63
 energy: -142.088789754431 gnorm: 0.139512520775 xtb: 6.4.1 (a3dbbd7)
C        -1.30524132879597    0.00000000000538    3.57807329023422
C        -0.38198622120159   -1.16615737488772    3.28622995044209
C         0.97316446785684   -0.71953336628746    3.26852105894251
C         0.97316446785530    0.71953336630216    3.26852105894473
C        -0.38198622120459    1.16615737490379    3.28622995045274
C         2.33525790565848   -2.58178581715533    0.58265918378867
C         3.18402429064640   -1.41551052449968    0.58305164633927
C         2.94575551469093   -0.69331830539435    1.80727245276214
C         1.94633616722705   -1.41428833030776    2.55691587181014
C         1.57537284635923   -2.57710002453835    1.80571263196464
C         3.18402429064568    1.41551052450295    0.58305164633618
C         2.33525790565840    2.58178581715875    0.58265918378237
C         1.57537284635929    2.57710002454614    1.80571263195897
C         1.94633616722623    1.41428833031814    2.55691587180842
C         2.94575551468950    0.69331830540176    1.80727245276124
C        -0.36286725388684    3.43716117593932    0.57905462418204
C        -1.73307079475598    2.99275061625332    0.57524951534827
C        -1.97752320629156    2.27496221823572    1.79457083857807
C        -0.73661625909686    2.27496497778529    2.56523814188962
C         0.24797249911112    2.99276091828423    1.80557303834060
C        -3.36590164017822    0.71953732333088    0.57375248902312
C        -3.36590164017888   -0.71953732332215    0.57375248902510
C        -2.78105190250946   -1.16617827543313    1.79633080427055
C        -2.63331800734743    0.00000000000824    2.75326019131418
C        -2.78105190250706    1.16617827544612    1.79633080426590
C        -1.73307079475815   -2.99275061624643    0.57524951535621
C        -0.36286725388906   -3.43716117593443    0.57905462419038
C         0.24797249911082   -2.99276091827599    1.80557303834608
C        -0.73661625909661   -2.27496497777287    2.56523814188986
C        -1.97752320629363   -2.27496221822376    1.79457083858313
C        -0.24045690066217   -3.00743782548085   -1.83034246730529
C         0.75231661586805   -2.28840993805800   -2.58424128273324
C         1.97824017738855   -2.28845527885670   -1.82288383798471
C         1.74258918722144   -3.00745695556584   -0.59875134393160
C         0.36899288245124   -3.44813425118672   -0.59934302533638
C         2.79566620008723   -1.16591822783908   -1.82325695863853
C         2.41697359109874   -0.00000000000271   -2.58108531976838
C         2.79566620008779    1.16591822783556   -1.82325695864148
C         3.40959680691412    0.72110795434846   -0.59778286565664
C         3.40959680691433   -0.72110795434857   -0.59778286565546
C         1.97824017738961    2.28845527885345   -1.82288383799084
C         0.75231661586926    2.28840993805322   -2.58424128273948
C        -0.24045690066036    3.00743782547884   -1.83034246731341
C         0.36899288245285    3.44813425118749   -0.59934302534530
C         1.74258918722258    3.00745695556589   -0.59875134393955
C        -1.56217286029713    2.58178679356912   -1.83784975797872
C        -1.93879975252934    1.41553008402889   -2.59849355392507
C        -2.93052386427469    0.69331652856981   -1.84222173469045
C        -3.15943698990261    1.41427069975303   -0.61403881020582
C        -2.32163160591617    2.57707956787764   -0.61452432163280
C        -2.93052386427455   -0.69331652856949   -1.84222173468868
C        -1.93879975252999   -1.41553008403179   -2.59849355392122
C        -1.56217286029877   -2.58178679357009   -1.83784975797151
C        -2.32163160591823   -2.57707956787401   -0.61452432162573
C        -3.15943698990344   -1.41427069974849   -0.61403881020168
C        -0.98033776527170   -0.72109715720207   -3.32415755726590
C        -0.98033776527144    0.72109715719620   -3.32415755726739
C         0.39032106020777    1.16579648770428   -3.31706046827290
C         1.23757908177170   -0.00000000000348   -3.31355725238661
C         0.39032106020722   -1.16579648771087   -3.31706046826971
Cl       -1.60949318930206   -0.00000000015797    5.36443419001363
Cl       -4.09957109178614    0.00000000004209    3.81802953081684
Cl        2.93999876326499   -2.13824166307690    3.88530821491048
63
 energy: -142.112620329204 gnorm: 0.059793646472 xtb: 6.4.1 (a3dbbd7)
C        -1.31271982915310    0.00842186644187    3.57885065657023
C        -0.38726227452512   -1.15254447219514    3.27733438078023
C         0.95501511098036   -0.70751801345502    3.28000205169706
C         0.96338463599376    0.72390177048123    3.26652162313363
C        -0.39126431761598    1.17633369205947    3.28979276461929
C         2.32565834069085   -2.57674299171314    0.57510460550181
C         3.17525877077248   -1.40887189646354    0.57604472940948
C         2.94533005945377   -0.68584196611648    1.79149178003516
C         2.00459058800640   -1.45677956454189    2.63240938946351
C         1.56841323135912   -2.58134202540756    1.78855789288495
C         3.18545963383725    1.41829118737957    0.57717686873307
C         2.33419214778293    2.58116496025574    0.58048270579909
C         1.57350582855885    2.57642347044207    1.80525944013494
C         1.94292558399945    1.41852219956553    2.55711578104956
C         2.93722437965611    0.69430227381703    1.79514597225070
C        -0.36401507358813    3.43837676252433    0.57949028083211
C        -1.73456426592156    2.99436761627929    0.57489063285080
C        -1.98181992957277    2.27877515563828    1.79444662445005
C        -0.74243394164072    2.28220082234882    2.56683672317175
C         0.24481543831880    2.99652348557809    1.80524895019747
C        -3.36724740118160    0.72080741231671    0.57354350554265
C        -3.36623156125003   -0.71859404413591    0.57471207191987
C        -2.78234974569504   -1.16309239217042    1.79602253861392
C        -2.63809378943702    0.00349544957552    2.75283731259077
C        -2.78457481677324    1.16941840187833    1.79627940268435
C        -1.73183317398835   -2.99314344762449    0.57208400598464
C        -0.36479589985221   -3.44228276841907    0.57141086302937
C         0.24522013659384   -2.98800949133166    1.79114776245307
C        -0.74134031590314   -2.27445480375000    2.56198769359609
C        -1.97466667933537   -2.27356855583767    1.79359276048960
C        -0.24082076922686   -3.00848906788728   -1.83614128094722
C         0.75174667590460   -2.28915113865161   -2.59040227781794
C         1.97752089052289   -2.28897288128998   -1.82965083370149
C         1.73923609106660   -3.01154881609101   -0.60866446515997
C         0.36906850438924   -3.45317104826875   -0.60816205885129
C         2.79515043679496   -1.16549026409576   -1.82934276103639
C         2.41687204259315    0.00030703496802   -2.58631221080557
C         2.79568177797322    1.16620207336472   -1.82809939881237
C         3.41261368487207    0.72248653894910   -0.60497675109517
C         3.41049401659843   -0.71710903837939   -0.60573914833233
C         1.97742849197227    2.28817220392700   -1.82537887719190
C         0.75222997514242    2.28847639543006   -2.58557774019252
C        -0.24064223955446    3.00713964991997   -1.82998078893992
C         0.36867080751878    3.44907485146538   -0.60043723725336
C         1.74140514245763    3.00702527610182   -0.60027353901504
C        -1.56235830450736    2.58131256947315   -1.83773260589206
C        -1.93915523359881    1.41539680233127   -2.59820621094529
C        -2.93025651153274    0.69347114169397   -1.84207781584812
C        -3.16005542646067    1.41497206914058   -0.61402534223862
C        -2.32241969021515    2.57757704720807   -0.61467261565249
C        -2.93034245582145   -0.69337774996488   -1.84159010937408
C        -1.93904880820593   -1.41566236595201   -2.59965978577887
C        -1.56211756416312   -2.58161083069296   -1.84048167915737
C        -2.32102531270814   -2.57651363032113   -0.61609226903979
C        -3.15988144524457   -1.41429665671656   -0.61455024555818
C        -0.98095998389853   -0.72074151401514   -3.32627908811478
C        -0.98064086130922    0.72101004095559   -3.32538328859499
C         0.38945816353565    1.16572566592967   -3.31907294912644
C         1.23652385268488    0.00049710843958   -3.31718378328596
C         0.38928698488732   -1.16552297551905   -3.32086300216436
Cl       -1.61156918192444    0.00038236496157    5.36527113061386
Cl       -4.10312322986618    0.00072665225456    3.81822214975351
Cl        3.01863563747495   -2.19507926516536    3.99252647847518
63
 energy: -142.118619749725 gnorm: 0.013665276777 xtb: 6.4.1 (a3dbbd7)
C        -1.31262768566207    0.00888672653173    3.57017783033207
C        -0.37954568827475   -1.14874489547474    3.27166364353743
C         0.95063908464892   -0.70593968253251    3.28152111247881
C         0.95865712777310    0.71825376540239    3.25404881634859
C        -0.39517554957880    1.17859113386875    3.28415055862854
C         2.31450792163037   -2.56950924359866    0.57790982913250
C         3.16320870581562   -1.40153599377661    0.57857752573983
C         2.94731971580547   -0.68649638445820    1.79270681439787
C         2.05927639573634   -1.49729715189892    2.70212702320097
C         1.57021562966116   -2.58630439031306    1.78920823990494
C         3.17844337218470    1.41401259446194    0.57478443394140
C         2.33092366687211    2.57888490175021    0.57770185804232
C         1.57063544491816    2.57347818803258    1.80351914787360
C         1.94120631306909    1.41957588163096    2.55512551403075
C         2.93474780990470    0.68821747595389    1.79224978417850
C        -0.36601776429552    3.43988440316690    0.57830529739922
C        -1.73750282236144    2.99762018751015    0.57303207555696
C        -1.98687164369067    2.28390931246967    1.79315750878790
C        -0.74633749037605    2.28570254776828    2.56445866228968
C         0.24163267004806    2.99990401114200    1.80305828301442
C        -3.36953375690325    0.72362281845997    0.57185630937380
C        -3.36569407544594   -0.71632556425057    0.57460629608137
C        -2.78252605822888   -1.15924616358266    1.79470654750311
C        -2.64070703324534    0.00727053110938    2.75053564465285
C        -2.78894227102933    1.17390287795574    1.79485019852541
C        -1.72922647194729   -2.98962143276554    0.56973957170041
C        -0.36252694995169   -3.43624264620476    0.56875501188064
C         0.25043950276794   -2.98525215637467    1.78860794632312
C        -0.74256958749949   -2.27893767176797    2.56422544340117
C        -1.96807359285278   -2.26916480313971    1.79359175039387
C        -0.24213525562584   -3.00873357856710   -1.84165873828587
C         0.75007511685635   -2.28820393840333   -2.59601405686822
C         1.97490722032341   -2.28757197163100   -1.83352111130825
C         1.73503931471219   -3.00930975321803   -0.61164779626142
C         0.36909052367134   -3.45077503100133   -0.61320671635101
C         2.79213836082253   -1.16413927519192   -1.83317767310781
C         2.41483327247515    0.00123747463110   -2.59117169207592
C         2.79463743269383    1.16707047307807   -1.83272743459511
C         3.40867311825910    0.72122970642746   -0.60893989021948
C         3.40528444731453   -0.71459210432252   -0.60802168661212
C         1.97561579208574    2.28872722832713   -1.82870689807831
C         0.75063677872370    2.28922194806989   -2.58758112193759
C        -0.24249460174397    3.00814214793918   -1.83104165171593
C         0.36688907753446    3.45048229780280   -0.60290071245247
C         1.73911011842160    3.00691758929534   -0.60244867147101
C        -1.56430314515640    2.58268588989337   -1.83938980657084
C        -1.94105599521199    1.41695141628891   -2.59956649368958
C        -2.93168848739035    0.69547912098416   -1.84372025243160
C        -3.16214271029519    1.41733551595186   -0.61561436750395
C        -2.32477609277747    2.57995458994687   -0.61648256573793
C        -2.93103402057448   -0.69155108675955   -1.84185320315356
C        -1.93999002089202   -1.41409844111713   -2.60123444141708
C        -1.56295186333979   -2.58032601110154   -1.84373264506801
C        -2.32021507058921   -2.57406658004093   -0.61739473691998
C        -3.16014499347503   -1.41227396090443   -0.61601866112629
C        -0.98288247935369   -0.71878092932678   -3.32927563527330
C        -0.98277773751393    0.72270410880481   -3.32840802622379
C         0.38705919729677    1.16692412440682   -3.32237670323951
C         1.23411830413288    0.00210663178630   -3.32216601155375
C         0.38695989102994   -1.16406881709609   -3.32585373412249
Cl       -1.60982092741880   -0.00363403826175    5.35523339865503
Cl       -4.10558225667416    0.00036018234409    3.81587204456190
Cl        3.07433980090839   -2.23474576918759    4.08062038289111
63
 energy: -142.118922514568 gnorm: 0.008446831729 xtb: 6.4.1 (a3dbbd7)
C        -1.31050795503017    0.00847205282444    3.56655090628542
C        -0.37560116278813   -1.15028551429102    3.27061032299666
C         0.95270929491750   -0.70771743778589    3.27833159644134
C         0.96081962934513    0.71598304820706    3.25337842056751
C        -0.39371903404353    1.17749458102479    3.28047167922316
C         2.31208920346225   -2.56819030378302    0.58122631090246
C         3.16055641293792   -1.40017048386711    0.58188180964514
C         2.95204357843374   -0.68964545582474    1.79971080602219
C         2.07233121670899   -1.50695284754830    2.71658290043980
C         1.57452512201120   -2.59097268351044    1.79611692094115
C         3.17350401723410    1.41060189345071    0.57551759714487
C         2.32808951075393    2.57679052175128    0.57722292878512
C         1.56928044375453    2.57248863513375    1.80369862254501
C         1.94242961093512    1.42120320337401    2.55759641712223
C         2.93579271899331    0.68562039538900    1.79554144571802
C        -0.36693476267343    3.44057174368619    0.57738933562027
C        -1.73883406898205    2.99916716690040    0.57192039255196
C        -1.98809431800153    2.28560423698384    1.79232751001703
C        -0.74660553103822    2.28588861725617    2.56302632681671
C         0.24062973467418    3.00095899822465    1.80215288053748
C        -3.37028127268592    0.72473834497626    0.57058863168642
C        -3.36502952420792   -0.71539073195973    0.57343186128499
C        -2.78245405005039   -1.15818072064923    1.79323466243752
C        -2.63946372547103    0.00793729422894    2.74866796822761
C        -2.78967286916467    1.17517102798062    1.79360154032733
C        -1.72757523073050   -2.98661305986981    0.56874096186124
C        -0.36068630466617   -3.43202532349898    0.56912905033037
C         0.25317696193052   -2.98705309581085    1.79189494367605
C        -0.74378474770242   -2.28224556354837    2.56598409191154
C        -1.96635589797916   -2.26733239662114    1.79337798059479
C        -0.24285255553984   -3.00845445029445   -1.84338377191867
C         0.74917852283030   -2.28772823286952   -2.59783547893268
C         1.97310339104389   -2.28621651690004   -1.83357555901860
C         1.73367381837123   -3.00652596721556   -0.61061293927463
C         0.36893686146970   -3.44829189093815   -0.61371070091109
C         2.78971908277443   -1.16318045692278   -1.83309357836343
C         2.41347302892151    0.00166697458986   -2.59260772959339
C         2.79326958068354    1.16735067321562   -1.83399380792160
C         3.40506155803366    0.72027944197959   -0.60896114226757
C         3.40135477044009   -0.71449607037286   -0.60663199147883
C         1.97400877604893    2.28872875734928   -1.82995231332997
C         0.74945523528150    2.28960330269850   -2.58910194224423
C        -0.24368803586239    3.00867315873078   -1.83223054170863
C         0.36563302934113    3.45099019248666   -0.60420841466480
C         1.73738963885992    3.00617635235804   -0.60306592272543
C        -1.56556570751612    2.58352928621799   -1.84085959374282
C        -1.94205090466971    1.41765571705020   -2.60094767165687
C        -2.93266776531461    0.69646384895308   -1.84522888921914
C        -3.16326318443879    1.41843827807755   -0.61694979745852
C        -2.32600529840354    2.58121458205096   -0.61778137417738
C        -2.93159561009709   -0.69066678872753   -1.84312078609149
C        -1.94077485092436   -1.41349470550438   -2.60301997486762
C        -1.56336724720812   -2.57942095875746   -1.84540428249682
C        -2.31951620267698   -2.57242649406844   -0.61825008884515
C        -3.16015119428007   -1.41114549885374   -0.61751789556640
C        -0.98397498947795   -0.71823353538428   -3.33163120119645
C        -0.98394013546624    0.72336324827021   -3.33032520674417
C         0.38591738025224    1.16749776910695   -3.32453189995848
C         1.23310378075072    0.00268562308532   -3.32458751898940
C         0.38592848446586   -1.16375108307983   -3.32834437348681
Cl       -1.60446916789489   -0.00986974725855    5.35181541066343
Cl       -4.10262833825043    0.00213886393911    3.81638180017011
Cl        3.07831427629734   -2.23671147891249    4.09819372474412
63
 energy: -142.119036646849 gnorm: 0.004681159856 xtb: 6.4.1 (a3dbbd7)
C        -1.30896262590888    0.00836056963814    3.56378726544591
C        -0.37296898011387   -1.15152653822385    3.26873394957529
C         0.95410263387698   -0.70896128539477    3.27368259729880
C         0.96252764239918    0.71470286483418    3.25263783757549
C        -0.39254265947558    1.17676561678044    3.27810923163157
C         2.31022201096587   -2.56719122165300    0.58291644270769
C         3.15858374094667   -1.39911615310720    0.58349048565678
C         2.95463415984561   -0.69158322306906    1.80417526795398
C         2.07878050156726   -1.51168295470184    2.72297311179596
C         1.57711563779417   -2.59385331867831    1.80072326494194
C         3.17066771582711    1.40838677221255    0.57596513497775
C         2.32646612703547    2.57540555715728    0.57711120723896
C         1.56890313497403    2.57256265940241    1.80411142564261
C         1.94355087976002    1.42306883432693    2.55926910760766
C         2.93633445033506    0.68431204342693    1.79739510694244
C        -0.36714642712181    3.44094640329166    0.57713748300735
C        -1.73926869539815    2.99985986065540    0.57170486118426
C        -1.98842967896851    2.28621108205291    1.79220293418587
C        -0.74648700432278    2.28610288909395    2.56273122703753
C         0.24038941496405    3.00167686784180    1.80191144250533
C        -3.37040992267739    0.72498790146205    0.57021915031860
C        -3.36444146213550   -0.71524847917380    0.57301777383349
C        -2.78264011356262   -1.15813489676457    1.79265504449172
C        -2.63876106766967    0.00774427264659    2.74792410999745
C        -2.78949826208402    1.17534409774869    1.79308136754248
C        -1.72641201534980   -2.98491714556852    0.56823769234537
C        -0.35939959956724   -3.42979566426266    0.56942089277205
C         0.25454316270714   -2.98868012257042    1.79404237388881
C        -0.74528291861719   -2.28523353283101    2.56704444761168
C        -1.96569180740657   -2.26680167462363    1.79352512405237
C        -0.24332924852106   -3.00848848050082   -1.84436143955328
C         0.74866273086649   -2.28771647837945   -2.59885589130449
C         1.97200776093049   -2.28532482723053   -1.83354315603229
C         1.73277104309436   -3.00445383254971   -0.61000943607117
C         0.36873262750444   -3.44710171556423   -0.61392755277568
C         2.78824174327067   -1.16257166220647   -1.83300395778331
C         2.41302619268005    0.00203763976358   -2.59341273808978
C         2.79271549484382    1.16764688917505   -1.83472487286090
C         3.40319793038247    0.71987481190168   -0.60891994748464
C         3.39861490509599   -0.71449699414032   -0.60582140104730
C         1.97322421058681    2.28871225136168   -1.83042369418208
C         0.74902829682309    2.28986559371896   -2.58979760611342
C        -0.24408980373823    3.00895363274096   -1.83265030980114
C         0.36518741012100    3.45125828537075   -0.60466942652896
C         1.73671571364816    3.00582467419422   -0.60318315350170
C        -1.56596620933512    2.58384122513414   -1.84130170291050
C        -1.94225084761561    1.41781668666841   -2.60130613368623
C        -2.93296354308095    0.69679062934016   -1.84576025312047
C        -3.16359088381382    1.41877926514914   -0.61731760063980
C        -2.32637216214297    2.58168228630149   -0.61809089912067
C        -2.93179975638035   -0.69041294387835   -1.84361502604638
C        -1.94117607497999   -1.41335560845095   -2.60394119867189
C        -1.56355447319350   -2.57898643711970   -1.84617779035092
C        -2.31904351503760   -2.57181286450106   -0.61853010459159
C        -3.16006502365321   -1.41077920894417   -0.61816684161395
C        -0.98441074669880   -0.71811290146306   -3.33278146856203
C        -0.98431336631309    0.72358962488714   -3.33107788308520
C         0.38557424396641    1.16776096777295   -3.32553657930650
C         1.23284794357100    0.00295089983414   -3.32592236677912
C         0.38555339482751   -1.16376166063220   -3.32970721335284
Cl       -1.60115379969635   -0.01419188431838    5.34916557719192
Cl       -4.10057573277207    0.00436450508601    3.81777869148248
Cl        3.07346260086297   -2.23213611354723    4.10448738391456
63
 energy: -142.119077852027 gnorm: 0.002481081455 xtb: 6.4.1 (a3dbbd7)
C        -1.30845207256525    0.00823645137485    3.56314910857303
C        -0.37210436246324   -1.15183023490032    3.26710471612126
C         0.95413301946972   -0.70919613636955    3.27029089157502
C         0.96284665083853    0.71439757630836    3.25178441120741
C        -0.39234212265467    1.17651191215535    3.27755609493142
C         2.30929212751357   -2.56673254254307    0.58301002273052
C         3.15764720812636   -1.39861392621147    0.58349532699975
C         2.95459464863149   -0.69187614202662    1.80489399590669
C         2.08022799616167   -1.51272301775070    2.72437178539785
C         1.57739020511474   -2.59433004318405    1.80161619019928
C         3.17019037104436    1.40781711530467    0.57603521622788
C         2.32629035962535    2.57514217706610    0.57722029471078
C         1.56916868606294    2.57308163687691    1.80443423837956
C         1.94391756704688    1.42401721241022    2.55962238141995
C         2.93620065495522    0.68411129561161    1.79742906907086
C        -0.36697619604531    3.44097108036095    0.57734058611688
C        -1.73912582105921    2.99980431334798    0.57195119351584
C        -1.98836449275736    2.28616848843931    1.79244783051969
C        -0.74639859697595    2.28627556988238    2.56309403170720
C         0.24053957632627    3.00194725219666    1.80210235460115
C        -3.37016589162390    0.72480622619088    0.57035409384091
C        -3.36415051481506   -0.71546585018760    0.57319124657018
C        -2.78288267757274   -1.15845550214356    1.79284238545242
C        -2.63856081749914    0.00748435245221    2.74806220752451
C        -2.78911193101138    1.17509296621317    1.79307511790534
C        -1.72611306554091   -2.98477077204240    0.56816401092782
C        -0.35903400688063   -3.42963404189051    0.56943386864739
C         0.25461983235057   -2.98923934301876    1.79432418210427
C        -0.74621861332049   -2.28676223198489    2.56737685930560
C        -1.96573941251581   -2.26712819112506    1.79380612901281
C        -0.24343006339651   -3.00869813020921   -1.84460998450437
C         0.74859214977795   -2.28790743834283   -2.59904037448580
C         1.97182307879621   -2.28516516910359   -1.83353380722632
C         1.73255395673530   -3.00393811175929   -0.61000364146475
C         0.36861369186534   -3.44718308373128   -0.61403948821564
C         2.78800004379843   -1.16246735603164   -1.83301452046923
C         2.41321115708238    0.00217593273013   -2.59355144030050
C         2.79287298004600    1.16777837038458   -1.83490402845405
C         3.40312470935133    0.71990404842825   -0.60893725030002
C         3.39792412330390   -0.71454528703801   -0.60575708319465
C         1.97322479272155    2.28866323721787   -1.83031993984130
C         0.74914789623186    2.28990275814844   -2.58971801124956
C        -0.24395627007953    3.00895786282490   -1.83247904245197
C         0.36531052229593    3.45126347402173   -0.60451043684216
C         1.73687979596850    3.00586566978611   -0.60302084740076
C        -1.56579790082914    2.58376071140837   -1.84107485170208
C        -1.94204410031476    1.41770356848474   -2.60107324163645
C        -2.93281192737043    0.69670738121885   -1.84563114532260
C        -3.16340250866259    1.41865991230648   -0.61714012346095
C        -2.32619491360783    2.58157160595288   -0.61784926402841
C        -2.93172489588127   -0.69051526922862   -1.84348993420047
C        -1.94116566813939   -1.41344203011087   -2.60397334504536
C        -1.56351490433729   -2.57898121375272   -1.84621740429662
C        -2.31892298906393   -2.57197921672760   -0.61844602620477
C        -3.15998111396307   -1.41088852962824   -0.61811635486243
C        -0.98432145262005   -0.71817431276214   -3.33276271593482
C        -0.98418524780544    0.72355709772032   -3.33096703312559
C         0.38571926330094    1.16773373456287   -3.32547686019009
C         1.23300787549489    0.00295715427941   -3.32606350628910
C         0.38563682490508   -1.16386593846102   -3.32984407487675
Cl       -1.59782149528595   -0.01617021216894    5.34903515596795
Cl       -4.10058088655533    0.00560172912204    3.81786353986514
Cl        3.06628219699239   -2.22619226343189    4.10391860992909
63
 energy: -142.119088721469 gnorm: 0.001410694568 xtb: 6.4.1 (a3dbbd7)
C        -1.30843648220088    0.00813665617393    3.56280894404728
C        -0.37222295842009   -1.15170540277472    3.26632743890421
C         0.95360641955136   -0.70889233398412    3.26893226008224
C         0.96254545772066    0.71465645776788    3.25130742895243
C        -0.39250159826561    1.17674893812704    3.27803611315361
C         2.30927982666004   -2.56678321204316    0.58251362851318
C         3.15765599496083   -1.39862800928848    0.58294979939200
C         2.95380358234710   -0.69149682153223    1.80387306443573
C         2.07978974533432   -1.51234017619937    2.72410627729965
C         1.57685915620221   -2.59387202960375    1.80070411168737
C         3.17080777614030    1.40808126572340    0.57589519028194
C         2.32681971471152    2.57543791741771    0.57728401562334
C         1.56964893562112    2.57345268245666    1.80451415964076
C         1.94393894065003    1.42407184788544    2.55933122515994
C         2.93605552111461    0.68431482010285    1.79680671610005
C        -0.36669318430924    3.44090168949551    0.57755816329651
C        -1.73880345494801    2.99959913412160    0.57219058234692
C        -1.98810013287523    2.28604298370603    1.79265914155495
C        -0.74622194572571    2.28648186797278    2.56343987768609
C         0.24086833569619    3.00198682371760    1.80228996136013
C        -3.36991554911582    0.72458728269920    0.57064499933750
C        -3.36413420661457   -0.71572598715767    0.57353665245754
C        -2.78302662968178   -1.15889337773679    1.79321007779299
C        -2.63817919266967    0.00734204920316    2.74809331714821
C        -2.78883030962586    1.17496523897623    1.79324953657898
C        -1.72624487318781   -2.98537135186064    0.56820935761991
C        -0.35910365046947   -3.43029746703406    0.56927508379751
C         0.25438964636178   -2.98924976883330    1.79376296194596
C        -0.74632863077962   -2.28714178955843    2.56728003398198
C        -1.96589127438572   -2.26771587727860    1.79392732307046
C        -0.24332322264854   -3.00883273842977   -1.84453036622197
C         0.74869982589163   -2.28800799805205   -2.59889404616859
C         1.97205892344668   -2.28535030032142   -1.83360561490698
C         1.73275785253080   -3.00431625617985   -0.61026957957901
C         0.36865173440728   -3.44765270317171   -0.61414684859760
C         2.78831914960942   -1.16259976679060   -1.83313059448133
C         2.41344610980437    0.00214594779619   -2.59345351926760
C         2.79317633699246    1.16774856165236   -1.83486707175831
C         3.40369785019735    0.72002190906438   -0.60903859624262
C         3.39838455449427   -0.71460389152259   -0.60604310410306
C         1.97349118738902    2.28861200900884   -1.83015244835071
C         0.74935613059772    2.28984204682015   -2.58944981048913
C        -0.24373166705832    3.00886883759135   -1.83221180803863
C         0.36559878043417    3.45120050626962   -0.60428150863316
C         1.73726962017007    3.00599854381714   -0.60291562799658
C        -1.56555669911229    2.58361509576318   -1.84073731130764
C        -1.94188594899622    1.41760270341796   -2.60075788879151
C        -2.93263055907731    0.69656810263684   -1.84530489277190
C        -3.16314893786588    1.41848125373909   -0.61682013251098
C        -2.32593213528517    2.58136276240847   -0.61753801315734
C        -2.93161178825800   -0.69064787654972   -1.84315966175028
C        -1.94104553384637   -1.41351272552926   -2.60366012696470
C        -1.56341096666287   -2.57910734426449   -1.84602049280219
C        -2.31897366625378   -2.57233116462670   -0.61831318721711
C        -3.15996507590807   -1.41111119039390   -0.61782726344906
C        -0.98416845092252   -0.71821059898230   -3.33236266702197
C        -0.98403887054729    0.72350148832921   -3.33064387270429
C         0.38587152454692    1.16764497324449   -3.32512631903609
C         1.23313096124941    0.00290040028421   -3.32575979607228
C         0.38575852841220   -1.16388953755221   -3.32951802656359
Cl       -1.60151614460984   -0.01667867684388    5.34801041110406
Cl       -4.09791501881570    0.00582098905875    3.82100557041503