63
 energy: -142.062950584767 gnorm: 0.137085924093 xtb: 6.4.1 (a3dbbd7)
C        -1.32333194775417    0.00617886347970    3.59125188963251
C        -0.38909456310608   -1.27772716531095    3.58793274117145
C         0.98734837171535   -0.72675165446744    3.28582848483634
C         0.97037352147027    0.69420630050098    3.25749094477592
C        -0.37633960723915    1.14742685553706    3.29074190055216
C         2.33092254703306   -2.58746567485154    0.56610397604514
C         3.16875994483946   -1.41579758165486    0.56774606192583
C         2.91978889080344   -0.69314490348597    1.79074016083681
C         1.93018806170321   -1.40549148670748    2.54814074589443
C         1.57476788296703   -2.59634073810083    1.79100274817011
C         3.18328087896891    1.41909085132624    0.57258499213333
C         2.33432229320876    2.58580968143883    0.57559918777772
C         1.57332139543398    2.57095369604789    1.79851755002390
C         1.94352282881158    1.40414426944103    2.54285112768194
C         2.93804115459266    0.69543633516321    1.79366637265872
C        -0.36752716666001    3.44413435035873    0.58029879258012
C        -1.74013210357057    3.00741588983283    0.58054459941955
C        -1.97818665379860    2.28654468588757    1.80361199533287
C        -0.73393250395930    2.25581684802015    2.55761528373596
C         0.24647420110131    2.98080949443068    1.80023381740862
C        -3.39591089216029    0.72883802558845    0.57533866561121
C        -3.37932885665645   -0.70504006359254    0.57786353554246
C        -2.74934612856665   -1.12865052488571    1.82052481704193
C        -2.40026274086307   -0.01382700939334    2.55826017594831
C        -2.77435746218519    1.16021035149421    1.80187148511327
C        -1.70577977915925   -3.00504292266898    0.57191390059864
C        -0.34657433486683   -3.46193150719564    0.56452064530943
C         0.25810980605866   -3.00738238851431    1.79111395103090
C        -0.74203335365356   -2.29289841924391    2.55243835495534
C        -1.91196172287597   -2.27950749485726    1.81757326885181
C        -0.23558165862281   -3.01371296632646   -1.83961821271520
C         0.75175047781152   -2.28700579367404   -2.59867644532734
C         1.98089777627659   -2.28868303835222   -1.84308617931945
C         1.74918768154887   -3.01946296828987   -0.62050040464920
C         0.38088379041600   -3.46658963937948   -0.62079308111870
C         2.79204993046375   -1.16413556659148   -1.83875967224219
C         2.41002754086118    0.00666527739579   -2.59106683151125
C         2.78807241943814    1.16926264052202   -1.83130610074559
C         3.40298548527550    0.72369088805355   -0.60835037131266
C         3.40110069057525   -0.71955382898331   -0.60923004493565
C         1.96912615256614    2.29475463280888   -1.82840259178522
C         0.74474441569639    2.29528025280401   -2.58515694980539
C        -0.24988429155059    3.01642431380723   -1.82795956514323
C         0.36353023978106    3.45499162487799   -0.59844520421847
C         1.73735095077191    3.01278425815446   -0.60243935985793
C        -1.56944867307335    2.59059487249377   -1.83048045584010
C        -1.94787757007795    1.42311330884846   -2.58910001301826
C        -2.94122296022124    0.70465889669871   -1.83002690890673
C        -3.17947337159538    1.42642572884929   -0.60816005298080
C        -2.33307692209202    2.59081264516620   -0.60600270171083
C        -2.93172079240255   -0.68656028280689   -1.82266620418654
C        -1.94059925011627   -1.40887980593779   -2.58138532694875
C        -1.55636984787224   -2.57670213587000   -1.82754179967090
C        -2.29848528094837   -2.57416283302738   -0.59738768824741
C        -3.15456863482430   -1.39758782868201   -0.59434922362650
C        -0.98936986995949   -0.71482485845558   -3.31408037280858
C        -0.99159024528376    0.72723605185279   -3.31429029098428
C         0.38014149579772    1.17201579903766   -3.31523274930469
C         1.22728121177112    0.00778684511203   -3.31823795360647
C         0.38205649969615   -1.16057927312445   -3.31917058806611
Cl       -2.09995733548554    0.29360223981566    5.20530702406437
Cl       -0.35034641589922   -2.11046483688082    5.19906768498811
Cl       -1.48476085409382    1.08414932182782   -5.01884174762079
63
 energy: -142.087096447139 gnorm: 0.058747370051 xtb: 6.4.1 (a3dbbd7)
C        -1.32305458584276    0.00614347006276    3.59380849502500
C        -0.38888772645177   -1.27770563859071    3.58893773119670
C         0.98753330443574   -0.72668605497934    3.28666747242949
C         0.97068002258501    0.69365167558131    3.25828260629682
C        -0.37618706186423    1.14731555921456    3.29285130017641
C         2.33239403876643   -2.58873301777371    0.56827781450124
C         3.17042070730630   -1.41695056432017    0.56997211606595
C         2.92062615970487   -0.69403735123634    1.79208063341622
C         1.93080963486022   -1.40582432256313    2.54903319541899
C         1.57544866900563   -2.59667010518170    1.79233795042453
C         3.18440484275832    1.41803884154342    0.57388699935990
C         2.33449733885070    2.58450970834766    0.57659324106338
C         1.57355218894878    2.57073332559074    1.79968783097316
C         1.94340510291041    1.40385264746427    2.54307708134397
C         2.93857648538339    0.69502729542792    1.79432570618410
C        -0.36932134910450    3.44545075174709    0.58511773518965
C        -1.74293742783397    3.01148823330643    0.58933908875000
C        -1.97927792935458    2.28823989146117    1.81042204472728
C        -0.73367496672333    2.25615466785981    2.56131909143323
C         0.24589086293494    2.98109539920959    1.80218864517580
C        -3.39895451921475    0.72996553538598    0.58346555672260
C        -3.38147982560610   -0.70424766576740    0.58247164774324
C        -2.74981893896696   -1.12799053568731    1.82170458457764
C        -2.40016448799356   -0.01344176462436    2.56196256639842
C        -2.77489027294302    1.16123913762068    1.80836998517640
C        -1.70475455178202   -3.00445796916441    0.57263279061005
C        -0.34539812023645   -3.46250083472572    0.56589335875338
C         0.25842049700831   -3.00734348333035    1.79184687025502
C        -0.74227692162251   -2.29211159334257    2.55291274577233
C        -1.91168211138777   -2.27878835434899    1.81828355408993
C        -0.23174837491393   -3.02017306840227   -1.83797554833409
C         0.75548699114694   -2.29426549055446   -2.59432531356481
C         1.98467347535018   -2.29194302354839   -1.84021473656303
C         1.75208153655633   -3.02252998206989   -0.61798897438718
C         0.38363130939050   -3.46975219585549   -0.61855510249332
C         2.79646180983877   -1.16672641726652   -1.83588624348899
C         2.41782575853815    0.00572501792738   -2.58665425151001
C         2.79579178022592    1.16781136875575   -1.82986841033900
C         3.40679859086003    0.72202088766483   -0.60630798837974
C         3.40487091082349   -0.72145669350629   -0.60686336495679
C         1.97554152724159    2.29415247176979   -1.82590318896589
C         0.74927080865014    2.28660736653422   -2.57404738818716
C        -0.25062068527582    3.01412654455989   -1.82089224204666
C         0.36224042977210    3.45309483076501   -0.59692838985351
C         1.73770876306967    3.01065502095439   -0.60105336687796
C        -1.57256164627380    2.58386231413751   -1.81692182859451
C        -1.96875489022564    1.43763857447272   -2.58253885142220
C        -2.93537098351892    0.70935854558230   -1.81725729572069
C        -3.18427002052507    1.43179349276865   -0.59597733677436
C        -2.34034206446515    2.59510920013878   -0.59358718597185
C        -2.93020100739474   -0.68658016197781   -1.81643199732313
C        -1.93085830580797   -1.41125482381005   -2.57078792295058
C        -1.55380028451463   -2.58294869776963   -1.82555886573117
C        -2.29684765659481   -2.57407446553481   -0.59625028257511
C        -3.15349537855476   -1.39680187794134   -0.59375480563382
C        -0.98263533252891   -0.72665078510223   -3.30395697677988
C        -1.01978217586555    0.74736115779145   -3.41802297670782
C         0.39289043708712    1.16932992552266   -3.30466892234722
C         1.22953318959999    0.00724579166100   -3.30693682510829
C         0.38336089177116   -1.16231358099849   -3.30765357424833
Cl       -2.09964343073052    0.29318096247116    5.20792844411988
Cl       -0.35001747517051   -2.11119777125241    5.19945862646082
Cl       -1.51914280983117    1.10953958328676   -5.16381556256039
63
 energy: -142.093028824607 gnorm: 0.013537616575 xtb: 6.4.1 (a3dbbd7)
C        -1.32247441236794    0.00553090395484    3.59804678559595
C        -0.38807718100170   -1.27814443933150    3.59264064703814
C         0.98816316213978   -0.72706185189406    3.28989505410493
C         0.97112049336038    0.69269217980119    3.26153884623149
C        -0.37587547443658    1.14695220432572    3.29708869804236
C         2.33456717854382   -2.59030985804992    0.57230815775285
C         3.17262761346226   -1.41853940708487    0.57411630307367
C         2.92179640674957   -0.69536596149791    1.79561404309957
C         1.93194854307367   -1.40651451961432    2.55251958315195
C         1.57690109788088   -2.59725854901400    1.79573558284189
C         3.18574709166396    1.41651972399351    0.57678154784807
C         2.33427246837294    2.58242550248655    0.57886264323546
C         1.57389923352517    2.56949544921730    1.80259939300535
C         1.94329507302501    1.40292208188342    2.54537648677361
C         2.93896856462046    0.69402624984013    1.79673212975570
C        -0.36989010402602    3.44510438495822    0.58977618380078
C        -1.74265016697463    3.01103839100714    0.59444838155417
C        -1.98012249044607    2.28952714125239    1.81675143149249
C        -0.73353391290956    2.25600622603828    2.56632203366281
C         0.24561235008205    2.98025799903583    1.80495297412193
C        -3.39740279805046    0.72997548321804    0.58800115252648
C        -3.38119626533763   -0.70370278153534    0.58692191511756
C        -2.74929395757780   -1.12736743450753    1.82389366895872
C        -2.39976747491749   -0.01312166167647    2.56678393675106
C        -2.77536857226073    1.16186935084241    1.81440559018171
C        -1.70297649511977   -3.00316493343624    0.57474492203497
C        -0.34354161017626   -3.46284167274488    0.56887576168174
C         0.25954333445001   -3.00716935744807    1.79425042355622
C        -0.74165653678463   -2.29115715141273    2.55545635634010
C        -1.91041531288665   -2.27798882307833    1.82099755839550
C        -0.22817897875384   -3.01937099046363   -1.83396929549790
C         0.75564957049576   -2.29384917135942   -2.58925450068396
C         1.98583876803743   -2.29282929545737   -1.83653724217427
C         1.75474369055925   -3.02439455652419   -0.61431536834732
C         0.38631594390282   -3.47226637649622   -0.61531845838547
C         2.79758502289894   -1.16768841171756   -1.83208955129707
C         2.41716093061597    0.00545128359746   -2.58157100056642
C         2.79629328059439    1.16414837391641   -1.82602298838474
C         3.41015261715939    0.72030988102995   -0.60317710334996
C         3.40738361428737   -0.72344930670388   -0.60319555388008
C         1.97126305811574    2.28735021240791   -1.82201912667351
C         0.74730377753875    2.27924553240518   -2.57403986462440
C        -0.25145656292192    3.01457995992828   -1.81959548707661
C         0.35963759552096    3.44822395986634   -0.59629884150965
C         1.73589808466518    3.00607861199416   -0.59856630309551
C        -1.57086634474209    2.57394271340030   -1.81525547160781
C        -1.96986188229685    1.43813108827765   -2.57752131183728
C        -2.92450562991696    0.71114290037751   -1.81591681791558
C        -3.18038834097177    1.43128911929880   -0.59126641400591
C        -2.33867060293535    2.59251954217972   -0.58879519166685
C        -2.93095911834702   -0.68669674033074   -1.81554915164911
C        -1.92469453322356   -1.40752931944507   -2.57120706031897
C        -1.54879376578746   -2.57706222127898   -1.82199610015069
C        -2.29358518939293   -2.57119313389334   -0.59383897763146
C        -3.14964477812156   -1.39332747489197   -0.59377812083086
C        -0.98280105304734   -0.72909893721431   -3.30855595826027
C        -1.04216124652980    0.76354261023447   -3.50956863708336
C         0.39499730198060    1.17026143653205   -3.30888490186205
C         1.22376907555502    0.01139637577850   -3.29851141271681
C         0.37742719941791   -1.15796076147942   -3.29899289696127
Cl       -2.09841468884972    0.29166932980538    5.21270226588964
Cl       -0.34863186647911   -2.11379968406410    5.20177937190191
Cl       -1.55005004844329    1.13195948612267   -5.26775893003963
63
 energy: -142.093336777940 gnorm: 0.008009853098 xtb: 6.4.1 (a3dbbd7)
C        -1.32237973885525    0.00527863029840    3.60040191917852
C        -0.38773049787362   -1.27835285725256    3.59463141832082
C         0.98858733299895   -0.72734921826783    3.29189460199654
C         0.97131017340651    0.69231514588462    3.26342984856196
C        -0.37577861972366    1.14690962649576    3.29918575251218
C         2.33566216512003   -2.59121579824891    0.57446936242201
C         3.17382179298270   -1.41933104347290    0.57630087973979
C         2.92269158323218   -0.69608957111172    1.79782907707828
C         1.93265135509360   -1.40701233828350    2.55474325297680
C         1.57784770650769   -2.59793613853433    1.79790573671525
C         3.18577582550856    1.41554132701555    0.57837520236872
C         2.33357119032889    2.58096932251214    0.57977953127793
C         1.57405995658647    2.56875894554957    1.80406040884140
C         1.94342302604351    1.40243888621689    2.54695245114735
C         2.93935109249578    0.69342438353239    1.79848688584491
C        -0.36960168245545    3.44455244818415    0.59107216015128
C        -1.74191413775806    3.00982549235748    0.59512629594384
C        -1.98013712780531    2.28974964624000    1.81842612966850
C        -0.73347454438975    2.25600769088874    2.56828047906837
C         0.24573211821356    2.97972697433635    1.80602679992234
C        -3.39562732506951    0.72981036915334    0.58854235548535
C        -3.38030886182988   -0.70370972035312    0.58814353265683
C        -2.74869600729147   -1.12718613913475    1.82485926158315
C        -2.39986364533062   -0.01309252738290    2.56895389371669
C        -2.77522646348322    1.16183869614142    1.81604607165710
C        -1.70178343623439   -3.00188549916985    0.57559423818010
C        -0.34259335854575   -3.46242813360612    0.57047997704272
C         0.26027142649523   -3.00741893299597    1.79597046640065
C        -0.74117995096699   -2.29104504778315    2.55711371345135
C        -1.90964153773504   -2.27769585270319    1.82244409247688
C        -0.22705950927625   -3.01706564008040   -1.83222015383505
C         0.75512722996840   -2.29115178984430   -2.58742654093600
C         1.98526192335918   -2.29209094085488   -1.83452112189005
C         1.75552772744464   -3.02473808137424   -0.61247032070653
C         0.38715334936540   -3.47243545873034   -0.61375596956570
C         2.79661997812683   -1.16743691356004   -1.82999895095008
C         2.41425174171876    0.00505850644797   -2.57964646603313
C         2.79434851936180    1.16235441143070   -1.82421970670073
C         3.41056837755043    0.71957527075545   -0.60158556641770
C         3.40790143247131   -0.72413413714689   -0.60131684647259
C         1.96709963038673    2.28337004248124   -1.82095964121429
C         0.74540773938790    2.27867836213473   -2.57817724132193
C        -0.25137490958364    3.01638801956857   -1.82068234978715
C         0.35858027519826    3.44657788131254   -0.59623678047625
C         1.73402094490161    3.00293985013177   -0.59769061010961
C        -1.56951025029734    2.57128207768682   -1.81836725131004
C        -1.96594742809414    1.43527771305683   -2.57847451175142
C        -2.92115374049516    0.71091673590016   -1.81910386207297
C        -3.17680720172708    1.42957622351253   -0.59148504181562
C        -2.33585797195765    2.59001762877549   -0.58902996911103
C        -2.93255617067105   -0.68742675601945   -1.81676227678301
C        -1.92481842557502   -1.40561675833994   -2.57547982105320
C        -1.54628875544034   -2.57198635481783   -1.82105773066363
C        -2.29119795556680   -2.56843687659156   -0.59302573599912
C        -3.14823128161423   -1.39173856415323   -0.59390176553059
C        -0.98571741979332   -0.72781611933734   -3.31813818528043
C        -1.04637568287231    0.76668071988676   -3.53271473558518
C         0.39288937760133    1.17265615262141   -3.31838745566158
C         1.22081911088050    0.01346468857038   -3.29833755921135
C         0.37444433207906   -1.15581230105062   -3.29882290882449
Cl       -2.09659034128729    0.28931523987837    5.21646501163283
Cl       -0.34883973961143   -2.11422254629066    5.20358170867531
Cl       -1.55853996934388    1.13794185289534   -5.28402365019126
63
 energy: -142.093428988786 gnorm: 0.004670051834 xtb: 6.4.1 (a3dbbd7)
C        -1.32272218672701    0.00531071138385    3.60144861434829
C        -0.38769631788107   -1.27870791804198    3.59547392442876
C         0.98851787784295   -0.72748656583005    3.29228974605322
C         0.97112686615756    0.69214812024568    3.26389432170107
C        -0.37601145765788    1.14694497374870    3.29962497307077
C         2.33626101166616   -2.59184241609508    0.57528308564717
C         3.17454548381483   -1.41975073154241    0.57714766979608
C         2.92312838285690   -0.69643028859620    1.79864906732324
C         1.93280820056331   -1.40722441271909    2.55537324150180
C         1.57828579294033   -2.59839366025568    1.79865472608687
C         3.18571973084185    1.41512055314974    0.57911189571468
C         2.33333377320071    2.58048344092934    0.58011495619543
C         1.57414762391795    2.56853510180100    1.80458431572141
C         1.94339456715192    1.40226456625653    2.54751820484181
C         2.93954483508673    0.69318517502291    1.79925573842872
C        -0.36929693439807    3.44464635779344    0.59150388752844
C        -1.74159208669632    3.00940422003392    0.59505414856328
C        -1.98021617589561    2.28991021246763    1.81862402852780
C        -0.73356554422731    2.25611108767124    2.56868444061812
C         0.24581739272539    2.97965562182676    1.80622226463037
C        -3.39485777275149    0.72966986072686    0.58842100881549
C        -3.38002231984761   -0.70402310948906    0.58857168527038
C        -2.74850306638755   -1.12723353381963    1.82508672950197
C        -2.40016122201800   -0.01307740296288    2.56968102971563
C        -2.77513430974722    1.16175986461173    1.81623215715738
C        -1.70140448964358   -3.00155574168518    0.57585998454564
C        -0.34222706013074   -3.46228816926924    0.57113266981936
C         0.26055842408154   -3.00769724701255    1.79657082945338
C        -0.74104522934736   -2.29111937318026    2.55765327451531
C        -1.90944212097512   -2.27774070804313    1.82298525766719
C        -0.22663272515898   -3.01609632295871   -1.83139164712440
C         0.75487870907816   -2.28945802418382   -2.58620357005775
C         1.98485592513190   -2.29161500784220   -1.83342773874808
C         1.75581707931917   -3.02517372937082   -0.61169524513895
C         0.38750421882617   -3.47278254431484   -0.61303302965238
C         2.79597637653272   -1.16723188396704   -1.82882926297953
C         2.41242454842341    0.00475386317079   -2.57829175985131
C         2.79343420789002    1.16165353584602   -1.82326245282518
C         3.41091643506848    0.71933611184861   -0.60074736715653
C         3.40833390859049   -0.72432215438760   -0.60047492251507
C         1.96496553650085    2.28127290203944   -1.82044216789264
C         0.74449273081401    2.27861945810932   -2.57999782992467
C        -0.25092115218263    3.01828112359298   -1.82107169029542
C         0.35833435096582    3.44654655095577   -0.59620225125465
C         1.73303676297403    3.00135535494587   -0.59729141181109
C        -1.56831304555946    2.57002253245131   -1.82032801849577
C        -1.96222195636664    1.43255032593870   -2.57815752891880
C        -2.91936813342465    0.71031054725574   -1.82113384432878
C        -3.17457277224829    1.42842965869225   -0.59180114025943
C        -2.33406832329243    2.58843419862602   -0.58937599682708
C        -2.93412940846229   -0.68850602161463   -1.81722803271451
C        -1.92506262946201   -1.40475094209232   -2.57737498104640
C        -1.54490654446492   -2.56938081736639   -1.82062980585880
C        -2.28991996126180   -2.56703047352901   -0.59268790054827
C        -3.14807651546877   -1.39139502856168   -0.59395434165751
C        -0.98757897061138   -0.72673049206915   -3.32311057619738
C        -1.04781564961756    0.76779881365045   -3.54207055188306
C         0.39128798582766    1.17410500403522   -3.32329862744006
C         1.21926738598116    0.01455728994006   -3.29763597593526
C         0.37287199923648   -1.15470286313521   -3.29818730646580
Cl       -2.09776812518372    0.29272355444232    5.21672922820025
Cl       -0.34577519290460   -2.11749504154898    5.20286376138532
Cl       -1.56258397774561    1.14070283763594   -5.28341210153606
63
 energy: -142.093452688320 gnorm: 0.002914128807 xtb: 6.4.1 (a3dbbd7)
C        -1.32227292010161    0.00521912520143    3.60024893397582
C        -0.38778046811377   -1.27803749269431    3.59425115871816
C         0.98870379093823   -0.72712121094775    3.29193277015030
C         0.97130353872238    0.69246480115558    3.26332041839321
C        -0.37583157342397    1.14730723080269    3.29923969807299
C         2.33646880868195   -2.59207741556029    0.57544652786867
C         3.17491420098859   -1.41986062904338    0.57723620536274
C         2.92342354038735   -0.69642303288224    1.79865277863153
C         1.93302005128380   -1.40716872897116    2.55539418220487
C         1.57836967766125   -2.59846846522813    1.79873912660455
C         3.18584289642494    1.41511710641842    0.57904339933128
C         2.33353859618675    2.58066820785663    0.57984951549083
C         1.57440423553086    2.56881847908561    1.80436680992916
C         1.94371019535336    1.40258709219465    2.54726785841929
C         2.93986034500664    0.69330288718410    1.79918727560513
C        -0.36899873359021    3.44503232286714    0.59144280128860
C        -1.74145430664524    3.00941022742349    0.59479151654953
C        -1.98022763881267    2.29000807260913    1.81833104707508
C        -0.73353248951381    2.25650235557292    2.56852525465447
C         0.24599789850854    2.97995714065754    1.80592539104736
C        -3.39478008909802    0.72962430771416    0.58809656555059
C        -3.38020091940724   -0.70438147294716    0.58840610457330
C        -2.74860029661004   -1.12735370976828    1.82458360953514
C        -2.40065438924385   -0.01318466935464    2.56951294001344
C        -2.77522580876940    1.16173753271461    1.81594835584595
C        -1.70148894151848   -3.00185563724852    0.57562383221256
C        -0.34213082370316   -3.46234368689414    0.57123706752286
C         0.26055503584040   -3.00795531441101    1.79666102114851
C        -0.74133782827970   -2.29127604391982    2.55746932234912
C        -1.90960831616069   -2.27793063915151    1.82271727257198
C        -0.22646559106778   -3.01599781306074   -1.83117274826610
C         0.75488736629512   -2.28869719586184   -2.58559506285645
C         1.98468663195493   -2.29141892783131   -1.83301560321038
C         1.75588243403240   -3.02550689178282   -0.61148221912465
C         0.38767853521117   -3.47319991162386   -0.61282636617691
C         2.79571102393521   -1.16714084810465   -1.82842491217149
C         2.41160803422016    0.00450645256734   -2.57766556347650
C         2.79330137225439    1.16150377555441   -1.82308154067961
C         3.41136176249354    0.71934242521810   -0.60064496231729
C         3.40869551043684   -0.72428606320307   -0.60033767299427
C         1.96418817384741    2.28034130022635   -1.82046151633709
C         0.74421051026355    2.27846826971578   -2.58048661651866
C        -0.25041844096844    3.01966439064916   -1.82115455481314
C         0.35850447805249    3.44715209265174   -0.59639685557874
C         1.73277590726433    3.00088521007169   -0.59744437186175
C        -1.56733471695287    2.56920524544232   -1.82118366315759
C        -1.95919647677221    1.43030465801719   -2.57699882581475
C        -2.91819867721096    0.70973783902495   -1.82208925986995
C        -3.17340848227924    1.42787876230365   -0.59199297308202
C        -2.33313417296540    2.58757820926791   -0.58955998037155
C        -2.93524223486821   -0.68947749064175   -1.81740070841386
C        -1.92499517188103   -1.40447405415032   -2.57788019450807
C        -1.54418207280236   -2.56839669701268   -1.82063193702953
C        -2.28942502698037   -2.56663184461056   -0.59281949405864
C        -3.14847162477057   -1.39164886572102   -0.59424796838783
C        -0.98839712199336   -0.72607253971972   -3.32486856962264
C        -1.04851326132023    0.76834182809794   -3.54616069327818
C         0.39037367441852    1.17467239473326   -3.32501121511354
C         1.21858070014552    0.01501910072610   -3.29678094863168
C         0.37218189646572   -1.15425092888774   -3.29736712196887
Cl       -2.09184107561857    0.28199541658021    5.21987865162189
Cl       -0.35446971759472   -2.10861067510548    5.20576524273712
Cl       -1.56494666750724    1.14225554139505   -5.27635674593031
63
 energy: -142.093477291371 gnorm: 0.002123395114 xtb: 6.4.1 (a3dbbd7)
C        -1.32299717180085    0.00550937554469    3.60073430539861
C        -0.38794097798655   -1.27857891267673    3.59483785516746
C         0.98824211157410   -0.72724924145701    3.29159225319039
C         0.97085413772188    0.69234383727049    3.26319720289065
C        -0.37627408992865    1.14717801271005    3.29884121441664
C         2.33633992437879   -2.59205391851402    0.57514068210400
C         3.17475707079104   -1.41979702090890    0.57700118401295
C         2.92309409430939   -0.69637751541021    1.79836038695726
C         1.93261086841801   -1.40709163451989    2.55495914599637
C         1.57818157752152   -2.59839016302025    1.79831931020001
C         3.18569730539467    1.41515116584397    0.57898827870165
C         2.33358898804812    2.58088500236094    0.57983087825634
C         1.57422016654907    2.56882993709974    1.80424491313784
C         1.94332299636608    1.40249647686342    2.54715626156857
C         2.93954663707517    0.69332227232928    1.79906644443716
C        -0.36898608095423    3.44527835357498    0.59126606412909
C        -1.74161015159384    3.00971994741632    0.59456400451886
C        -1.98032226544841    2.29005183415313    1.81786735394926
C        -0.73371152774000    2.25636287043219    2.56802971139448
C         0.24585301905710    2.98000151230475    1.80567296134813
C        -3.39503510033641    0.72959261816672    0.58788084373489
C        -3.38033510007857   -0.70457168739140    0.58830223193426
C        -2.74868171851633   -1.12735119645076    1.82444862116851
C        -2.40056811108686   -0.01303229272154    2.56913679470525
C        -2.77514658774338    1.16172457908082    1.81544242063472
C        -1.70173781371759   -3.00212160761954    0.57553900858370
C        -0.34225599035838   -3.46235669988110    0.57098384635898
C         0.26040484311714   -3.00779661144916    1.79625494673992
C        -0.74135838917525   -2.29108204438907    2.55718540851731
C        -1.90977665415422   -2.27797988092834    1.82264582629481
C        -0.22654907542298   -3.01646499870000   -1.83138637974210
C         0.75504874083856   -2.28897746762955   -2.58568994089725
C         1.98478230096871   -2.29153517300877   -1.83321559828197
C         1.75579889740103   -3.02565237241862   -0.61172425470514
C         0.38763765871106   -3.47341635167027   -0.61302550583383
C         2.79585158445714   -1.16719081828413   -1.82856871286079
C         2.41191601836399    0.00446137025342   -2.57767158481899
C         2.79367825772015    1.16171255781811   -1.82315222340385
C         3.41146190670342    0.71940887250902   -0.60067132250699
C         3.40875041828643   -0.72420072620435   -0.60048135545856
C         1.96462886086005    2.28058577433889   -1.82048140417403
C         0.74451138194303    2.27829654135164   -2.57978340012463
C        -0.25019970722602    3.01984792106928   -1.82090554137311
C         0.35875664237485    3.44768632216016   -0.59645692615516
C         1.73301442846964    3.00123118550119   -0.59748174055069
C        -1.56706309100323    2.56904791949489   -1.82080135819220
C        -1.95834757540435    1.42962412291831   -2.57590030380950
C        -2.91800644161900    0.70950122482992   -1.82175662359808
C        -3.17360211337270    1.42799306881898   -0.59197378518306
C        -2.33337093377278    2.58770497872120   -0.58955369560167
C        -2.93536519687654   -0.68982553614986   -1.81716418995079
C        -1.92474449060033   -1.40472544625714   -2.57720002578521
C        -1.54427382838479   -2.56892656427983   -1.82071443636708
C        -2.28964981382125   -2.56702205417677   -0.59290407464449
C        -3.14884995572071   -1.39207527287852   -0.59429711223786
C        -0.98807727482553   -0.72613120684120   -3.32363228058541
C        -1.04854808350819    0.76836989146281   -3.54540274501702
C         0.39050448325015    1.17437622516129   -3.32373343674543
C         1.21883691703417    0.01485800181288   -3.29624961935307
C         0.37242419372279   -1.15443978507856   -3.29688738080569
Cl       -2.09772901800377    0.29327049836174    5.21616234771337
Cl       -0.34600568878831   -2.11707904783635    5.20226537190439