63
 energy: -142.066659741524 gnorm: 0.136945509004 xtb: 6.4.1 (a3dbbd7)
C        -1.29380189142293    0.00518810975266    3.53475042546279
C        -0.36795491470580   -1.17109445736895    3.30532490038581
C         0.98604358283337   -0.72205662153057    3.28338601634011
C         0.99279845569028    0.71960958020434    3.28670177220412
C        -0.35984581254024    1.17608479242461    3.30752732760340
C         2.33713649004571   -2.58532145161085    0.58372316331785
C         3.18546133793759   -1.42134997264655    0.58338208878717
C         2.95082976620164   -0.69852042803930    1.80993186584047
C         1.95446102216782   -1.41753025851411    2.56281800021944
C         1.57847833033781   -2.57892028349053    1.80920393433954
C         3.19288167803387    1.41169296432545    0.58672865582473
C         2.35105136029066    2.58084981847724    0.59261819528430
C         1.59758832697668    2.57820008875605    1.81796532275165
C         1.96559431354784    1.41132811232743    2.56849274624772
C         2.95756435296723    0.68790137312963    1.81257795942740
C        -0.35275196897409    3.42887133849168    0.59421742049523
C        -1.72920692229924    2.99230129003520    0.61519127722458
C        -1.95197042618735    2.29668273330733    1.78890012206403
C        -0.71485852606077    2.27608556030605    2.56877936383865
C         0.27214507062583    2.99541427636099    1.81693304163630
C        -3.38721742288295    0.70448508843178    0.56514887497333
C        -3.39044375775274   -0.72968934853056    0.56550558817146
C        -2.77113539472441   -1.15912612265277    1.79248966840215
C        -2.41317429079729    0.01751644177935    2.54950357180152
C        -2.77182627205049    1.13563561134442    1.81994410998792
C        -1.73355122268659   -3.00708034664607    0.58129730270537
C        -0.36181166270692   -3.44426421951826    0.58345136711438
C         0.25275073307619   -2.99321810486982    1.80880479424469
C        -0.73039712791208   -2.27135950943121    2.56586851742324
C        -1.97279304600038   -2.28576170766145    1.80102269682824
C        -0.24238615112945   -3.01793584622875   -1.82445515299701
C         0.75219722331257   -2.29732681147523   -2.58092298223561
C         1.97624114646521   -2.29597968001587   -1.82132020587332
C         1.74307643045859   -3.01315945447727   -0.59635165459212
C         0.36952394179264   -3.45595661079619   -0.59532061061890
C         2.79389381083502   -1.17006079615157   -1.82189978789697
C         2.41348009957297   -0.00705489229052   -2.57818086595715
C         2.78999064750528    1.16020365821852   -1.81761248140956
C         3.41015703318610    0.71618948342090   -0.59477681854074
C         3.40904188499398   -0.72628404265143   -0.59717927367984
C         1.96766155284354    2.27743617061842   -1.80961098452332
C         0.73818631315969    2.27318131636995   -2.56526366176596
C        -0.25452817372238    2.98697308127654   -1.81304848877457
C         0.37433917950606    3.44714002836196   -0.57954542322151
C         1.74069841374485    3.00184911275993   -0.58628229109115
C        -1.56594286660743    2.57622153348487   -1.82757382821072
C        -1.93060359076478    1.40833920854940   -2.56142004737257
C        -2.92558718059454    0.68471965133326   -1.80985060540908
C        -3.18336452045091    1.39842201201719   -0.60046258538095
C        -2.49261081939282    2.74597890286004   -0.64190319443319
C        -2.93337982074983   -0.70819502150591   -1.82878957204493
C        -1.94087750651851   -1.42668590891227   -2.58871417977512
C        -1.56447467303262   -2.59492957963295   -1.83010971308821
C        -2.32899579696595   -2.59691491413030   -0.60898361949216
C        -3.17400858337551   -1.43281811038797   -0.61332327338214
C        -0.98438829443742   -0.73034962028861   -3.31153930258603
C        -0.98168514679102    0.71067458913262   -3.30542238699281
C         0.38278275322509    1.15383295034001   -3.30684835980828
C         1.23382314639336   -0.00939761816394   -3.31093861539930
C         0.38818347913191   -1.17531879821918   -3.31264620408259
Cl       -1.92621810876854    0.00794379942123    5.24496950921280
Cl       -3.69873659772651    4.07913281862690   -0.94789575544924
Cl        2.62006139713328   -4.56420643766202   -0.91455068692894
63
 energy: -142.090938122737 gnorm: 0.058655764087 xtb: 6.4.1 (a3dbbd7)
C        -1.29506845392449    0.00715413183152    3.53698834789487
C        -0.36809856241869   -1.16739269220865    3.31030688056282
C         0.98502848363479   -0.71638920356852    3.29163517506026
C         0.99122285084338    0.72449244152288    3.29145222834768
C        -0.36190087790994    1.17860021427245    3.31001833551406
C         2.35237263825676   -2.58317578567845    0.60397816610970
C         3.17497433719180   -1.41391671459805    0.59137677032556
C         2.95025386937293   -0.69040347877915    1.82085714798705
C         1.95632771819694   -1.40817822222270    2.57399344554148
C         1.57800289220817   -2.56349417075738    1.81042721650143
C         3.19305757923868    1.41533602401615    0.58991581351303
C         2.35063904079963    2.58110013151367    0.59368736600261
C         1.59618244128041    2.58046770019475    1.81943696805262
C         1.96409976578569    1.41624812036912    2.57290016653641
C         2.95755586704750    0.69435721844730    1.81809636502899
C        -0.35347960428511    3.42988155780578    0.59424364736423
C        -1.72885544586053    2.99280337693977    0.61479924118176
C        -1.95256337700378    2.29742393347311    1.78945709457401
C        -0.71637847423919    2.27752749551182    2.56962188471871
C         0.27091181622115    2.99645069598866    1.81723788740253
C        -3.38740194954806    0.70548725551302    0.56527488484677
C        -3.39129550599306   -0.72809292505074    0.56544431822564
C        -2.77092987301494   -1.15758860496360    1.79269530935275
C        -2.41324753695918    0.01866060865660    2.55023175165480
C        -2.77187928622197    1.13658317863402    1.82046705705628
C        -1.73917200473191   -3.00589565617943    0.58054092502730
C        -0.36737175159444   -3.43210658355296    0.57994637150225
C         0.25172253222767   -2.98614990693532    1.81020755394346
C        -0.72993034839315   -2.26879096045743    2.56539254421429
C        -1.97286744894177   -2.28373478800030    1.80099644716261
C        -0.24643158239901   -3.00787577088032   -1.82009420720742
C         0.74917302605485   -2.28652673285796   -2.57815045058265
C         1.97001832405706   -2.28236033978047   -1.82967526454246
C         1.79545415538203   -3.10727169721903   -0.61737728092572
C         0.35582611440136   -3.44795420334161   -0.59620663359091
C         2.78210141230009   -1.16100195437524   -1.82211204936132
C         2.41082006632202   -0.00195983848024   -2.58365781231270
C         2.78727186599426    1.16101077521325   -1.81807008387242
C         3.40848193193422    0.71582110821974   -0.59410565400855
C         3.40662414822312   -0.72084399519485   -0.59527587511283
C         1.96599891154931    2.27807415741994   -1.81001371824145
C         0.73685923262997    2.27471057211492   -2.56643538801232
C        -0.25495147239005    2.98772391886595   -1.81337614886376
C         0.37471627711425    3.44767578669488   -0.57961046873299
C         1.73986715901359    3.00298110433378   -0.58640912648788
C        -1.56661491509503    2.57768940301863   -1.82777506279585
C        -1.93242094289149    1.41070281246688   -2.56203250302537
C        -2.92723502657418    0.68692253563975   -1.81011701518439
C        -3.18376295199998    1.39980464587311   -0.60041042714629
C        -2.49293765328724    2.74724391030836   -0.64195179329258
C        -2.93668829106323   -0.70585041638147   -1.82991039072540
C        -1.94489868707808   -1.42367496616821   -2.59060895528877
C        -1.57186095819432   -2.59176980147645   -1.83084391824894
C        -2.33481027188274   -2.59553727698585   -0.61080635046962
C        -3.17729599556032   -1.43051985174989   -0.61423657514156
C        -0.98802750697595   -0.72699585306003   -3.31396697042924
C        -0.98459146805602    0.71390999856044   -3.30768371926110
C         0.37993418362237    1.15704700791464   -3.30995814153174
C         1.23075364039480   -0.00507771234222   -3.31797056749031
C         0.38507305720609   -1.16843947748365   -3.31830444904569
Cl       -1.92949511516592    0.00916107504968    5.24684160433780
Cl       -3.69912928521581    4.08008982593972   -0.94754353072868
Cl        2.68786206962481   -4.69595462084912   -0.94936139673644
63
 energy: -142.096920424494 gnorm: 0.013520602492 xtb: 6.4.1 (a3dbbd7)
C        -1.29656166744264    0.00995822044462    3.53844704974952
C        -0.36882077565664   -1.16391571739696    3.31310732665547
C         0.98284096853517   -0.71231928949822    3.29336928355699
C         0.98927338786161    0.72890942026794    3.29552410505042
C        -0.36415469030084    1.18254951374695    3.31296021554083
C         2.35265025265877   -2.57915421251578    0.60630676592581
C         3.16363315620903   -1.41540966343682    0.59037492876250
C         2.94426520985170   -0.68676635308644    1.82081281771166
C         1.95338436219921   -1.40343885501604    2.57320779594486
C         1.57754865573004   -2.55762618685478    1.80221345066094
C         3.19065971781263    1.41919006680869    0.59194972186682
C         2.34865549870958    2.58233943218269    0.59453745449440
C         1.59378760415878    2.58389142031327    1.82112751891160
C         1.96224068923004    1.42086905245607    2.57631164388718
C         2.95389383037224    0.69792052007335    1.81951384596395
C        -0.35576421406241    3.43241187793120    0.59466882559581
C        -1.72977548009616    2.99541502968081    0.61476464317299
C        -1.95399336352674    2.30007441153349    1.79048143153738
C        -0.71859722648883    2.28075178681146    2.57113251426345
C         0.26881900258804    2.99921345551832    1.81806799659892
C        -3.38805950110941    0.70839793867092    0.56547205043543
C        -3.39240958501318   -0.72458673192205    0.56558236299055
C        -2.77042948914539   -1.15430906155540    1.79294345110834
C        -2.41427660947366    0.02158388937523    2.55114358254904
C        -2.77272689945014    1.13961170787882    1.82117965984415
C        -1.73416110288559   -2.99845455427106    0.57845719462025
C        -0.36359818058595   -3.42877511678135    0.57502058355975
C         0.25263873904637   -2.98608800221951    1.81195914799399
C        -0.72699968031768   -2.26595085899412    2.56268002012288
C        -1.97040406777977   -2.27910497136891    1.79987094573992
C        -0.24313184412573   -3.00128246474786   -1.81020754619008
C         0.75246257877313   -2.28012733323045   -2.56895991662040
C         1.97239956725988   -2.28438583463293   -1.83383185663376
C         1.83997603272622   -3.18992114045706   -0.63776320978398
C         0.35585949784580   -3.45235788051491   -0.59737009332283
C         2.77560606058157   -1.16362769937763   -1.82071348631388
C         2.40410162802849   -0.00215820533599   -2.57887033832821
C         2.78257738593965    1.16127571832159   -1.81609362185196
C         3.40406696470739    0.71352269121248   -0.59224545466875
C         3.40779008127287   -0.71922913446958   -0.59486587789501
C         1.96339191953261    2.27956919680889   -1.80959960625415
C         0.73452103053399    2.27751371011150   -2.56720164218519
C        -0.25678893553595    2.99004244853144   -1.81353773744917
C         0.37339391570333    3.44940731293818   -0.57932839450205
C         1.73736970838143    3.00567524174880   -0.58624041934096
C        -1.56881957204873    2.58114712096000   -1.82795016007070
C        -1.93531194697450    1.41476134603775   -2.56258853423501
C        -2.92988444860142    0.69098046312852   -1.81021180230930
C        -3.18524541952661    1.40327615151789   -0.60030004459879
C        -2.49460692565792    2.75076362774013   -0.64165807035074
C        -2.93914834780167   -0.70204769443458   -1.83022426389846
C        -1.94649257008153   -1.42013816245660   -2.58963674208119
C        -1.57202112099412   -2.58698644948027   -1.82796650328742
C        -2.33451640100123   -2.58980847856805   -0.61136684837587
C        -3.18008137965546   -1.42691565822605   -0.61458194405864
C        -0.98977010587761   -0.72367696950896   -3.31295751200918
C        -0.98767940686327    0.71760636996323   -3.30846279120772
C         0.37698747597646    1.16080556655958   -3.31216483042664
C         1.22635240580230   -0.00255726074236   -3.31734477433133
C         0.38384097412377   -1.16443172998217   -3.31574304054338
Cl       -1.93428193069393    0.01223358665223    5.24765652654613
Cl       -3.70059736316543    4.08364526748857   -0.94604629616195
Cl        2.74171673304820   -4.79154337158675   -0.97039451492888
63
 energy: -142.097233632533 gnorm: 0.008021738456 xtb: 6.4.1 (a3dbbd7)
C        -1.29746434431862    0.01106061006664    3.53884429964281
C        -0.36948592409670   -1.16301720463622    3.31394646136420
C         0.98176233324846   -0.71139293892959    3.29243564612491
C         0.98837293569827    0.73003631539354    3.29638864371267
C        -0.36506070690216    1.18405368449267    3.31412044432204
C         2.35008377883877   -2.57946248549260    0.60224070015132
C         3.16122030542518   -1.41849458156978    0.58758508344244
C         2.94057733458617   -0.68656922752991    1.81781440890760
C         1.95099352439506   -1.40288364001253    2.56997724546267
C         1.57780505602062   -2.55934328166829    1.79826733844136
C         3.18904846994321    1.42036297942284    0.59193572344317
C         2.34745670034261    2.58290863347996    0.59454699762872
C         1.59275232171261    2.58525115596000    1.82161668368481
C         1.96128473430792    1.42199092581503    2.57680728907414
C         2.95150987100405    0.69822679906430    1.81880137339180
C        -0.35701612559931    3.43392842551169    0.59498621997827
C        -1.73052064119279    2.99713095221170    0.61497547944029
C        -1.95483853371622    2.30167270545772    1.79114859003334
C        -0.71956550818669    2.28225848567236    2.57193442285931
C         0.26791872205337    3.00065886591205    1.81857309387731
C        -3.38875673244257    0.71026206857582    0.56564181919066
C        -3.39229192969014   -0.72253304743649    0.56565870158967
C        -2.76951179608847   -1.15253690581656    1.79269455665518
C        -2.41492010433034    0.02309387110112    2.55141444885104
C        -2.77344644953054    1.14145647430062    1.82154461268721
C        -1.72928265008522   -2.99463237760991    0.57712301717896
C        -0.36003359908367   -3.43182074063990    0.57367951670520
C         0.25295785047598   -2.98833684828404    1.81351129448395
C        -0.72564817451651   -2.26533882090994    2.56227792331967
C        -1.96785610394383   -2.27641828638221    1.79854232130870
C        -0.24021742703092   -3.00155058851642   -1.80704473067075
C         0.75520547473841   -2.28046413649606   -2.56610278639794
C         1.97795247232425   -2.29246564426794   -1.83617310647604
C         1.85030890118887   -3.21057934995018   -0.64407895060186
C         0.36064578703728   -3.46127047806640   -0.59866939026514
C         2.77674040387163   -1.16792885585052   -1.82114962767535
C         2.40085718548876   -0.00410393866765   -2.57521357040535
C         2.77958740277825    1.16041149386569   -1.81446233797567
C         3.40244629303325    0.71260282395781   -0.59162132254387
C         3.40992558281348   -0.71926454391619   -0.59570785519534
C         1.96170805374200    2.27975978568849   -1.80897745821605
C         0.73307106476611    2.27877736351220   -2.56709677199098
C        -0.25807258053944    2.99176678063823   -1.81365639244802
C         0.37236542536160    3.45070474374762   -0.57919915977942
C         1.73591787592550    3.00699270788862   -0.58620336139706
C        -1.57036644275626    2.58343892187303   -1.82821615887073
C        -1.93686168206743    1.41696726586479   -2.56297255338971
C        -2.93137248638763    0.69309459597218   -1.81021177857267
C        -3.18659742973806    1.40543160400663   -0.60026291926533
C        -2.49583363338086    2.75299324962620   -0.64139525616479
C        -2.93963269953933   -0.70017435890334   -1.82985820252685
C        -1.94588040196622   -1.41836865350385   -2.58799632939662
C        -1.56932121427321   -2.58460342821262   -1.82624870307388
C        -2.33219948873419   -2.58672650281835   -0.61116499013739
C        -3.18018445855223   -1.42504718524936   -0.61433513388335
C        -0.98973361515373   -0.72225455367853   -3.31106033952202
C        -0.98886613738017    0.71924306525400   -3.30826742600501
C         0.37580726064070    1.16221138134812   -3.31228735485766
C         1.22458054954523   -0.00232338637174   -3.31524401548720
C         0.38359492179929   -1.16414351962757   -3.31234211107944
Cl       -1.93785935731487    0.01431456890966    5.24739805873231
Cl       -3.70129955505485    4.08669106753670   -0.94406330820129
Cl        2.75313412374646   -4.80748634036837   -0.97073202606653
63
 energy: -142.097327800507 gnorm: 0.004645376702 xtb: 6.4.1 (a3dbbd7)
C        -1.29790681688977    0.01123297069118    3.53900887596106
C        -0.36996670131550   -1.16302803719026    3.31471954734587
C         0.98129212382400   -0.71135124838520    3.29192330105828
C         0.98816805778729    0.73004195881986    3.29650119109585
C        -0.36522565183079    1.18424873127900    3.31459696095379
C         2.34711237222612   -2.57868034588188    0.59897269770528
C         3.16001320381281   -1.42017409240838    0.58549601500290
C         2.93835110361048   -0.68652815494435    1.81580695272254
C         1.94953227519104   -1.40264727693045    2.56778362074691
C         1.57757655142234   -2.56068480773789    1.79605778309214
C         3.18863366456745    1.42103467845368    0.59165323632695
C         2.34727448870920    2.58304492602383    0.59434153590168
C         1.59260711915776    2.58557245579436    1.82167801564598
C         1.96108211983615    1.42203194775472    2.57673387419498
C         2.95064416404562    0.69814639162227    1.81828694141660
C        -0.35741595888931    3.43413757745874    0.59496701448538
C        -1.73052816874125    2.99737199706820    0.61489254296830
C        -1.95497849701267    2.30185897060118    1.79139465802462
C        -0.71973289552179    2.28240706163698    2.57216916168297
C         0.26782788545522    3.00083966740217    1.81867622127327
C        -3.38916393238197    0.71092032699688    0.56568992226998
C        -3.39220426093707   -0.72169188989579    0.56567172434469
C        -2.76925934028124   -1.15199385189399    1.79265651000631
C        -2.41523199517498    0.02337746966986    2.55149530871275
C        -2.77377675431289    1.14204251094906    1.82168252851508
C        -1.72677197001780   -2.99262158896006    0.57632197866211
C        -0.35838373023792   -3.43315735692431    0.57325590694763
C         0.25252172707999   -2.98987087162118    1.81508580131523
C        -0.72536431116010   -2.26554273499075    2.56274245384182
C        -1.96649419640033   -2.27512691832032    1.79779472996713
C        -0.23888025031033   -3.00125672141223   -1.80515726836026
C         0.75645561172059   -2.28019950337903   -2.56436924348864
C         1.98110572907753   -2.29682139691275   -1.83694251889676
C         1.85424223500880   -3.21879856833259   -0.64678106110597
C         0.36353411257747   -3.46587075719175   -0.59905202327111
C         2.77753016035559   -1.16983420951307   -1.82136041602059
C         2.39921409117954   -0.00522015300372   -2.57342815112377
C         2.77810754933940    1.15984329546619   -1.81364146737712
C         3.40233042940655    0.71246505609128   -0.59156322416879
C         3.41175221467838   -0.71867201302748   -0.59642029972455
C         1.96115084166067    2.27981958385102   -1.80884712966380
C         0.73248355056216    2.27928811714553   -2.56709571602259
C        -0.25856799931553    2.99249997520171   -1.81387164943276
C         0.37212487196653    3.45116456955965   -0.57930612898304
C         1.73548715451685    3.00758544823443   -0.58638196765439
C        -1.57102251942417    2.58433610244666   -1.82853260081030
C        -1.93757775096119    1.41785881941720   -2.56341404804316
C        -2.93219679599996    0.69387130198461   -1.81037865893588
C        -3.18731193242819    1.40618569253629   -0.60038894414745
C        -2.49633587944850    2.75372872881149   -0.64138621200999
C        -2.94008664139030   -0.69950635242322   -1.82968685715998
C        -1.94550108412423   -1.41746928726455   -2.58709580771197
C        -1.56774239831913   -2.58302902774666   -1.82527481692836
C        -2.33115770730873   -2.58529365202032   -0.61099686084338
C        -3.18044818638816   -1.42426092521568   -0.61422102203975
C        -0.98966183010526   -0.72154660257070   -3.30995693882228
C        -0.98929041316555    0.72003519431621   -3.30839623691686
C         0.37534601501950    1.16296297767364   -3.31250652672852
C         1.22390026926143   -0.00215843194222   -3.31430040148996
C         0.38332307841766   -1.16392786621342   -3.31014193064046
Cl       -1.93969591499047    0.01508185768988    5.24729747982718
Cl       -3.70131596557160    4.08813130596326   -0.94279880104122
Cl        2.75606846214270   -4.80798450361184   -0.96724257530526
63
 energy: -142.097367016299 gnorm: 0.002512890466 xtb: 6.4.1 (a3dbbd7)
C        -1.29794502825801    0.01097796339133    3.53901907364170
C        -0.37018656596318   -1.16337203617293    3.31515041773148
C         0.98122692547437   -0.71166984209230    3.29185465691783
C         0.98826563817921    0.72962937209749    3.29634029753440
C        -0.36507649514122    1.18391548488243    3.31466125616254
C         2.34478516964706   -2.57729912421649    0.59719716012022
C         3.15925941262934   -1.42059963983985    0.58446257677917
C         2.93750021887301   -0.68653164154738    1.81508037262559
C         1.94905318272901   -1.40255291245773    2.56693211663059
C         1.57715294039355   -2.56100820901985    1.79507384898015
C         3.18885124126100    1.42128833141653    0.59138845182633
C         2.34755245392360    2.58287563380012    0.59416293744032
C         1.59278027731796    2.58534371798257    1.82158458798330
C         1.96120875209921    1.42165493168262    2.57653301225352
C         2.95071364312931    0.69797574703319    1.81810826332610
C        -0.35736016705442    3.43373890603818    0.59485430963886
C        -1.73021271826508    2.99700311634332    0.61479308841551
C        -1.95477658219460    2.30144591642842    1.79143663322123
C        -0.71955828841688    2.28202265038625    2.57213536020351
C         0.26804397572561    3.00044656953874    1.81861478447869
C        -3.38920214987649    0.71086238914841    0.56569376753603
C        -3.39214917385406   -0.72162440951148    0.56563607831259
C        -2.76937285488863   -1.15214552548607    1.79274925717559
C        -2.41525495725936    0.02308841323427    2.55149819544540
C        -2.77376483865608    1.14194617011638    1.82171035972471
C        -1.72614430806778   -2.99205604808192    0.57595354174598
C        -0.35812808697012   -3.43308459604572    0.57311176918720
C         0.25197396683495   -2.99047082686385    1.81596505980439
C        -0.72557136539030   -2.26603235345324    2.56322484093054
C        -1.96617926049189   -2.27494180300549    1.79757247629352
C        -0.23867684018541   -3.00067800201830   -1.80435119407060
C         0.75664455445946   -2.27962360243069   -2.56360656865466
C         1.98186215681130   -2.29775574227949   -1.83679545681088
C         1.85545933834003   -3.22127377705256   -0.64749118358209
C         0.36439462681251   -3.46669207602439   -0.59896272077016
C         2.77753076928884   -1.17004964815173   -1.82139692977226
C         2.39871293201710   -0.00559550707728   -2.57308459286726
C         2.77783726214323    1.15963178754396   -1.81356065987666
C         3.40284372350397    0.71256695810587   -0.59181644293279
C         3.41270984525074   -0.71805307359126   -0.59683541697696
C         1.96128323605625    2.27981743561524   -1.80900559449088
C         0.73243519897173    2.27928166858376   -2.56714837964714
C        -0.25854245102835    2.99250598019171   -1.81397869892320
C         0.37231500181655    3.45110513140578   -0.57942018079790
C         1.73559808546816    3.00764826116429   -0.58656844145644
C        -1.57104398680408    2.58431605933667   -1.82864882865223
C        -1.93766441879682    1.41791673007923   -2.56362583008864
C        -2.93239388278767    0.69387465941682   -1.81048289502041
C        -3.18738618224480    1.40613248168957   -0.60048412706561
C        -2.49630815453043    2.75364258960555   -0.64139123109270
C        -2.94039200613813   -0.69953059080366   -1.82967959037200
C        -1.94542273266027   -1.41727191416970   -2.58689554811398
C        -1.56732478512235   -2.58243346611776   -1.82504732736430
C        -2.33111928490362   -2.58507194661036   -0.61098365514927
C        -3.18076724967245   -1.42419314224971   -0.61425855443441
C        -0.98964140197911   -0.72139087726898   -3.30966931629366
C        -0.98929397671779    0.72022026117825   -3.30862339691691
C         0.37528632790539    1.16319899460017   -3.31279012435629
C         1.22382982598509   -0.00205508558156   -3.31430316699551
C         0.38312019836685   -1.16381650020402   -3.30943449731433
Cl       -1.94015087430767    0.01519210664451    5.24733689547355
Cl       -3.70102213812635    4.08838750708647   -0.94222392820631
Cl        2.75539710859920   -4.80256148559735   -0.96285398132771
63
 energy: -142.097379470319 gnorm: 0.001420346498 xtb: 6.4.1 (a3dbbd7)
C        -1.29779315841210    0.01072219255057    3.53897196609395
C        -0.37017347356227   -1.16362028232247    3.31516727793289
C         0.98132374064635   -0.71193400869233    3.29199713908670
C         0.98840614756357    0.72933628441543    3.29622701496087
C        -0.36491679698427    1.18361258357974    3.31455481480207
C         2.34395876601713   -2.57634647882316    0.59698683311374
C         3.15901771519423   -1.42027595913125    0.58443212693628
C         2.93770329398143   -0.68657189086468    1.81530902063586
C         1.94927182699469   -1.40258890979994    2.56715098892888
C         1.57687177055483   -2.56065056227482    1.79506446302494
C         3.18916804665229    1.42121165909757    0.59128546214784
C         2.34781643781412    2.58264777899760    0.59411674256874
C         1.59293424360626    2.58504005401070    1.82151056280911
C         1.96136737568263    1.42136839121389    2.57644298434572
C         2.95107850665185    0.69787075881307    1.81814252604053
C        -0.35718605916111    3.43340879477477    0.59481015021233
C        -1.72997792360582    2.99670888353377    0.61479064718017
C        -1.95459045143344    2.30112753015164    1.79142412282310
C        -0.71938191305649    2.28172590342834    2.57206013344555
C         0.26822434755403    3.00011328922301    1.81856222497302
C        -3.38906971673384    0.71060294847181    0.56570066535693
C        -3.39213883237365   -0.72186336471778    0.56559735060447
C        -2.76952490630244   -1.15244275341345    1.79282415823942
C        -2.41516333097559    0.02279198142825    2.55150571706553
C        -2.77361969713305    1.14168803637269    1.82170611375044
C        -1.72659156353892   -2.99238995427389    0.57592830246712
C        -0.35854867452083   -3.43265750881189    0.57304650853382
C         0.25174175575404   -2.99037885555662    1.81595561668807
C        -0.72581916560361   -2.26635132259319    2.56333803805720
C        -1.96647601688588   -2.27532007676027    1.79768263741972
C        -0.23901299466862   -3.00044614211381   -1.80451295092482
C         0.75635429880648   -2.27936542434488   -2.56375247453252
C         1.98126999099061   -2.29690967871135   -1.83656170085008
C         1.85550140673732   -3.22113904945420   -0.64725453680973
C         0.36390824728168   -3.46572502190950   -0.59886035701376
C         2.77722208500567   -1.16960917701201   -1.82144918103328
C         2.39890195331984   -0.00548620286307   -2.57349600347596
C         2.77820823644919    1.15969194428708   -1.81385885164765
C         3.40327165674052    0.71261911646449   -0.59207667190954
C         3.41276031149353   -0.71786801402736   -0.59694799751532
C         1.96157617930512    2.27978195839224   -1.80917100801764
C         0.73259643022744    2.27909464590176   -2.56719285966061
C        -0.25833691840230    2.99225800105756   -1.81395600799873
C         0.37256049431231    3.45090211003132   -0.57943638310429
C         1.73583054311323    3.00747962161548   -0.58662657729385
C        -1.57082451416323    2.58402073781893   -1.82858695296715
C        -1.93747482559438    1.41768376353580   -2.56357647332043
C        -2.93222669805977    0.69365036506806   -1.81046042147558
C        -3.18716644286819    1.40586835901068   -0.60047762750284
C        -2.49609728565809    2.75336162370985   -0.64135819669092
C        -2.94044444192622   -0.69974187304655   -1.82973594149427
C        -1.94553084706176   -1.41744304759970   -2.58710449523812
C        -1.56763315909516   -2.58261621328789   -1.82529106935947
C        -2.33148891536839   -2.58542954457963   -0.61107478409480
C        -3.18091276231098   -1.42441067001639   -0.61435285567223
C        -0.98968186111255   -0.72152114438342   -3.30989110976495
C        -0.98917872070576    0.72009407862454   -3.30872503041756
C         0.37537272010645    1.16310732303766   -3.31294155146131
C         1.22398038877955   -0.00203631334841   -3.31468070583573
C         0.38306069645506   -1.16382928730178   -3.30980811108968
Cl       -1.93980112102341    0.01501639232718    5.24746661613962
Cl       -3.70080638322026    4.08806517272168   -0.94222545509046