63
 energy: -142.066767335126 gnorm: 0.140837619732 xtb: 6.4.1 (a3dbbd7)
C        -1.32333194775417    0.00617886347970    3.59125188963251
C        -0.38909456310608   -1.27772716531095    3.58793274117145
C         0.98734837171535   -0.72675165446744    3.28582848483634
C         0.97037352147027    0.69420630050098    3.25749094477592
C        -0.37633960723915    1.14742685553706    3.29074190055216
C         2.33092254703306   -2.58746567485154    0.56610397604514
C         3.16875994483946   -1.41579758165486    0.56774606192583
C         2.91978889080344   -0.69314490348597    1.79074016083681
C         1.93018806170321   -1.40549148670748    2.54814074589443
C         1.57476788296703   -2.59634073810083    1.79100274817011
C         3.18328087896891    1.41909085132624    0.57258499213333
C         2.33432229320876    2.58580968143883    0.57559918777772
C         1.57332139543398    2.57095369604789    1.79851755002390
C         1.94352282881158    1.40414426944103    2.54285112768194
C         2.93804115459266    0.69543633516321    1.79366637265872
C        -0.36752716666001    3.44413435035873    0.58029879258012
C        -1.74013210357057    3.00741588983283    0.58054459941955
C        -1.97818665379860    2.28654468588757    1.80361199533287
C        -0.73393250395930    2.25581684802015    2.55761528373596
C         0.24647420110131    2.98080949443068    1.80023381740862
C        -3.39591089216029    0.72883802558845    0.57533866561121
C        -3.37932885665645   -0.70504006359254    0.57786353554246
C        -2.74934612856665   -1.12865052488571    1.82052481704193
C        -2.40026274086307   -0.01382700939334    2.55826017594831
C        -2.77435746218519    1.16021035149421    1.80187148511327
C        -1.70577977915925   -3.00504292266898    0.57191390059864
C        -0.34657433486683   -3.46193150719564    0.56452064530943
C         0.25810980605866   -3.00738238851431    1.79111395103090
C        -0.74203335365356   -2.29289841924391    2.55243835495534
C        -1.91196172287597   -2.27950749485726    1.81757326885181
C        -0.23558165862281   -3.01371296632646   -1.83961821271520
C         0.75175047781152   -2.28700579367404   -2.59867644532734
C         1.98089777627659   -2.28868303835222   -1.84308617931945
C         1.74918768154887   -3.01946296828987   -0.62050040464920
C         0.38088379041600   -3.46658963937948   -0.62079308111870
C         2.79204993046375   -1.16413556659148   -1.83875967224219
C         2.41002754086118    0.00666527739579   -2.59106683151125
C         2.78807241943814    1.16926264052202   -1.83130610074559
C         3.40298548527550    0.72369088805355   -0.60835037131266
C         3.40110069057525   -0.71955382898331   -0.60923004493565
C         1.96912615256614    2.29475463280888   -1.82840259178522
C         0.74474441569639    2.29528025280401   -2.58515694980539
C        -0.24988429155059    3.01642431380723   -1.82795956514323
C         0.36353023978106    3.45499162487799   -0.59844520421847
C         1.73735095077191    3.01278425815446   -0.60243935985793
C        -1.56944867307335    2.59059487249377   -1.83048045584010
C        -1.94787757007795    1.42311330884846   -2.58910001301826
C        -2.94122296022124    0.70465889669871   -1.83002690890673
C        -3.17947337159538    1.42642572884929   -0.60816005298080
C        -2.33307692209202    2.59081264516620   -0.60600270171083
C        -2.93172079240255   -0.68656028280689   -1.82266620418654
C        -1.94059925011627   -1.40887980593779   -2.58138532694875
C        -1.55636984787224   -2.57670213587000   -1.82754179967090
C        -2.29848528094837   -2.57416283302738   -0.59738768824741
C        -3.15456863482430   -1.39758782868201   -0.59434922362650
C        -0.98936986995949   -0.71482485845558   -3.31408037280858
C        -0.99159024528376    0.72723605185279   -3.31429029098428
C         0.38014149579772    1.17201579903766   -3.31523274930469
C         1.22728121177112    0.00778684511203   -3.31823795360647
C         0.38205649969615   -1.16057927312445   -3.31917058806611
Cl       -2.09995733548554    0.29360223981566    5.20530702406437
Cl       -0.35034641589922   -2.11046483688082    5.19906768498811
Cl       -4.21380563818434    1.73163837822936    2.73865265426341
63
 energy: -142.090800223090 gnorm: 0.062976625793 xtb: 6.4.1 (a3dbbd7)
C        -1.31843485529759    0.00060069798506    3.59089592952206
C        -0.38546552517209   -1.28376083062166    3.58553817979719
C         0.98908747710626   -0.72939693339528    3.28338832469648
C         0.97036173786496    0.69199811819763    3.25167034157880
C        -0.37554030695160    1.14191387828461    3.28092480873446
C         2.33118444366389   -2.58759396941210    0.56719764585966
C         3.16953415875604   -1.41483737511392    0.56831553255088
C         2.92308508449721   -0.69354773493878    1.79035574535347
C         1.93231308577933   -1.40752521314755    2.54685313384478
C         1.57698631440581   -2.59803331798597    1.79053333813402
C         3.18597546959054    1.41945673608681    0.57192232821085
C         2.33971848103092    2.58764819365763    0.57402096738203
C         1.58022574874489    2.57482046034897    1.79732390086321
C         1.94707066253161    1.40482219480147    2.54137616423031
C         2.94007467490367    0.69585265166159    1.79350089204113
C        -0.35440285576854    3.45282091983886    0.57850767189788
C        -1.72572085676942    3.00566194060088    0.58112535817929
C        -1.96761629036146    2.31468231524197    1.80712229956944
C        -0.72858336920147    2.25580558810619    2.54230498114751
C         0.25771371439056    2.99084960946026    1.79647111114288
C        -3.38968465538933    0.71779282418838    0.56144516151300
C        -3.36656242024534   -0.70647923858335    0.56932226886484
C        -2.73370761531699   -1.12853960593507    1.81283840336385
C        -2.38812423412623   -0.02458617867076    2.55529049974449
C        -2.85902754470756    1.19239657847306    1.85657413775211
C        -1.70611629920837   -3.00969466740949    0.56983719660737
C        -0.34636571830250   -3.46402953813209    0.56319154979415
C         0.25888047509438   -3.01059412330479    1.79059110997326
C        -0.73971462204718   -2.30068784122402    2.55160426471367
C        -1.90980944595437   -2.28914559667222    1.81744004762691
C        -0.23501902822237   -3.01586144318413   -1.84129235839467
C         0.75240808503883   -2.28809298142089   -2.59871571129620
C         1.98089875372402   -2.28960275166087   -1.84237081160263
C         1.74896626093301   -3.01932067563713   -0.62094007703958
C         0.38129620644564   -3.46733640117026   -0.62168476962539
C         2.79237310913404   -1.16321224660114   -1.83802977271879
C         2.41075067230777    0.00628735470761   -2.59069304188671
C         2.78938285953170    1.16989015375995   -1.83180603906813
C         3.40428596240423    0.72413009316941   -0.60862124093500
C         3.40170462705090   -0.71915220314853   -0.60954349117924
C         1.97248256816988    2.29533457804187   -1.82982378988687
C         0.74596438857901    2.29635397707436   -2.58507698132017
C        -0.24504992444587    3.01777794603339   -1.82895713415257
C         0.37159613135909    3.45987952303231   -0.60169471026700
C         1.74343129778807    3.01485813030671   -0.60440121672255
C        -1.56795642414302    2.58867970304357   -1.82842056068048
C        -1.94675782254292    1.42020930307503   -2.58866159737799
C        -2.94220911058975    0.69940289395196   -1.83680256002831
C        -3.16966250205460    1.41665145587588   -0.61365418764849
C        -2.32682760365050    2.58904344185056   -0.60828943014359
C        -2.93378960950270   -0.69352730003338   -1.82937269618679
C        -1.93990439355079   -1.41330424781576   -2.58536418915924
C        -1.55581331286576   -2.58085972029807   -1.83101562325827
C        -2.29929048797723   -2.57912885452621   -0.60161240299160
C        -3.15523725231026   -1.40546743514736   -0.60455464057903
C        -0.98841232462871   -0.71695244583999   -3.31531504111707
C        -0.99047740271115    0.72560808176503   -3.31395074553225
C         0.38073618523924    1.17123003898953   -3.31502677875808
C         1.22749656021345    0.00780072288163   -3.31762629653563
C         0.38260822776000   -1.16148765587059   -3.31913669012921
Cl       -2.09380908230831    0.29011231638050    5.20789309776784
Cl       -0.34982002243891   -2.10802545424159    5.19979354640250
Cl       -4.33075054310565    1.77226152203318    2.81233083867937
63
 energy: -142.097580130224 gnorm: 0.015564560086 xtb: 6.4.1 (a3dbbd7)
C        -1.32063422389726   -0.00182924628027    3.58902219224486
C        -0.38320978287480   -1.28487386283232    3.58479757981791
C         0.99111150327721   -0.73206140850661    3.28050638493452
C         0.96873761355662    0.68945534506878    3.24509384624011
C        -0.37725812703242    1.13553810998136    3.27542671428550
C         2.33279921329855   -2.58869265696220    0.56704552656554
C         3.17170192526121   -1.41506408373101    0.56798227129586
C         2.92718374691526   -0.69546984861443    1.78932332192703
C         1.93553666777174   -1.41049320594355    2.54571184811282
C         1.58104638481774   -2.60103589275422    1.78953233143070
C         3.18956897502957    1.41901561386927    0.57088051582052
C         2.34463545345752    2.58837715281804    0.57277402474533
C         1.58255156663921    2.57311402209987    1.79484112248320
C         1.95017183300347    1.40328658835275    2.53966425920335
C         2.94187187524902    0.69486469757129    1.79269149848219
C        -0.34934206566379    3.44919551048206    0.57641790478356
C        -1.72192810804644    2.99588619753770    0.58358369445136
C        -1.96126953969562    2.31593621531528    1.80195400153758
C        -0.73407952710806    2.24670053584497    2.52849876550670
C         0.26045869373485    2.98804992838926    1.79176022429405
C        -3.39586822134542    0.71793145197619    0.55808767038618
C        -3.35532575330458   -0.69685775668993    0.56446907034403
C        -2.71840662174409   -1.11602782660315    1.80763422980333
C        -2.38995467034071   -0.02396148219605    2.55684434340259
C        -2.94365550162759    1.22109183607715    1.90670401127076
C        -1.70289879085861   -3.00978718597606    0.56786367427460
C        -0.34389417674464   -3.46525980116494    0.56099489324013
C         0.26161464864193   -3.01388290255089    1.79028176896093
C        -0.73414336488412   -2.30176830883010    2.54881012393905
C        -1.90260187782135   -2.28598452237207    1.81384596141457
C        -0.23260887624318   -3.01834009402685   -1.84352671337423
C         0.75486940776859   -2.28976221022169   -2.59986494649066
C         1.98274627498432   -2.29104005518643   -1.84278209249518
C         1.75073261145257   -3.02006119309233   -0.62268513961678
C         0.38397018311235   -3.46940255572068   -0.62367155437406
C         2.79416901401652   -1.16298688857628   -1.83799213160642
C         2.41330888447350    0.00515259395483   -2.59102167235548
C         2.79226403096760    1.16968780890186   -1.83273630057082
C         3.40725703464166    0.72362280017294   -0.60921913758672
C         3.40401012083643   -0.71984585275614   -0.61058241302008
C         1.97705554001727    2.29514540184595   -1.83137915562252
C         0.74813618403713    2.29620050217716   -2.58512517395886
C        -0.24003683949970    3.01746085873483   -1.83043947057775
C         0.37662065284173    3.45945625867812   -0.60383468079755
C         1.74915098437711    3.01643686189006   -0.60625974042516
C        -1.56620342544072    2.58613673958584   -1.82430668014963
C        -1.94344920738753    1.41721481234482   -2.58657784200493
C        -2.93777040438460    0.69674963561395   -1.83445387341247
C        -3.16900229546456    1.41297136279537   -0.61159015161632
C        -2.32634679362000    2.59059752392768   -0.61102350805188
C        -2.93161152858658   -0.69695657625624   -1.83114181467509
C        -1.93866724272056   -1.41688370364853   -2.58885285218986
C        -1.55358656043005   -2.58383953828613   -1.83343970574719
C        -2.29709172291983   -2.57970689889927   -0.60361770003385
C        -3.15229419537328   -1.40575938919457   -0.60862308593198
C        -0.98636663601590   -0.71926293563360   -3.31671456055245
C        -0.98795320920646    0.72391110594284   -3.31359172201338
C         0.38317215239023    1.16962342938804   -3.31539523303712
C         1.22941908407519    0.00723986388746   -3.31740673240376
C         0.38454770570150   -1.16277979071640   -3.31943190174632
Cl       -2.09210879398871    0.30362346725666    5.20538125906458
Cl       -0.33491449634235   -2.11839693130875    5.19272106062958
Cl       -4.42300742356367    1.81125033481214    2.87118778286369
63
 energy: -142.097976736217 gnorm: 0.010456033497 xtb: 6.4.1 (a3dbbd7)
C        -1.32197091782422   -0.00137809962195    3.58836568024193
C        -0.38421905566979   -1.28240011610498    3.58082527067939
C         0.99147880229421   -0.73180538818468    3.27808297929123
C         0.96875624999427    0.68927677800640    3.24180908041401
C        -0.37706590924643    1.13390401144354    3.27412902789134
C         2.33444906224186   -2.58978792067714    0.56660289997821
C         3.17327927730864   -1.41576016933285    0.56764875875667
C         2.92906817402014   -0.69655259023061    1.78893814364634
C         1.93690142172490   -1.41147400361496    2.54534035438545
C         1.58288129439990   -2.60245665495528    1.78889336209681
C         3.19155825329722    1.41875216415510    0.57021849121312
C         2.34603494552247    2.58811412852340    0.57191510845927
C         1.58213560518612    2.57127123150238    1.79289650286913
C         1.95164580913263    1.40256384153033    2.53822575191291
C         2.94311824820893    0.69413030747003    1.79193829513343
C        -0.35055501255875    3.44410958547609    0.57504744013378
C        -1.72543128716243    2.99184632840049    0.58451946200393
C        -1.96344129488130    2.30891208144725    1.79939681985544
C        -0.73890257060979    2.24239513815675    2.52549311044383
C         0.25887279013551    2.98327690218618    1.78922237024750
C        -3.40721053758540    0.72278466414938    0.56212415960791
C        -3.35480739114885   -0.69145219953456    0.56357968818240
C        -2.71565031146197   -1.10927063641128    1.80627866803953
C        -2.40041164259088   -0.02009974166436    2.56344773344663
C        -2.96864622150515    1.22734354411387    1.92010058342493
C        -1.69997239966317   -3.00787327693654    0.56559434075492
C        -0.34195517577048   -3.46602636208744    0.55952172198576
C         0.26317243220203   -3.01577244454879    1.78989604458239
C        -0.73267424550069   -2.30013772241483    2.54535421530530
C        -1.89895896809824   -2.28013095853069    1.80898925441565
C        -0.23068870174261   -3.01963431707208   -1.84503522865771
C         0.75703859534911   -2.29086682927442   -2.60098648143089
C         1.98472755678695   -2.29195097224712   -1.84338961788817
C         1.75277115425600   -3.02110613541258   -0.62367400046234
C         0.38615860879846   -3.47098241062576   -0.62502266044238
C         2.79586639856820   -1.16336147118220   -1.83824899987268
C         2.41524311063263    0.00445780901282   -2.59144839883974
C         2.79410183232865    1.16942171479098   -1.83337298552196
C         3.40931593409494    0.72318603342221   -0.60969097437534
C         3.40580607102259   -0.72050004991980   -0.61105618866278
C         1.97895252915707    2.29486279127960   -1.83225335832010
C         0.74917452924719    2.29549336534337   -2.58543837818246
C        -0.23876465908220    3.01651541685298   -1.83138643572274
C         0.37705158238901    3.45757288013088   -0.60447676124446
C         1.75056162085900    3.01649903894304   -0.60712389572074
C        -1.56583685461242    2.58546138564943   -1.82323589573654
C        -1.94136072799015    1.41572798891208   -2.58469799068814
C        -2.93519651883859    0.69655746306306   -1.83088934714098
C        -3.17404570472526    1.41464944518443   -0.60925244372356
C        -2.32898690761731    2.59267976504284   -0.61305051497200
C        -2.92939255078208   -0.69683973443342   -1.83090363788499
C        -1.93736003926941   -1.41759199510570   -2.59041990931509
C        -1.55176256617740   -2.58446102967229   -1.83503989583151
C        -2.29448112541595   -2.57794818778070   -0.60477529430867
C        -3.14968555993906   -1.40335631157515   -0.60821389032874
C        -0.98446525211385   -0.72013457178498   -3.31737819016833
C        -0.98626624954504    0.72310322801708   -3.31303964875602
C         0.38487078829885    1.16864319525116   -3.31587529711214
C         1.23116299479438    0.00665520363911   -3.31770182130888
C         0.38644140556737   -1.16366202758068   -3.32010987963449
Cl       -2.06914219291192    0.28432772203948    5.21871663480596
Cl       -0.35145234739142   -2.10043190204613    5.19600532029660
Cl       -4.43890621621665    1.82356103919109    2.88311693907106
63
 energy: -142.098069557039 gnorm: 0.008256043993 xtb: 6.4.1 (a3dbbd7)
C        -1.32638936546634    0.00006551596921    3.59440516835130
C        -0.38576039802898   -1.28411963089443    3.58294605091530
C         0.98977258448065   -0.73282198173328    3.27658507720390
C         0.96701317464661    0.68788966907357    3.24086839751523
C        -0.37843403548953    1.13113126570204    3.27347334568033
C         2.33601343054373   -2.59122672651167    0.56634325843990
C         3.17425648708622   -1.41654653389439    0.56799377706961
C         2.92961859853599   -0.69791914740933    1.78937751524916
C         1.93664726025120   -1.41262385824718    2.54520080788113
C         1.58442185398247   -2.60413119985616    1.78826728095123
C         3.19240522473864    1.41816976946600    0.57100638070378
C         2.34608773819843    2.58729230910908    0.57235946723207
C         1.58029632127097    2.56846695135473    1.79208650597975
C         1.95113336836372    1.40066124512679    2.53828680466256
C         2.94284555449996    0.69291781881340    1.79252142306017
C        -0.35263426723195    3.43821186614934    0.57377253373284
C        -1.73013827654043    2.98770533086960    0.58488626722031
C        -1.96615341833144    2.29922653972569    1.79544721237441
C        -0.74487084804866    2.23654742976660    2.52240931495052
C         0.25602106565931    2.97712673440135    1.78677743117263
C        -3.41901272601134    0.72844698317463    0.56687843446228
C        -3.35339142223168   -0.68572822470407    0.56321270083485
C        -2.71199296202443   -1.10156209065536    1.80586718380188
C        -2.41154955859617   -0.01491827713007    2.57217010845523
C        -2.99126317550169    1.23264804218014    1.93199259589367
C        -1.69661031444563   -3.00499660539214    0.56384177253678
C        -0.34005075532944   -3.46683987208359    0.55838457791368
C         0.26476934734056   -3.01747244768589    1.78943567793211
C        -0.73060846701586   -2.29739899944611    2.54210020216515
C        -1.89457605652087   -2.27279946545073    1.80450572426505
C        -0.22899499644225   -3.02107811260415   -1.84637293454330
C         0.75903356330663   -2.29201365639554   -2.60187084083512
C         1.98651477974436   -2.29284049472416   -1.84366337960276
C         1.75469599841345   -3.02242488402789   -0.62444830068049
C         0.38814463297215   -3.47280900645693   -0.62615467980374
C         2.79716659109492   -1.16362436285797   -1.83780858671100
C         2.41685297172970    0.00395311866784   -2.59112856586657
C         2.79541918417549    1.16927024624195   -1.83297833289351
C         3.41055767411824    0.72278246122633   -0.60892839048533
C         3.40704587617022   -0.72109000132648   -0.61067551436343
C         1.98032603351688    2.29467129619289   -1.83224160588579
C         0.74997170303647    2.29483516726231   -2.58537845302769
C        -0.23789359933605    3.01570959589222   -1.83234155112010
C         0.37680871400520    3.45569611684950   -0.60470595911654
C         1.75109518924421    3.01628557553678   -0.60690250214940
C        -1.56582269235295    2.58527308933123   -1.82289942360995
C        -1.93929019784335    1.41418688190369   -2.58273656528004
C        -2.93262707779915    0.69627500016265   -1.82708503784212
C        -3.17945700077412    1.41659682845452   -0.60716887229608
C        -2.33234251130492    2.59543880902173   -0.61618598550871
C        -2.92708399822485   -0.69663650055940   -1.83043958752105
C        -1.93607806927402   -1.41831229482036   -2.59189328568517
C        -1.55010759264961   -2.58505970413381   -1.83646732809119
C        -2.29138268598239   -2.57569209063531   -0.60536951589895
C        -3.14616165354748   -1.40046230708016   -0.60683964104957
C        -0.98253953179697   -0.72097780079969   -3.31776278594243
C        -0.98467371494070    0.72235018106902   -3.31243810460963
C         0.38646570224557    1.16777102807889   -3.31610882934481
C         1.23279290725594    0.00615282660255   -3.31758865558816
C         0.38829939880247   -1.16454227891881   -3.32060269916256
Cl       -2.07301582674161    0.32548344812271    5.21774223927408
Cl       -0.32114069022536   -2.13358186035254    5.18136072864256
Cl       -4.44751508120970    1.83586123705150    2.88972613930990
63
 energy: -142.098251586480 gnorm: 0.004438187443 xtb: 6.4.1 (a3dbbd7)
C        -1.32403930462378   -0.00084683662635    3.59288677565000
C        -0.38536287909750   -1.28413626321104    3.58262254203057
C         0.99042970976066   -0.73237425135759    3.27813821136833
C         0.96798443935371    0.68843916922650    3.24224297758886
C        -0.37736682371782    1.13184492289573    3.27370759990217
C         2.33519728911912   -2.59062719206892    0.56680736681803
C         3.17336979368430   -1.41605844491478    0.56829551676753
C         2.92892869955013   -0.69724456945084    1.78980477464897
C         1.93665883329827   -1.41219511465593    2.54619169333286
C         1.58355022850658   -2.60335900975580    1.78891530774721
C         3.19150895190376    1.41863470242376    0.57114808382475
C         2.34518050430946    2.58764413404381    0.57249345632600
C         1.58044384504164    2.56960602171901    1.79271491935108
C         1.95116311838489    1.40150491095873    2.53883767648990
C         2.94263244243594    0.69355050703399    1.79279238201361
C        -0.35253004390745    3.43969139028976    0.57404513323018
C        -1.72921524252507    2.98868859922170    0.58411909809338
C        -1.96479071843274    2.29910197047837    1.79513114433452
C        -0.74299514719648    2.23784358158453    2.52350560309871
C         0.25644686192350    2.97868785772790    1.78738001898839
C        -3.41457913951655    0.72714912834559    0.56549644917448
C        -3.35288457509510   -0.68741918255542    0.56282609263244
C        -2.71205784027381   -1.10358621328279    1.80526620425051
C        -2.40831855548765   -0.01651678294170    2.57002144009210
C        -2.98080728738552    1.22988588606991    1.92645476346322
C        -1.69751476569510   -3.00569749616749    0.56424334178155
C        -0.34074019659744   -3.46696041335098    0.55927589862325
C         0.26418760358152   -3.01734143799765    1.79015114007375
C        -0.73166554577796   -2.29805228569371    2.54316609143950
C        -1.89559238220441   -2.27434554763924    1.80523258067495
C        -0.22987616082233   -3.02064249471697   -1.84577283407475
C         0.75798863822524   -2.29151639513745   -2.60135841385596
C         1.98547508489016   -2.29233739640931   -1.84322677064465
C         1.75372564341528   -3.02186804709264   -0.62378696685372
C         0.38718756344746   -3.47228054704940   -0.62545357998546
C         2.79605043493743   -1.16326488218712   -1.83754379490614
C         2.41567330910534    0.00439094662514   -2.59094349517282
C         2.79421459547221    1.16959953479197   -1.83277805413403
C         3.40936886862617    0.72321754381711   -0.60880487280030
C         3.40590334514491   -0.72058752268849   -0.61035492706950
C         1.97909039380555    2.29499703093888   -1.83205658784502
C         0.74913401093558    2.29527687554109   -2.58553853664157
C        -0.23881893192160    3.01628954101145   -1.83240824882035
C         0.37616110196677    3.45662745324520   -0.60466788646179
C         1.74999728509523    3.01643702577217   -0.60670095448254
C        -1.56639050650833    2.58599010671339   -1.82405953266986
C        -1.94030183352729    1.41483876724321   -2.58368572802905
C        -2.93376065115301    0.69633568128309   -1.82857516241799
C        -3.17743682207941    1.41600941080717   -0.60843521168087
C        -2.33164862642080    2.59507387020901   -0.61628163632711
C        -2.92803490578875   -0.69661016137308   -1.83107035587048
C        -1.93670148089287   -1.41807593997086   -2.59177726308019
C        -1.55094876690499   -2.58485937762463   -1.83631547745089
C        -2.29214977121843   -2.57625741681825   -0.60527801170629
C        -3.14662130538189   -1.40115354078769   -0.60717360531238
C        -0.98337294804761   -0.72055450059879   -3.31769761808315
C        -0.98565000838593    0.72280538325552   -3.31299294824234
C         0.38547886501433    1.16829155653332   -3.31619928428215
C         1.23181000584911    0.00649293376346   -3.31761078775181
C         0.38739415249304   -1.16417200864937   -3.32046194977306
Cl       -2.06621613698767    0.30829072795428    5.22063583274042
Cl       -0.33632159053556   -2.12166522510048    5.18727752535700
Cl       -4.43469476299603    1.83221928811289    2.88222904583621
63
 energy: -142.098283728375 gnorm: 0.002553340342 xtb: 6.4.1 (a3dbbd7)
C        -1.32365993181336   -0.00130402658379    3.59296994018727
C        -0.38541536381125   -1.28429935444953    3.58271017439064
C         0.99072827523875   -0.73251783180544    3.27906070341933
C         0.96827651744100    0.68831817196770    3.24306413547400
C        -0.37704741701057    1.13148608680392    3.27353430559998
C         2.33496398000464   -2.59035796462271    0.56697282689780
C         3.17300385813281   -1.41575668729636    0.56845063449169
C         2.92863931366794   -0.69702130843739    1.79006427550010
C         1.93671526068021   -1.41220246136716    2.54671314669333
C         1.58333632469182   -2.60315573274760    1.78912997545689
C         3.19105061239203    1.41886877087509    0.57133281582616
C         2.34464770592406    2.58777892742365    0.57268582328902
C         1.58035913321366    2.56990940051677    1.79310659470589
C         1.95109515322613    1.40163328013183    2.53925799073113
C         2.94245589528688    0.69377602821812    1.79304192389302
C        -0.35257066554764    3.43986665313232    0.57412701713596
C        -1.72891953625274    2.98825724166385    0.58371088822513
C        -1.96366792366358    2.29703389728262    1.79379019882065
C        -0.74254026358548    2.23738213727237    2.52323482291670
C         0.25646640867302    2.97888280577206    1.78741113438425
C        -3.41315070852973    0.72681766265901    0.56517289134262
C        -3.35202149844065   -0.68772148799942    0.56254598065668
C        -2.71132280528907   -1.10384430506693    1.80487662883801
C        -2.40796227225461   -0.01709954195495    2.56992002840986
C        -2.97944733898157    1.22987309634738    1.92600367039094
C        -1.69752792506538   -3.00588913439236    0.56431775934103
C        -0.34076461079828   -3.46721429293611    0.55963218970500
C         0.26420277550209   -3.01762207397524    1.79051155066671
C        -0.73182957053005   -2.29813316998309    2.54337364820778
C        -1.89559640631584   -2.27463633500019    1.80525959584908
C        -0.23009507324564   -3.02052253967961   -1.84559346154385
C         0.75766521040243   -2.29125943936071   -2.60113529581317
C         1.98516664536856   -2.29204223190594   -1.84306251965297
C         1.75345953997645   -3.02158041610624   -0.62359171785566
C         0.38697564622381   -3.47213351414940   -0.62524939163778
C         2.79560655112786   -1.16293614266132   -1.83737468416525
C         2.41516980272280    0.00471149138533   -2.59078303357836
C         2.79364432514229    1.16988472415171   -1.83258369913721
C         3.40878856253737    0.72352988325149   -0.60864475424591
C         3.40540482744104   -0.72024231005533   -0.61017140670317
C         1.97849438066515    2.29521719846961   -1.83187925841626
C         0.74864495889317    2.29553041517897   -2.58552993842867
C        -0.23933119830508    3.01656140016397   -1.83254267682986
C         0.37575638732364    3.45703500579225   -0.60466439102856
C         1.74941538118684    3.01656156901192   -0.60649853096559
C        -1.56691209036445    2.58636601572156   -1.82469961210751
C        -1.94082426865456    1.41499981051285   -2.58406279507019
C        -2.93416570646863    0.69616281570854   -1.82890923180345
C        -3.17679278978352    1.41557124130638   -0.60886862440301
C        -2.33167716841151    2.59505043434358   -0.61674090589127
C        -2.92837186130656   -0.69678281317148   -1.83136540826289
C        -1.93696747671442   -1.41816820230277   -2.59190679262533
C        -1.55120236536891   -2.58490402146160   -1.83640997478420
C        -2.29218906815008   -2.57645423612237   -0.60527151881240
C        -3.14649989508572   -1.40145433757939   -0.60721570954286
C        -0.98367987414929   -0.72043260719757   -3.31763758968226
C        -0.98614115460804    0.72299210398379   -3.31324358077813
C         0.38500527540659    1.16854263981977   -3.31621277654968
C         1.23139743828713    0.00674619619814   -3.31755303631509
C         0.38706629258580   -1.16396546045050   -3.32036212280697
Cl       -2.06356938350848    0.30467201970214    5.22182031407644
Cl       -0.34140685267445   -2.11954430841393    5.18839987847334