63
 energy: -142.098296560406 gnorm: 0.000099985356 xtb: 6.4.1 (a3dbbd7)
C        -1.32414004443547   -0.00164546129200    3.59321287899950
C        -0.38549618993312   -1.28464104169740    3.58307849316733
C         0.99068726572131   -0.73283569059655    3.27941284308151
C         0.96809268049978    0.68804632154100    3.24336931404432
C        -0.37734408089977    1.13103422279289    3.27349379974962
C         2.33501932228066   -2.59018039352025    0.56694442598689
C         3.17300282288681   -1.41554879563398    0.56846484574407
C         2.92851588093581   -0.69687308486868    1.79007092580715
C         1.93656050709427   -1.41217347059058    2.54658290602631
C         1.58334078509849   -2.60307515996889    1.78906894602150
C         3.19082777885696    1.41901009938249    0.57140609026392
C         2.34452351235564    2.58792857856730    0.57281343067678
C         1.58026760479954    2.56998857393369    1.79333608812232
C         1.95077645985469    1.40162102364812    2.53938137867861
C         2.94222687518832    0.69390649385494    1.79310602076516
C        -0.35258071678921    3.44027103024533    0.57428566106745
C        -1.72853556311652    2.98787866873784    0.58348355347803
C        -1.96264567917933    2.29571287035475    1.79271247312755
C        -0.74214357463570    2.23694775417633    2.52285588665128
C         0.25647400282382    2.97927990769318    1.78758157212222
C        -3.41301439961457    0.72607090272470    0.56479427604530
C        -3.35213252101502   -0.68813048640526    0.56270152313966
C        -2.71174725461552   -1.10441465302349    1.80517611552079
C        -2.40813555629004   -0.01800910019376    2.57011137599158
C        -2.98103370815025    1.23093053325586    1.92698110953656
C        -1.69767193514177   -3.00614834436138    0.56444522151393
C        -0.34074025384098   -3.46711881288716    0.55954960932900
C         0.26421087578403   -3.01750849630269    1.79036704642913
C        -0.73179134698521   -2.29834130813209    2.54347658459191
C        -1.89591891586748   -2.27538845324404    1.80569112283113
C        -0.22995246198617   -3.02037614856960   -1.84555262710746
C         0.75776518097425   -2.29110599972351   -2.60109028092597
C         1.98529538819343   -2.29187238425330   -1.84308788202468
C         1.75355067605149   -3.02139635806641   -0.62362299747865
C         0.38705995333128   -3.47191649858334   -0.62528779823071
C         2.79572426826156   -1.16274831795376   -1.83739015945318
C         2.41516724211110    0.00490674071839   -2.59072877078745
C         2.79355976521705    1.17005640487104   -1.83247353119042
C         3.40867218294811    0.72373627423842   -0.60858431318315
C         3.40542562653335   -0.72003368580281   -0.61014489743864
C         1.97829944361563    2.29530725743179   -1.83169626382360
C         0.74843936467154    2.29561647150658   -2.58532609279709
C        -0.23962950103620    3.01657650717714   -1.83238239018844
C         0.37555802342746    3.45715331873030   -0.60461865639705
C         1.74926784629208    3.01668191489826   -0.60638778879620
C        -1.56727820551624    2.58628468520266   -1.82478581166248
C        -1.94118085238487    1.41501134263411   -2.58432274892558
C        -2.93444330757697    0.69598908937948   -1.82908949564388
C        -3.17697390145254    1.41518573723918   -0.60899558226212
C        -2.33194289487262    2.59463454064400   -0.61666630704961
C        -2.92847400946127   -0.69699258519956   -1.83132313166810
C        -1.93696212609693   -1.41824667548748   -2.59178002887848
C        -1.55110642651121   -2.58491909174143   -1.83629909873673
C        -2.29230599034732   -2.57667309155400   -0.60524305667559
C        -3.14676925231083   -1.40183351279496   -0.60733932026435
C        -0.98372716592531   -0.72044540934141   -3.31756105568515
C        -0.98626202065495    0.72298020588438   -3.31318737775278
C         0.38486256512593    1.16863873873051   -3.31607847598076
C         1.23136149242604    0.00690945372424   -3.31743907793971
C         0.38706866489620   -1.16382212679893   -3.32025554679103
Cl       -2.06464595537877    0.30574093014825    5.22126608003722
Cl       -0.34054814929642   -2.12105560104306    5.18809159841252
Cl       -4.42140013476765    1.83828360732746    2.87647356009694
