62
 energy: -137.537102382776 gnorm: 0.000060697559 xtb: 6.4.1 (a3dbbd7)
C        -1.29978082089785    0.00487454456662    3.53987138685393
C        -0.37328775104815   -1.17064168516601    3.32171642272292
C         0.97792888888465   -0.71740581264600    3.29109502436300
C         0.97663521244076    0.72507763569397    3.28747474455726
C        -0.37235811700052    1.17869209850617    3.31800528017941
C         2.33222468571215   -2.57207119608601    0.59105001288413
C         3.17867977258469   -1.41334575004479    0.59350989454794
C         2.94402506196291   -0.69171493223646    1.81756338929074
C         1.94933304779576   -1.41268533753200    2.57308476220618
C         1.57508833522710   -2.57215089552567    1.81740075074521
C         3.17694465694252    1.41676579373745    0.58577885164467
C         2.33403703089952    2.58657266621194    0.58762678023112
C         1.57598779410316    2.58155334632929    1.81185484979038
C         1.94904801775136    1.41854068308667    2.56628151587763
C         2.94016889907470    0.69666080075426    1.81309060340147
C        -0.36206812921338    3.45158515165344    0.58971222223681
C        -1.73577190039802    3.00748053802720    0.59363467276207
C        -1.97209160906925    2.29846902179896    1.81623074853760
C        -0.73521969993386    2.28078888234735    2.57156064453028
C         0.25174895154477    3.00142019057828    1.81284895622196
C        -3.39637031446182    0.72148132571566    0.58035074078978
C        -3.39372407755270   -0.71468077329594    0.57926955733350
C        -2.77219515018308   -1.14679279029652    1.81418485677441
C        -2.42128953849641    0.00411536049901    2.56553555728095
C        -2.77127170623859    1.15314178596973    1.81025201388039
C        -1.73361965704998   -2.99880421173393    0.60057832447606
C        -0.36533407067630   -3.43642840722085    0.59449328870087
C         0.25024893674256   -2.99100098660548    1.81608558161447
C        -0.73667330521864   -2.27345205859095    2.58000099131611
C        -1.97532018876994   -2.29105736860216    1.82343163919986
C        -0.25097345008198   -3.02285750353055   -1.81876780649377
C         0.79879636169425   -2.45212394486205   -2.74555785720297
C         1.98368383997063   -2.29445816012344   -1.81814860308425
C         1.73280054741919   -2.98352133159617   -0.59735252012784
C         0.35821118624918   -3.42627092623686   -0.59602640290174
C         2.77864985275394   -1.16828460905807   -1.81259158923473
C         2.41112228510970    0.00769210859982   -2.58003625593455
C         2.78197280809386    1.16453404922404   -1.82215628368404
C         3.39570566661155    0.72045495996942   -0.59422278239888
C         3.39358866634644   -0.72006186645189   -0.59223362169111
C         1.96963801900720    2.29826102667257   -1.81738267618022
C         0.74052194157134    2.30090981675611   -2.57389424931076
C        -0.24898756405383    3.02319654152703   -1.81883677969852
C         0.36579142224288    3.46058573593887   -0.59006777974658
C         1.73889823814923    3.01356042640590   -0.59401805052930
C        -1.57202994793500    2.59278292734240   -1.81665624260690
C        -1.94975809982062    1.42615716660106   -2.57704615958233
C        -2.94467669325994    0.70259133210163   -1.82402827393804
C        -3.17421508995770    1.41785888657643   -0.59953202461008
C        -2.32881899272503    2.58915528342768   -0.59535455369657
C        -2.93493361170160   -0.69235527833545   -1.82689367900125
C        -1.95307745340087   -1.41198963280700   -2.58139790172100
C        -1.55690627726643   -2.57654772338067   -1.81003988641073
C        -2.31661982786676   -2.57339489720680   -0.59189533884748
C        -3.16697828528789   -1.40957843505176   -0.59686245531094
C        -0.97579913015959   -0.71432011873254   -3.29185443385786
C        -0.99185184260177    0.73436859594557   -3.29958752915782
C         0.37357131965038    1.17784657181851   -3.29974230352344
C         1.21048532193168   -0.00160394702700   -3.29146178823005
C         0.37393618259408   -1.14809541218995   -3.31511358320477
Cl       -1.94667457471373    0.00674968030318    5.26041380444317
Cl        1.19136897507298   -3.64206046706478   -4.09051564885358
