63
 energy: -142.079885411187 gnorm: 0.135628854918 xtb: 6.4.1 (a3dbbd7)
C        -1.29585809770389    0.00401118895665    3.54517689253707
C        -0.36796043462932   -1.17243305037605    3.30515820978008
C         0.98298838983527   -0.72191219207564    3.27512267938171
C         0.98156472667820    0.71960753568128    3.26971969810914
C        -0.37066843460465    1.17924059903467    3.30150764336582
C         2.33648296603916   -2.58548060331365    0.57950289353032
C         3.18657767574002   -1.41946403927647    0.57781419519059
C         2.94957050639235   -0.69854930596759    1.80123308070154
C         1.95308396824160   -1.41752165468763    2.55613481575760
C         1.57961582989334   -2.57968580837377    1.80518673242103
C         3.18767024140451    1.40991878522763    0.57593180000620
C         2.33807592116844    2.57402574447607    0.57591940981122
C         1.57683795432701    2.56605672107525    1.79975339071644
C         1.95304946465436    1.40835201077487    2.55205927518980
C         2.95072023087345    0.68875745016373    1.80098024572921
C        -0.36516779407368    3.42666371337356    0.57921714423118
C        -1.72924376763824    3.01648005769000    0.58287705261872
C        -2.09463355992581    2.46231283092052    1.94730853815858
C        -0.73027134402217    2.28553619303067    2.58224921102021
C         0.24829448349984    2.97593693112150    1.80334175266563
C        -3.37466967425340    0.70300551354290    0.57574930054980
C        -3.39003092747716   -0.73268815647906    0.56838248265369
C        -2.76818811332164   -1.16356142379097    1.78871572221350
C        -2.38904763706855    0.02437925876362    2.53264263719760
C        -2.74834472563595    1.12995086275151    1.81420011519069
C        -1.73481952350512   -3.00995345714269    0.57938225060336
C        -0.36149853481650   -3.44686666227317    0.58178847315895
C         0.25217194581416   -2.99475012292755    1.80551621994623
C        -0.72930832442940   -2.27346636839910    2.56467955448571
C        -1.97147545426586   -2.28746259170963    1.79868366133100
C        -0.24419850626392   -3.01431906333444   -1.82647673840836
C         0.74940205407495   -2.29291975825760   -2.58286291053874
C         1.97453700933417   -2.29239152843074   -1.82543977586922
C         1.74139873400736   -3.01127177410490   -0.59946235558356
C         0.36858334367966   -3.45436466613801   -0.59762914044760
C         2.79442417392884   -1.17031401259636   -1.82833550603033
C         2.41574661888024   -0.00512369156855   -2.58546959716668
C         2.79806943075341    1.16104826420258   -1.83045397172065
C         3.41356646771945    0.71553904943849   -0.60565027142670
C         3.41126633561149   -0.72579612454708   -0.60436594395851
C         1.98256115248497    2.28538932455247   -1.82964816243281
C         0.75350030257848    2.28551308199782   -2.58573232036207
C        -0.23508280213456    3.00436687409655   -1.82344140492918
C         0.37359850932028    3.44286488622179   -0.60220138863872
C         1.74684322376492    3.00246743943424   -0.60372642363492
C        -1.55566653231806    2.56818250386052   -1.80941223575869
C        -1.93859434646944    1.40592010794080   -2.57168095880615
C        -2.93551210457882    0.68461262535792   -1.82146846772098
C        -3.16898901542976    1.39767486975662   -0.59605965548237
C        -2.30435127723071    2.57332623923171   -0.58497549467516
C        -2.94114405309208   -0.70773319324488   -1.83440725641731
C        -1.94505174577217   -1.42387954875747   -2.59102123506710
C        -1.56548890447542   -2.59170746585215   -1.83211639425372
C        -2.32839595515909   -2.59312664323360   -0.60918315818311
C        -3.17773883494341   -1.43218193772331   -0.61434027474195
C        -0.98775846759569   -0.72638522820754   -3.31322849837523
C        -0.98659864719709    0.71557045430270   -3.30737103326374
C         0.38544609985482    1.16109326139683   -3.31071431261235
C         1.23106807703669   -0.00470839638716   -3.31198800126459
C         0.38446650889097   -1.17000629330740   -3.31255499443923
Cl       -1.95494402230001   -0.00808767739961    5.23350834621500
Cl       -3.13453400437008    3.62205440029917    2.87428256883422
Cl        0.35435531375138   -4.54158976047796    2.73983184917435
63
 energy: -142.104095121464 gnorm: 0.057451731034 xtb: 6.4.1 (a3dbbd7)
C        -1.30116150870554    0.00927138040247    3.54458471628867
C        -0.37336050969061   -1.16258545519789    3.29303871137298
C         0.98312341496243   -0.71743283206394    3.27061167343398
C         0.98097107024331    0.71998007791883    3.26650205325345
C        -0.37244769095056    1.18067112741455    3.29952257531836
C         2.33848757397934   -2.57111053728102    0.57821838966055
C         3.19677612616067   -1.41042532293597    0.57502922111946
C         2.95998488818707   -0.69053524723607    1.79749012597299
C         1.95631379650801   -1.41031085774453    2.54427010376105
C         1.60445456909798   -2.57754414944024    1.80764084505569
C         3.19069448995095    1.41469273842616    0.57388896199584
C         2.33877222714897    2.57668063437520    0.57492800414882
C         1.57731092489591    2.56750636423035    1.79892042595853
C         1.95490520999330    1.41144141646155    2.55039214754850
C         2.95631573125150    0.69487709253565    1.79947225850814
C        -0.36523214831911    3.42739488453565    0.57907430608702
C        -1.73019780926586    3.01804683167506    0.58265444916213
C        -2.09636569951024    2.46496447405947    1.94695982117727
C        -0.73177231451634    2.28690351212679    2.58136040078880
C         0.24783182284892    2.97771303358395    1.80278050042830
C        -3.37728114568807    0.70686141985510    0.57474414599090
C        -3.39219482051267   -0.72866507303925    0.56685909768636
C        -2.77370413047932   -1.15702517521606    1.78878889822269
C        -2.39466284062315    0.02786543934922    2.53239551493424
C        -2.75205521691537    1.13426187831777    1.81256956703624
C        -1.73164523809172   -3.00031272763519    0.57345021220532
C        -0.36752624198386   -3.43969042544073    0.56872618690102
C         0.25774966086802   -3.08914533097330    1.86097561116528
C        -0.73990668565034   -2.26019747456387    2.56287202881750
C        -1.96918886610577   -2.27773228335267    1.79463230051826
C        -0.24749225476462   -3.01345472687318   -1.83279215218199
C         0.74813721260392   -2.29125848230471   -2.58364240406176
C         1.97458671491827   -2.29022167929338   -1.82522884938685
C         1.74314124220770   -3.00553188839457   -0.60211141334505
C         0.36374692777068   -3.44202876708073   -0.60251637418003
C         2.79715463848633   -1.16693830050472   -1.83037146493350
C         2.41677079499114   -0.00387832503727   -2.58648202461564
C         2.79888280316111    1.16349367708974   -1.83220126725548
C         3.41667247975717    0.72038807083562   -0.60797614316073
C         3.41733555044874   -0.72023372334302   -0.60785646940469
C         1.98256463557364    2.28653915699884   -1.83059783652360
C         0.75324349927855    2.28604781710722   -2.58616972436514
C        -0.23499375701397    3.00459767969760   -1.82360073287309
C         0.37335231231319    3.44333040056006   -0.60250649733641
C         1.74669365063382    3.00360937699710   -0.60432979617169
C        -1.55611853852078    2.56904747035736   -1.80996019631108
C        -1.93932358954879    1.40735318941739   -2.57236724823868
C        -2.93715838653492    0.68731774192625   -1.82310949108330
C        -3.17061883687272    1.40088378489364   -0.59808618194807
C        -2.30504423143181    2.57488801670035   -0.58597961150970
C        -2.94466322997212   -0.70520548454692   -1.83704310078862
C        -1.94777534635112   -1.42164529382772   -2.59302555837594
C        -1.57072838199394   -2.59106163174981   -1.83733601870005
C        -2.33166072677813   -2.59017543358883   -0.61586585414242
C        -3.18013273584948   -1.42854478558209   -0.61691961348589
C        -0.98876834101737   -0.72476356916678   -3.31384504772882
C        -0.98715523140451    0.71648247942453   -3.30821461680693
C         0.38539499285678    1.16148205484962   -3.31106579870673
C         1.23089616412285   -0.00383181210660   -3.31297752773461
C         0.38369894314841   -1.16848500115795   -3.31303389916102
Cl       -1.95558274582787   -0.00658111922071    5.23456063495497
Cl       -3.13529174966366    3.62546431041759    2.87493458390214
Cl        0.35554897571782   -4.67334803832807    2.81650440140851
63
 energy: -142.110086919113 gnorm: 0.012917298985 xtb: 6.4.1 (a3dbbd7)
C        -1.29921271423885    0.00862405650963    3.53564057532970
C        -0.37428621082292   -1.16762202236516    3.28878055441082
C         0.98348211343049   -0.71778314496025    3.27194597347198
C         0.97945618912981    0.71759944159843    3.26117335243804
C        -0.37371100839678    1.18202121678290    3.29478429110144
C         2.33149936873694   -2.56532772078798    0.58145936808343
C         3.19424949594648   -1.40535743992637    0.57295226756994
C         2.95731717504772   -0.68680852165835    1.79312557623572
C         1.95064942210617   -1.41202530506538    2.53571343864853
C         1.60734234719567   -2.57475111350720    1.80616267024297
C         3.19257129510342    1.41963809972815    0.57169338250773
C         2.33905606885696    2.58063007982491    0.57274014051916
C         1.57661407082002    2.56937681503647    1.79659394431517
C         1.95423918107811    1.41416491980614    2.54741473279063
C         2.95566043292057    0.69832042614249    1.79617707522242
C        -0.36568063793522    3.43021697904661    0.57690419827840
C        -1.73150411522425    3.02191787228075    0.58051425387620
C        -2.09790238122612    2.46898136370355    1.94454427820308
C        -0.73303946360551    2.28892898671011    2.57836398584012
C         0.24682658250306    2.98083535219418    1.80010846219047
C        -3.37862204511744    0.71087858659922    0.57260311267945
C        -3.39149261542938   -0.72487248316481    0.56564730264827
C        -2.77277378558454   -1.15248838144433    1.78773083378192
C        -2.39666332383636    0.03142292474369    2.52905055194862
C        -2.75494098230527    1.13913618732623    1.80989340643932
C        -1.72063464661944   -2.99263142692750    0.57226247467410
C        -0.36830045929346   -3.44413985270701    0.56908880559695
C         0.26057040121979   -3.17287461193970    1.91004831981720
C        -0.74276603483564   -2.26419906065293    2.56775278309241
C        -1.95852794920636   -2.27038000887439    1.79353046653525
C        -0.24728417230648   -3.00562874107814   -1.82804113605538
C         0.74739280040694   -2.28669459514814   -2.58188948138141
C         1.97357515284538   -2.28688722851131   -1.82190540729024
C         1.74487238111350   -3.00524437846141   -0.60272260024523
C         0.36103203832741   -3.43799496117339   -0.59747280778129
C         2.79810245018547   -1.16267840022133   -1.83237425109913
C         2.41701196043202   -0.00103014469340   -2.58775577956132
C         2.79951627948674    1.16772137720757   -1.83458347658220
C         3.41878171446968    0.72527608858174   -0.61051922718148
C         3.41728736873706   -0.71554694134469   -0.60971235211760
C         1.98252549365525    2.28981302068435   -1.83277474821580
C         0.75289292365763    2.28913373113979   -2.58800526926831
C        -0.23523729838758    3.00720123683269   -1.82543087689023
C         0.37288174628902    3.44621847479837   -0.60465814907449
C         1.74633646594594    3.00683601919737   -0.60619308579024
C        -1.55691656653459    2.57239047309816   -1.81219954403906
C        -1.94022733021865    1.41082135488698   -2.57421795208919
C        -2.93862306153248    0.69148860508240   -1.82574927873546
C        -3.17213674022801    1.40522740752798   -0.60103489867625
C        -2.30616529415200    2.57850704807427   -0.58857583146312
C        -2.94640207147636   -0.70139344703315   -1.83922934075409
C        -1.94979773071857   -1.41837345077951   -2.59563272769234
C        -1.57161385392143   -2.58543846146918   -1.83702269402004
C        -2.32852327521264   -2.58480210052563   -0.61702141516346
C        -3.17929154474370   -1.42439069493050   -0.61840021161117
C        -0.98966552107967   -0.72152823932583   -3.31546630784931
C        -0.98757768239866    0.71920467852272   -3.30957620902837
C         0.38533694983348    1.16419371222615   -3.31237626190827
C         1.23064452590876   -0.00064808417893   -3.31476137060412
C         0.38340596512647   -1.16517859566436   -3.31339282022199
Cl       -1.94816562357461   -0.01296953529188    5.22644689568339
Cl       -3.13455043175632    3.63105852026680    2.87410546071825
Cl        0.36140830493546   -4.76993938403571    2.87588253776602
63
 energy: -142.110401005530 gnorm: 0.007861721366 xtb: 6.4.1 (a3dbbd7)
C        -1.29835809765834    0.00688670460216    3.53152679738692
C        -0.37350371033231   -1.17262718452140    3.29025693134694
C         0.98353972944696   -0.71863724997977    3.27427277371721
C         0.97852268534707    0.71621481926467    3.25879073314093
C        -0.37431443747871    1.18091333483669    3.29086742995182
C         2.32827237259081   -2.56725958257573    0.58348326852567
C         3.19014678531035   -1.40479608015684    0.57233726343043
C         2.95291007611460   -0.68680625863967    1.79143023834988
C         1.94732865331839   -1.41558342867508    2.53514989042110
C         1.60313030566077   -2.57604406600514    1.80588809845603
C         3.19223394367289    1.42093636364012    0.57096866762716
C         2.33877434536804    2.58220338461800    0.57183400127336
C         1.57555986415996    2.57000139777607    1.79540173986802
C         1.95277493006813    1.41472882536839    2.54586885172092
C         2.95351753734283    0.69847764678421    1.79455119374427
C        -0.36622709149013    3.43216822934691    0.57552538673519
C        -1.73233910646626    3.02431640531600    0.57904150483155
C        -2.09867698179313    2.47111185479413    1.94298850365931
C        -0.73369866267389    2.28890710281996    2.57588756287502
C         0.24593825151127    2.98218746168619    1.79857440996460
C        -3.37880403190055    0.71285249238073    0.57167501398424
C        -3.38945111010523   -0.72312831015789    0.56518231074100
C        -2.77017984062075   -1.15166669683056    1.78660433865746
C        -2.39641120867346    0.03263809388500    2.52689881484336
C        -2.75596910152097    1.14136564487859    1.80883807841479
C        -1.71581585673530   -2.99182482855233    0.57361119310884
C        -0.36705247545673   -3.45307588592157    0.57400463079449
C         0.26031898456975   -3.19428540724990    1.92200819043684
C        -0.74207716242001   -2.27321987442523    2.57383208425964
C        -1.95386570584267   -2.26949150290746    1.79475557549830
C        -0.24640843147051   -3.00181921626365   -1.82335095155373
C         0.74713629414824   -2.28404191513140   -2.57951403912050
C         1.97352064881653   -2.28586724263126   -1.82053325315828
C         1.74622595963809   -3.00742314956428   -0.60323709266285
C         0.36144493891389   -3.44088265460922   -0.59389428680763
C         2.79781654090517   -1.16123954936029   -1.83306011980739
C         2.41679653711803    0.00023455909119   -2.58835556078957
C         2.79963801290883    1.16941404365278   -1.83559145787016
C         3.41866708321549    0.72656627289234   -0.61127181553874
C         3.41565485440607   -0.71434852419292   -0.60981252753852
C         1.98254325475955    2.29148855081761   -1.83387756708768
C         0.75276232600304    2.29106374261961   -2.58917743535634
C        -0.23547601152126    3.00906713535898   -1.82670267864777
C         0.37258658972791    3.44818981227618   -0.60595255912843
C         1.74611201694665    3.00857869873376   -0.60711399910539
C        -1.55748985860954    2.57467958784416   -1.81372777236389
C        -1.94085836690846    1.41302288092111   -2.57559486469680
C        -2.93929210238098    0.69368116753411   -1.82702914512029
C        -3.17308875435481    1.40754585485305   -0.60230976234064
C        -2.30702206500805    2.58085325447495   -0.59013940078310
C        -2.94630361784346   -0.69942370880298   -1.83978974434413
C        -1.94980327914472   -1.41654053728704   -2.59604082830670
C        -1.57044309266822   -2.58242913351138   -1.83525691747958
C        -2.32525675959062   -2.58183067425558   -0.61519939774387
C        -3.17713376872291   -1.42219085379125   -0.61835885045075
C        -0.98977265086184   -0.71954717958224   -3.31573591808640
C        -0.98785575316043    0.72106071206038   -3.31056165202124
C         0.38523608872068    1.16595024093517   -3.31334714249019
C         1.23047685513206    0.00107445656411   -3.31562490593968
C         0.38336484296627   -1.16340515439299   -3.31273843363522
Cl       -1.94425701387184   -0.01818195218472    5.22358089709244
Cl       -3.13244792313184    3.63615386289954    2.87274926988671
Cl        0.36700481514178   -4.78676021505420    2.88665439549749
63
 energy: -142.110493190302 gnorm: 0.004594519475 xtb: 6.4.1 (a3dbbd7)
C        -1.29844471693625    0.00642139124703    3.52947408174441
C        -0.37294356731355   -1.17445063111680    3.29047211258612
C         0.98338555978039   -0.71838746109550    3.27591105662187
C         0.97805878570811    0.71588054088114    3.25817230826413
C        -0.37459380626254    1.18035851191316    3.28932564068782
C         2.32627912759301   -2.56872636580915    0.58425992819819
C         3.18752295827756   -1.40463758901179    0.57200190676914
C         2.95007885943016   -0.68698067281226    1.79045790526833
C         1.94510652068785   -1.41761173392421    2.53512665509215
C         1.59920093326002   -2.57580851140651    1.80489127252984
C         3.19188441789972    1.42103625631518    0.57092723788748
C         2.33866244451408    2.58260415123224    0.57178853982781
C         1.57499699781173    2.57015090731031    1.79523383912501
C         1.95199185910840    1.41503637272726    2.54553312978434
C         2.95234211065457    0.69823602712828    1.79404748345884
C        -0.36661004592389    3.43278807650231    0.57520534897810
C        -1.73278987325176    3.02498386925681    0.57862986271078
C        -2.09910361299612    2.47190132948644    1.94269358560204
C        -0.73408320940487    2.28900906456628    2.57535152698088
C         0.24543324720640    2.98267134780647    1.79827210359545
C        -3.37907571822186    0.71377995730099    0.57153028941387
C        -3.38817796905548   -0.72231243072364    0.56484482535077
C        -2.76852024352908   -1.15116420304691    1.78564716479833
C        -2.39643375639736    0.03323750045841    2.52585195124057
C        -2.75717459126807    1.14261538757605    1.80879714859724
C        -1.71307702291110   -2.99084500068961    0.57399557441879
C        -0.36595997197515   -3.45765278180841    0.57676508676126
C         0.26008432923453   -3.20287511152273    1.92651839418859
C        -0.74129490365129   -2.27814891527625    2.57702048530324
C        -1.95109822352958   -2.26841529171907    1.79517390543226
C        -0.24605104970024   -2.99999866480413   -1.82096119289606
C         0.74704736067224   -2.28284427344195   -2.57825179659762
C         1.97385331844956   -2.28583919467606   -1.82045882128017
C         1.74731205613422   -3.00895167380694   -0.60430719799800
C         0.36184550377710   -3.44221358063868   -0.59238701529878
C         2.79777996123719   -1.16095849993465   -1.83362698802344
C         2.41676583590002    0.00040855167489   -2.58870122065436
C         2.79974436012147    1.16970717064431   -1.83590478746218
C         3.41843358600157    0.72660685032370   -0.61134828724338
C         3.41486526067177   -0.71418936970247   -0.60978135109371
C         1.98256121038946    2.29171770001689   -1.83407602318982
C         0.75270275332194    2.29147707365928   -2.58945115127782
C        -0.23559129043421    3.00937458796729   -1.82695089029521
C         0.37240623889264    3.44862443703898   -0.60620494026845
C         1.74598638692233    3.00890477421706   -0.60717780008075
C        -1.55779969097491    2.57534190235882   -1.81423052888884
C        -1.94121398185195    1.41374804852108   -2.57618556946455
C        -2.93977516691873    0.69444030991874   -1.82762993179401
C        -3.17379075818440    1.40838751330588   -0.60276830526226
C        -2.30748796943520    2.58154860135497   -0.59063197190094
C        -2.94629818882723   -0.69876090174320   -1.84029606481049
C        -1.94984334424881   -1.41582064878437   -2.59650066185795
C        -1.56978405459402   -2.58117656269454   -1.83465344647112
C        -2.32332434582313   -2.57999155550393   -0.61419224684998
C        -3.17585595583722   -1.42108674133319   -0.61838277827409
C        -0.98977307413254   -0.71879217666725   -3.31589141068068
C        -0.98800337011241    0.72168707335026   -3.31108458884965
C         0.38520024989046    1.16643823143540   -3.31378011867381
C         1.23045170159656    0.00152490123604   -3.31611599189396
C         0.38341578456343   -1.16290050862294   -3.31258201326975
Cl       -1.94252384522961   -0.02073184854438    5.22268578168374
Cl       -3.13065550686822    3.63959149703370    2.87214844761235
Cl        0.37205519962440   -4.78781043659123    2.88790047235456
63
 energy: -142.110531355657 gnorm: 0.002559553693 xtb: 6.4.1 (a3dbbd7)
C        -1.29871428055907    0.00643777230481    3.52875466962896
C        -0.37273304481870   -1.17459916521869    3.28997764657460
C         0.98308931720927   -0.71788093536628    3.27667615750846
C         0.97787054284615    0.71599404962375    3.25856207254860
C        -0.37474348347053    1.18023235888823    3.28924671896623
C         2.32522703245464   -2.56905767159239    0.58429813690076
C         3.18657106358132   -1.40457673311573    0.57193961727962
C         2.94904492804414   -0.68708283555317    1.79010717769592
C         1.94396129392342   -1.41821850364889    2.53495755418532
C         1.59667291897817   -2.57457307717004    1.80371394314792
C         3.19166516633244    1.42067530622597    0.57117561792788
C         2.33863629271826    2.58240803102094    0.57206073917249
C         1.57482586098225    2.57005154052141    1.79552496690247
C         1.95173393805596    1.41517092106840    2.54586740448904
C         2.95202090427456    0.69798572270707    1.79421896653886
C        -0.36671875870160    3.43267461724363    0.57532240252605
C        -1.73287401720444    3.02480156137296    0.57865352281875
C        -2.09926262992384    2.47195071069265    1.94283064446584
C        -0.73427988099438    2.28909529985666    2.57560757197726
C         0.24525857547966    2.98270660875964    1.79850063751875
C        -3.37927665023073    0.71407686918841    0.57172661297451
C        -3.38772795302292   -0.72206414210097    0.56473041091426
C        -2.76801064618088   -1.15092679698096    1.78523232274660
C        -2.39653453610429    0.03339014385082    2.52562072583386
C        -2.75797261265537    1.14310079895476    1.80911491552460
C        -1.71208521271380   -2.98997058328548    0.57380421494420
C        -0.36547200519993   -3.45843538665391    0.57748648656015
C         0.26012761745833   -3.20557120254700    1.92779814394557
C        -0.74097326486123   -2.27958373433542    2.57786922361526
C        -1.94999587624395   -2.26753077447028    1.79513281153662
C        -0.24611263978412   -2.99955636723321   -1.82029830677633
C         0.74702065909041   -2.28273237769313   -2.57795460526762
C         1.97414961234923   -2.28625418458249   -1.82085279684562
C         1.74779935155196   -3.00954949364152   -0.60513122571461
C         0.36187204462612   -3.44216185401714   -0.59216100879609
C         2.79786335091002   -1.16120700111120   -1.83393190481397
C         2.41682699645877    0.00009473965553   -2.58874896016998
C         2.79979991836808    1.16940210532270   -1.83580615456843
C         3.41827346852056    0.72620491758155   -0.61112560385687
C         3.41478389370574   -0.71444328132622   -0.60971708320348
C         1.98259780911241    2.29133193559351   -1.83385728167458
C         0.75273550902258    2.29116308323598   -2.58927837782326
C        -0.23554048435921    3.00901066263674   -1.82676366602882
C         0.37239777622736    3.44832571901256   -0.60603371257128
C         1.74596627491506    3.00856643808123   -0.60691791324982
C        -1.55781472365256    2.57518710294013   -1.81420890114992
C        -1.94126994324142    1.41365553189336   -2.57621308231760
C        -2.93996382954643    0.69442912590131   -1.82774241863275
C        -3.17406844563189    1.40841199613272   -0.60280250690060
C        -2.30756857665864    2.58141463643374   -0.59062648819311
C        -2.94640557557975   -0.69879608988608   -1.84058903318147
C        -1.95001206463260   -1.41579107652681   -2.59683228331927
C        -1.56971547866370   -2.58103912799215   -1.83472526412441
C        -2.32279415782630   -2.57929888888092   -0.61390330729374
C        -3.17551286174670   -1.42076723854848   -0.61840909077752
C        -0.98977283080220   -0.71879689274392   -3.31589407597516
C        -0.98800411209862    0.72158790229913   -3.31116039071192
C         0.38523923380852    1.16625239498577   -3.31379016754568
C         1.23048701268077    0.00130755575953   -3.31621531499831
C         0.38346775272882   -1.16310029669368   -3.31268238955765
Cl       -1.94216056792066   -0.02172571142761    5.22272066597090
Cl       -3.12969806512326    3.64123168980971    2.87195070705315
Cl        0.37610518727089   -4.78288184689863    2.88532986591287
63
 energy: -142.110544177793 gnorm: 0.001461201101 xtb: 6.4.1 (a3dbbd7)
C        -1.29884946406608    0.00653736584876    3.52884837048958
C        -0.37283362017323   -1.17420831541502    3.28961431036393
C         0.98286538294783   -0.71765900143097    3.27676704148852
C         0.97786897785704    0.71616161769344    3.25914275917604
C        -0.37480426215623    1.18034161744006    3.28975136620555
C         2.32505779955027   -2.56868668882192    0.58405558412570
C         3.18684926279088   -1.40460128792894    0.57204644317600
C         2.94935810227949   -0.68710656721349    1.79022542396088
C         1.94384154184873   -1.41791006390703    2.53477224259574
C         1.59600396405594   -2.57346588369860    1.80305065345962
C         3.19166568547905    1.42037640620267    0.57137126571722
C         2.33867456419799    2.58210647455183    0.57226211984127
C         1.57492230251111    2.56989652073973    1.79580373974934
C         1.95182518791449    1.41515065879866    2.54627485074305
C         2.95221286674603    0.69788316111427    1.79454838179763
C        -0.36661954654081    3.43240209727885    0.57550399519111
C        -1.73274875916139    3.02449118662577    0.57876819108526
C        -2.09920623346438    2.47171828482386    1.94295027567288
C        -0.73429569782813    2.28910669137635    2.57592707957276
C         0.24533003526226    2.98259025339949    1.79876822761868
C        -3.37934595018164    0.71401603620277    0.57188271078834
C        -3.38791362310522   -0.72213738944116    0.56475413224252
C        -2.76835848686898   -1.15094060771329    1.78531853300155
C        -2.39664110573056    0.03329732951185    2.52581457430837
C        -2.75810586304084    1.14303808648229    1.80929390194926
C        -1.71237981277469   -2.98973794376280    0.57356450936539
C        -0.36562413833836   -3.45746485423009    0.57703504054156
C         0.26030741020966   -3.20561060215753    1.92777597381872
C        -0.74121807009095   -2.27899724069024    2.57750244003455
C        -1.95023917497929   -2.26733098043439    1.79503801849994
C        -0.24631275577275   -2.99986986475928   -1.82061054950811
C         0.74701601741445   -2.28312805090884   -2.57821612026052
C         1.97421375163290   -2.28663759510559   -1.82114325315180
C         1.74773076243594   -3.00951174463293   -0.60531899214330
C         0.36164746359692   -3.44176577771997   -0.59247097913828
C         2.79793136916010   -1.16151614548765   -1.83395264013672
C         2.41689473988129   -0.00021378813778   -2.58863550973302
C         2.79981642309391    1.16908736739004   -1.83561494736903
C         3.41828757740239    0.72590467319543   -0.61094464512779
C         3.41501323376495   -0.71470637576783   -0.60969445734806
C         1.98265129549650    2.29099582464154   -1.83363807847676
C         0.75280953404579    2.29082820821022   -2.58906999553222
C        -0.23542639822631    3.00870390710627   -1.82657140392350
C         0.37249424892020    3.44800488865103   -0.60584456943729
C         1.74603400077312    3.00822572987653   -0.60672078835018
C        -1.55769104708484    2.57491415540309   -1.81405633542351
C        -1.94116837952188    1.41339345135457   -2.57603984530455
C        -2.93992239627384    0.69421991741078   -1.82763391951736
C        -3.17401808234991    1.40819380988154   -0.60271408560904
C        -2.30744877138572    2.58114958364251   -0.59049716916415
C        -2.94652018637956   -0.69900896742815   -1.84062712943846
C        -1.95016736725081   -1.41600371165482   -2.59690454587591
C        -1.56995164488947   -2.58135261462272   -1.83496705196405
C        -2.32316901930424   -2.57947617352527   -0.61404594849939
C        -3.17579405852422   -1.42089900378217   -0.61843453343055
C        -0.98979582199634   -0.71905245812111   -3.31583131729347
C        -0.98793882137998    0.72131904930856   -3.31102562617220
C         0.38530196409686    1.16596594685545   -3.31363523499593
C         1.23052919623617    0.00099539808413   -3.31610905891389
C         0.38347628315520   -1.16342144582377   -3.31279612535771
Cl       -1.94249709273172   -0.02177197281221    5.22300475999678
Cl       -3.12968343096184    3.64126579104757    2.87195441180223