72
 energy: -177.493302903829 gnorm: 0.000161298964 xtb: 6.4.1 (a3dbbd7)
C        -1.32806398730746   -0.00203725106370    3.55757694630604
C        -0.38720198895015   -1.17944928477807    3.30884812321896
C         0.95171781945127   -0.72009111122016    3.26693077151876
C         0.95542509981686    0.71667769241829    3.27055485848591
C        -0.39235486193752    1.17866461522514    3.31327833137813
C         2.32326773129448   -2.62455678467224    0.58879958160971
C         3.40600654183171   -1.54761489067584    0.63997729593019
C         2.93139660077431   -0.70663406240200    1.82049608761730
C         1.93283653468453   -1.41017986561167    2.53638076856457
C         1.55749180945325   -2.57981392925398    1.78881667563849
C         3.17009506829190    1.40193031716428    0.57145884866833
C         2.30749855939852    2.56684648264651    0.56382565253598
C         1.55246175008140    2.55805652922595    1.78895508496436
C         1.92450330469263    1.40010993099001    2.53983594501317
C         2.92188455560868    0.67536590273443    1.79023736386609
C        -0.38013760633046    3.43396788989337    0.58747689509665
C        -1.75590045565540    2.99838680028375    0.59213406126296
C        -2.00002533361107    2.29592525376508    1.81242170170512
C        -0.75845394506459    2.27483000009294    2.56903238140646
C         0.22953551200388    2.98858278613378    1.80185821880592
C        -3.41921345596197    0.71663575484790    0.57297820128813
C        -3.41720239181693   -0.71901456495310    0.57334931167829
C        -2.79232372478618   -1.15018526308914    1.80933626015751
C        -2.45027165192474   -0.00324336458256    2.55536625030564
C        -2.79559122085996    1.14851285652131    1.80597321208579
C        -1.75793819340757   -3.00945624636327    0.59467250249163
C        -0.38442626502705   -3.45375308562844    0.59021459544400
C         0.23008900112112   -3.00353881509222    1.80368041919429
C        -0.75698469003225   -2.28162113477337    2.56447923150506
C        -1.99282274979682   -2.29989594104219    1.81381318752299
C        -0.25696285694004   -3.00407634978357   -1.81705768154807
C         0.73485296021742   -2.29301769455588   -2.57077041652612
C         1.95415893172020   -2.30642581653624   -1.82793485017873
C         1.72242147762648   -3.01977071402977   -0.58485317690169
C         0.34904489629494   -3.45245154994274   -0.58748872406439
C         2.75913228871319   -1.16393387390452   -1.79206168313428
C         2.37502080519189    0.02153086684657   -2.55786731265227
C         2.77691069577700    1.14772449442972   -1.84113217655371
C         3.35713745501874    0.69696242669934   -0.61444759019083
C         3.39332657949049   -0.73350641207751   -0.62028825962720
C         2.09470744766448    2.47927056648348   -1.97280092723841
C         0.71325381212944    2.30481353679223   -2.60458790764258
C        -0.25609216425749    2.98656508577823   -1.82499659068259
C         0.35955569253786    3.42698767255872   -0.59544335722229
C         1.72295512331169    3.02376734832705   -0.59880008145870
C        -1.59289359618659    2.57562183067490   -1.82059525823497
C        -1.97604710303171    1.41793590996318   -2.58383128830537
C        -2.97349678420773    0.69621748693328   -1.83238053574080
C        -3.19998462980577    1.41273620905657   -0.60516916055288
C        -2.34331701070701    2.57597583189537   -0.60201177824326
C        -2.96214202066302   -0.69347690125003   -1.82993125790096
C        -1.96480864008973   -1.41182205504753   -2.58016737123618
C        -1.58461089668341   -2.58014222777109   -1.81393199850676
C        -2.33911948770398   -2.58257499416699   -0.60040530591517
C        -3.18983873492360   -1.41215561878792   -0.60207809493952
C        -1.00802318902283   -0.71682805251563   -3.30205475599205
C        -1.01526943186072    0.72521604667402   -3.30268208749461
C         0.35488608855346    1.17390961060786   -3.30934119358402
C         1.19821497708204   -0.00053165777691   -3.32510234162032
C         0.36753924153658   -1.15340503129132   -3.31086023793720
C        -1.86665884636802   -0.00651388696548    4.99616680432218
F        -0.88120476526744   -0.00703241149909    5.90058751811994
F        -2.62073105784080   -1.08346483760443    5.24101653113097
F        -2.62447391683102    1.06651357082356    5.24592928259339
C         2.94839233146790    3.48142444117388   -2.76285560858873
F         2.34010365585747    4.66726442149289   -2.89157823506174
F         3.21142111110791    3.04463640116514   -3.99846149103517
F         4.12379144082519    3.71087057210684   -2.16865747894645
C         4.79108561090773   -2.15762145872487    0.90691520385100
F         4.80912561035840   -2.88947330659171    2.02696734551068
F         5.17825711680565   -2.96055187075436   -0.08854113596362
F         5.73022550918962   -1.21654095839277    1.04193857991756
