72
 energy: -177.376487046175 gnorm: 0.263102327013 xtb: 6.4.1 (a3dbbd7)
C        -1.23626340000000    0.00000000000000    3.32997640000000
C        -0.38202640000000   -1.17575640000000    3.32997640000000
C         1.00015810000000   -0.72665740000000    3.32997640000000
C         1.00015810000000    0.72665740000000    3.32997640000000
C        -0.38202640000000    1.17575640000000    3.32997640000000
C         2.34433560000000   -2.60145750000000    0.59464210000000
C         3.19857260000000   -1.42570110000000    0.59464210000000
C         2.96246730000000   -0.69904370000000    1.83090550000000
C         1.96230920000000   -1.42570110000000    2.59495830000000
C         1.58028280000000   -2.60145750000000    1.83090550000000
C         3.19857260000000    1.42570110000000    0.59464210000000
C         2.34433560000000    2.60145750000000    0.59464210000000
C         1.58028280000000    2.60145750000000    1.83090550000000
C         1.96230920000000    1.42570110000000    2.59495830000000
C         2.96246730000000    0.69904370000000    1.83090550000000
C        -0.36750900000000    3.48258920000000    0.59464210000000
C        -1.74969350000000    3.03349030000000    0.59464210000000
C        -1.98579880000000    2.30683290000000    1.83090550000000
C        -0.74953540000000    2.30683290000000    2.59495830000000
C         0.25062270000000    3.03349030000000    1.83090550000000
C        -3.42570570000000    0.72665740000000    0.59464210000000
C        -3.42570570000000   -0.72665740000000    0.59464210000000
C        -2.80757400000000   -1.17575640000000    1.83090550000000
C        -2.42554760000000    0.00000000000000    2.59495830000000
C        -2.80757400000000    1.17575640000000    1.83090550000000
C        -1.74969350000000   -3.03349030000000    0.59464210000000
C        -0.36750900000000   -3.48258920000000    0.59464210000000
C         0.25062270000000   -3.03349030000000    1.83090550000000
C        -0.74953540000000   -2.30683290000000    2.59495830000000
C        -1.98579880000000   -2.30683290000000    1.83090550000000
C        -0.25062270000000   -3.03349030000000   -1.83090550000000
C         0.74953540000000   -2.30683290000000   -2.59495830000000
C         1.98579880000000   -2.30683290000000   -1.83090550000000
C         1.74969350000000   -3.03349030000000   -0.59464210000000
C         0.36750900000000   -3.48258920000000   -0.59464210000000
C         2.80757400000000   -1.17575640000000   -1.83090550000000
C         2.42554760000000    0.00000000000000   -2.59495830000000
C         2.80757400000000    1.17575640000000   -1.83090550000000
C         3.42570570000000    0.72665740000000   -0.59464210000000
C         3.42570570000000   -0.72665740000000   -0.59464210000000
C         1.98579880000000    2.30683290000000   -1.83090550000000
C         0.74953540000000    2.30683290000000   -2.59495830000000
C        -0.25062270000000    3.03349030000000   -1.83090550000000
C         0.36750900000000    3.48258920000000   -0.59464210000000
C         1.74969350000000    3.03349030000000   -0.59464210000000
C        -1.58028280000000    2.60145750000000   -1.83090550000000
C        -1.96230920000000    1.42570110000000   -2.59495830000000
C        -2.96246730000000    0.69904370000000   -1.83090550000000
C        -3.19857260000000    1.42570110000000   -0.59464210000000
C        -2.34433560000000    2.60145750000000   -0.59464210000000
C        -2.96246730000000   -0.69904370000000   -1.83090550000000
C        -1.96230920000000   -1.42570110000000   -2.59495830000000
C        -1.58028280000000   -2.60145750000000   -1.83090550000000
C        -2.34433560000000   -2.60145750000000   -0.59464210000000
C        -3.19857260000000   -1.42570110000000   -0.59464210000000
C        -1.00015810000000   -0.72665740000000   -3.32997640000000
C        -1.00015810000000    0.72665740000000   -3.32997640000000
C         0.38202640000000    1.17575640000000   -3.32997640000000
C         1.23626340000000    0.00000000000000   -3.32997640000000
C         0.38202640000000   -1.17575640000000   -3.32997640000000
C        -1.76086815247998    0.00000000000000    4.78849957557021
F        -0.76911826531252    0.00000000000000    5.67468926254662
F        -2.50968386795825   -1.06794314680471    5.04863888333743
F        -2.50968386795825    1.06794314680471    5.04863888333743
C         2.84103082519036    3.32439911178427   -2.62817407941587
F         2.23127406184888    4.50005340761388   -2.75037746012491
F         3.10404037880940    2.89718378306489   -3.85992609894427
F         4.01248672303644    3.55720929213525   -2.04303264409737
C         4.58877084110522   -2.05459160147071    0.86730597290559
F         4.59709252483521   -2.78118520641283    1.98125951001435
F         4.97417519512416   -2.85850196315549   -0.11965482382298
F         5.53562669678859   -1.13053295630600    1.00324569798425
72
 energy: -177.437216748793 gnorm: 0.164955838540 xtb: 6.4.1 (a3dbbd7)
C        -1.24789661142170    0.00063566816859    3.33582628887768
C        -0.36272496402502   -1.18908458848668    3.33953809370533
C         0.99379379225335   -0.72068282816945    3.32526191234363
C         0.99682679998050    0.72867280524038    3.32284610706014
C        -0.36470283488313    1.19160719745378    3.33871369612457
C         2.30591040496202   -2.59974937400797    0.59984165655278
C         3.25567066854132   -1.46044315694579    0.60719912743002
C         2.92667327943840   -0.68547646271398    1.83178068382004
C         1.95291484938717   -1.41801211710606    2.58567124289798
C         1.56769685389677   -2.59058177279276    1.82889404760376
C         3.18583014044812    1.41574064563120    0.58513026386242
C         2.32845722063626    2.58554059263731    0.60054779671075
C         1.57597383698749    2.59031993515994    1.83125299665457
C         1.95755812873302    1.42924563028357    2.59013446260011
C         2.93986012959649    0.70153417190092    1.81762303886146
C        -0.36996657192379    3.46419859931311    0.60284308570402
C        -1.74717889081864    3.01915445790775    0.59859313795835
C        -1.98071054302658    2.29716480695666    1.82140706724713
C        -0.74079979754284    2.29912508269953    2.58734886656178
C         0.24891581669244    3.02610720493341    1.82974512842628
C        -3.42602891861560    0.72242500762974    0.57761847206289
C        -3.42448158190311   -0.72504504985937    0.57728032014327
C        -2.80121589005123   -1.16920453377085    1.80443388230462
C        -2.44106959166536   -0.00138711463682    2.53348594507637
C        -2.80351869510927    1.16887499529676    1.80290864269854
C        -1.74284603465123   -3.02136312096174    0.59698798934852
C        -0.36797529669051   -3.47145115812755    0.59794079974313
C         0.24609583992254   -3.03080451409166    1.82797079596032
C        -0.74097263608710   -2.29983476666707    2.58780469275176
C        -1.97563386584070   -2.29856746397884    1.82203319623371
C        -0.24873130592718   -3.02321846424677   -1.82190948692663
C         0.74497646049123   -2.30173316913329   -2.58194546417062
C         1.97209609117958   -2.30606104969512   -1.82487038769536
C         1.72798994938666   -3.02127100159657   -0.58536518257553
C         0.35981319286782   -3.47532481403409   -0.58982297476084
C         2.78816860604695   -1.17570615756221   -1.82922955404551
C         2.40994340857099   -0.00533292910038   -2.59320847839299
C         2.81457517154439    1.13817117470146   -1.85356525682559
C         3.40548525290976    0.71321275530635   -0.61052479134303
C         3.40180573830216   -0.71954579127174   -0.62494210765752
C         2.01417110428014    2.33760838412266   -1.85613690357645
C         0.71814635376781    2.31401527111272   -2.58628466271263
C        -0.25920052571200    3.02425057096795   -1.81829385776748
C         0.36046441175060    3.46545043587214   -0.58407081591835
C         1.72226095769206    3.00964176732961   -0.56719670644163
C        -1.58664646440975    2.59369634369112   -1.82011440736313
C        -1.96138210908620    1.42305332459323   -2.58254363540419
C        -2.95584581888431    0.69589094286620   -1.82630587349499
C        -3.19407660888974    1.42004179227131   -0.59963761927782
C        -2.33963268921037    2.58994244985588   -0.59144720328127
C        -2.95324147964395   -0.69694369047125   -1.82743635529806
C        -1.95579590430410   -1.42018265496457   -2.58404716493471
C        -1.57589035291919   -2.59187761346072   -1.82093090625408
C        -2.33337722694546   -2.59289599370585   -0.59382662680348
C        -3.18954759049299   -1.42199426270737   -0.59927058120482
C        -0.99957967934768   -0.72166027584101   -3.31611402408529
C        -1.00411170814325    0.72604770126500   -3.31253827110241
C         0.36710279833419    1.17969481212450   -3.31528613973589
C         1.21857152113940    0.00238873920002   -3.32200848387477
C         0.37722721291411   -1.16605307379255   -3.31648189002292
C        -1.77402117097034    0.00164380314356    4.81355335776187
F        -0.77738575480536    0.00200644993484    5.70023525382050
F        -2.52170583202368   -1.07138704359808    5.06899770409916
F        -2.52274888143340    1.07389040271928    5.06821262704120
C         2.86512688633909    3.36139741925898   -2.65315694145839
F         2.24783504343494    4.53625976315896   -2.77218658211895
F         3.11912770622686    2.91974335108248   -3.88397745486313
F         4.03598238051291    3.58318039927725   -2.05901775351462
C         4.64240780118976   -2.08040112551959    0.88143724392939
F         4.64267384041738   -2.80460638465150    1.99888094091663
F         5.01219498237054   -2.87999608359142   -0.11630856394221
F         5.57546228728877   -1.13966138655423    1.01113522324109
72
 energy: -177.473848283395 gnorm: 0.090038457167 xtb: 6.4.1 (a3dbbd7)
C        -1.28157278358672    0.00120826023371    3.43562666337804
C        -0.33867290769056   -1.19298469314456    3.28873514707514
C         0.98309249715707   -0.71458681563193    3.29825912932396
C         0.99007397561291    0.72691629337287    3.29248525440962
C        -0.34233221983493    1.19737921952235    3.28660070219784
C         2.26429389204542   -2.59958396271691    0.59378622099529
C         3.34229745736371   -1.51032735488883    0.63239477320723
C         2.88727203477863   -0.67160967804800    1.83595124408928
C         1.94646863497159   -1.41314332536499    2.56448247480461
C         1.55462932435258   -2.57843283362957    1.81034095585700
C         3.17261084009958    1.40697915144302    0.58505083214038
C         2.31047675722987    2.56934859460813    0.60327340327525
C         1.57267763647714    2.58486153527419    1.82992054337219
C         1.95422314955347    1.43602515332631    2.57887506687978
C         2.92339446443111    0.70248229770160    1.80890669036947
C        -0.37384801517080    3.45582331638876    0.60755464951899
C        -1.74578314796503    3.00765365151199    0.59988616195529
C        -1.98119231388795    2.29574208031385    1.80894532232733
C        -0.73221985010186    2.29016254258347    2.55711834460088
C         0.24524822446264    3.02604663899384    1.81990599169133
C        -3.42132776751416    0.71904006684083    0.56476915606442
C        -3.42007848773354   -0.72060250457460    0.56432823928423
C        -2.78765336263528   -1.15502020164621    1.78668613289198
C        -2.45527936908591   -0.00276632479370    2.49320421036966
C        -2.79010497974390    1.15692154338259    1.78255114844011
C        -1.73986045725057   -3.00955582169458    0.59697993941244
C        -0.37145065908085   -3.46269937522482    0.59465921534618
C         0.23908453800925   -3.03260735325779    1.81402652921057
C        -0.73533901789706   -2.29123469894943    2.55646691487585
C        -1.97233255049040   -2.29652331756172    1.81053569663796
C        -0.24663024797163   -3.01001846224574   -1.81724549926427
C         0.74328137025900   -2.29794223689346   -2.56986891102284
C         1.96024114363580   -2.30454736538418   -1.82312687848123
C         1.70856737661469   -3.01198351901403   -0.58249408266135
C         0.35175262970644   -3.46528525001325   -0.59046693549866
C         2.77054587197879   -1.17056685501887   -1.81166642261540
C         2.39262342712616    0.00141295247028   -2.57249611024291
C         2.80204090143596    1.10218518691557   -1.84667425703335
C         3.36317230927394    0.69668497743997   -0.61093317207169
C         3.37732564902326   -0.70927843339736   -0.64839377195769
C         2.06002623460888    2.41407239024103   -1.91008091699902
C         0.67731444434639    2.28477343660205   -2.57016526408655
C        -0.26296572596309    2.99580739117162   -1.80827212367503
C         0.35448266196323    3.43859793579491   -0.57743762692568
C         1.69111598344687    2.99065138831381   -0.54109172560909
C        -1.59475041905029    2.58144905117591   -1.81498807426635
C        -1.96202992415914    1.41777447926280   -2.57544485391303
C        -2.95131057044076    0.69436996922325   -1.82353235069386
C        -3.18689157724604    1.41384621529015   -0.60384708415634
C        -2.33385447306382    2.57922330605290   -0.59405486730980
C        -2.94363501575928   -0.69305718196834   -1.82411495042855
C        -1.95017331832737   -1.41354739693299   -2.57310685132684
C        -1.57381363622490   -2.58087370359923   -1.81084151535648
C        -2.32395698089355   -2.58269853073830   -0.59688049335336
C        -3.17891040489530   -1.41361556595927   -0.60172622808831
C        -0.99713809595484   -0.71998258230652   -3.30101086031310
C        -1.01151046034733    0.71961991617008   -3.30315008097570
C         0.35079310656931    1.16328370570825   -3.29583153537516
C         1.20594862348179   -0.00311645509131   -3.31782937522235
C         0.37646414635456   -1.15646889839900   -3.30843634165712
C        -1.80056513556558    0.00151886169253    4.89167183287441
F        -0.78635934121120    0.00120716820225    5.76001937152372
F        -2.54514213584977   -1.08174608448316    5.12022798562149
F        -2.54619676527442    1.08347082253980    5.12007634374027
C         2.90239893938032    3.41538802573450   -2.68982354356846
F         2.27102546409493    4.58534651455639   -2.80170985943271
F         3.14392106626240    2.94661465603848   -3.91537745184682
F         4.06824697269717    3.61702119092016   -2.07469532585909
C         4.70510744948264   -2.11221559184729    0.89796244911946
F         4.68690153259489   -2.83340921212751    2.01881617399094
F         5.05212958814244   -2.90502080894676   -0.11547417809300
F         5.61875489187222   -1.14982362426678    1.02232128779909
72
 energy: -177.486199681471 gnorm: 0.049012914253 xtb: 6.4.1 (a3dbbd7)
C        -1.29920704151204    0.00064246596034    3.46950012002403
C        -0.35954675348949   -1.18853838368360    3.30704224188504
C         0.97104057539541   -0.71650930212777    3.29227931087467
C         0.97726363852253    0.72332446493357    3.29029568729330
C        -0.36286438083559    1.19138964259688    3.30692718407692
C         2.29055018019583   -2.61225227382343    0.59612353346286
C         3.36737740342082   -1.52880387324555    0.63589708096390
C         2.90833221983633   -0.68906270453200    1.83039897383386
C         1.94258477312825   -1.41375488139691    2.55751074931342
C         1.55616690528472   -2.58055735527627    1.80668711648782
C         3.16732174735248    1.40062501097230    0.57528804009104
C         2.30874107267160    2.56694008333272    0.58719052922363
C         1.56448509393004    2.57452056676664    1.81633168368086
C         1.94361677813858    1.42261458034931    2.56619631985808
C         2.92387478952472    0.69008536619017    1.79918221105511
C        -0.37878802502508    3.44711186231323    0.60094953475017
C        -1.75292850946075    3.00278153810458    0.59697104231712
C        -1.98903638580054    2.29124622190500    1.80934030991443
C        -0.74497551668584    2.28445578406976    2.56576630737855
C         0.23720103698218    3.01270059439291    1.81507411172319
C        -3.42771913931779    0.71781277668824    0.56391786510515
C        -3.42477277700387   -0.72176757273529    0.56316209784976
C        -2.79255317051517   -1.15416017940552    1.79080515222826
C        -2.45725147867213   -0.00338442871153    2.51664657421149
C        -2.79617345202502    1.15311215590918    1.78716180940798
C        -1.74687758941676   -3.00863143048776    0.59551380500146
C        -0.37733782524089   -3.46100060225348    0.59421874428121
C         0.23388238740024   -3.02223661151987    1.81224390116581
C        -0.74674427809555   -2.28698557028331    2.56408494062004
C        -1.97970219025184   -2.29475339285989    1.81086520168929
C        -0.25272071528767   -3.00925378827984   -1.81708886210490
C         0.73681842847101   -2.29657323457582   -2.56984258482089
C         1.95551904106789   -2.30771784202542   -1.82353987392060
C         1.71474300114921   -3.01811526677654   -0.58170238394961
C         0.34898477929192   -3.46170487231848   -0.58894096157093
C         2.76503568862473   -1.17309080021915   -1.80874780900377
C         2.38489539372586    0.00596155337854   -2.57391417592005
C         2.79916152919139    1.12465498188503   -1.85678467715591
C         3.35822921597092    0.69325517362311   -0.61714367005264
C         3.38860518664150   -0.72609000555540   -0.63748625122179
C         2.07150498376491    2.43788698142255   -1.93345479973666
C         0.69208978451727    2.30148749458119   -2.58701879612463
C        -0.26343927850284    2.99569790853000   -1.81438849361854
C         0.35374310508176    3.43514785597155   -0.58431063939763
C         1.70174200639643    3.00209902532736   -0.56540976573175
C        -1.59769308561576    2.58009081026415   -1.81663159253638
C        -1.96997543056144    1.41902233531987   -2.57887631855690
C        -2.96343296471061    0.69491383878420   -1.83040080412114
C        -3.19723115673660    1.41361870566684   -0.60758591977384
C        -2.34258058821835    2.57810227742058   -0.59680560283469
C        -2.95342398986326   -0.69367625491575   -1.83018632188304
C        -1.95711830334729   -1.41364471130835   -2.57679145236479
C        -1.57938441512138   -2.58085244695280   -1.81279758354565
C        -2.33066602396980   -2.58310287135677   -0.59895866621133
C        -3.18534185179874   -1.41435062901628   -0.60575866994941
C        -1.00357575248227   -0.71836283719180   -3.30190873937017
C        -1.01400654517971    0.72246338561530   -3.30107299178036
C         0.35218354993303    1.17193642914554   -3.30289096390696
C         1.19982683963586   -0.00014510499651   -3.32132249050493
C         0.37002188869584   -1.15524157993071   -3.30793331104347
C        -1.82138510288295    0.00186232855663    4.92723162651154
F        -0.81567693927324    0.00226353672260    5.80696063295358
F        -2.56840830615838   -1.07749211957501    5.17171617314866
F        -2.56962602028568    1.08016317099504    5.17059158469115
C         2.92089408967830    3.44827018279939   -2.71588132303075
F         2.30476533130661    4.62783924169235   -2.83625418753878
F         3.17444398333647    2.99713720502012   -3.94700845438922
F         4.09156309210846    3.66089131105222   -2.11029600343432
C         4.74526765751981   -2.13461886763826    0.90637784843724
F         4.75059395422273   -2.85992968559640    2.02766564571493
F         5.11407180391736   -2.93278788965616   -0.09741105908335
F         5.67016514034058   -1.18094561077812    1.03354318825476
72
 energy: -177.492263788637 gnorm: 0.020092248608 xtb: 6.4.1 (a3dbbd7)
C        -1.32124283744263   -0.00049405615258    3.52196348411011
C        -0.37904857530301   -1.18326812572872    3.31367772422364
C         0.95689895606609   -0.71880641079601    3.27759382051990
C         0.96207039862952    0.71826970769403    3.27998146477074
C        -0.38303400592620    1.18399771781353    3.31663107509714
C         2.31454627831036   -2.62293520689796    0.59358148074082
C         3.39699788247369   -1.54711997472561    0.64016234556972
C         2.92604553755104   -0.70449830563278    1.82405427379910
C         1.93616433793198   -1.41250326436140    2.54447201458137
C         1.55630588908814   -2.58042240528543    1.79631521230804
C         3.16495981424876    1.39701407418687    0.56903547453236
C         2.30580011225602    2.56417531775082    0.57026954063033
C         1.55474642574763    2.56127018465168    1.79871062735262
C         1.93011361349347    1.40669637224673    2.54890097280352
C         2.92165742600807    0.67728399546627    1.79014513626651
C        -0.38185523738200    3.43654490662440    0.59229894615021
C        -1.75718214727480    2.99747067775408    0.59326577373548
C        -1.99722577745251    2.29054538028046    1.81001207215274
C        -0.75594871685761    2.27700088778700    2.56933164497597
C         0.22991142978877    2.99623295224122    1.80662058714212
C        -3.42776463594394    0.71650977160230    0.56631799068165
C        -3.42477216334523   -0.72108920683847    0.56605958114889
C        -2.79480920022675   -1.15201631293143    1.79873237936037
C        -2.45582101309768   -0.00391819311344    2.53952503424533
C        -2.79897703018473    1.14926760832380    1.79545463168949
C        -1.75512355782904   -3.00820662686639    0.59408834900335
C        -0.38334149283904   -3.45635544655924    0.59197407609949
C         0.22948127272434   -3.00996872398089    1.80683518868411
C        -0.75585598981127   -2.28191114777438    2.56499736068883
C        -1.98839279576263   -2.29571911544185    1.81117171049083
C        -0.25738936084798   -3.00572182296928   -1.81673959658059
C         0.73299718073096   -2.29430881930455   -2.56977894539132
C         1.95245083868990   -2.30836046525637   -1.82563100897527
C         1.71981732660493   -3.02074916124401   -0.58255795143401
C         0.34716929571427   -3.45486103013738   -0.58765185544051
C         2.75958024602891   -1.17010713098843   -1.79973500525793
C         2.37717181120594    0.01429166135527   -2.56670473889981
C         2.78834093172028    1.14076550413644   -1.85381054382684
C         3.35461107088485    0.69251373834113   -0.61868825925840
C         3.39242800597468   -0.73540655130092   -0.62612777430801
C         2.08714357894514    2.46735457271249   -1.95995240969138
C         0.70607087854156    2.30948771380740   -2.60169083378770
C        -0.26098497356910    2.98989035739628   -1.82151657766395
C         0.35508572559948    3.42768823539948   -0.59197096926607
C         1.71346738601218    3.01367240845596   -0.58908821133247
C        -1.59767482878695    2.57670667954703   -1.81911084282038
C        -1.97658665299115    1.41867192949350   -2.58263492740113
C        -2.97404504977456    0.69535686512359   -1.83500279116903
C        -3.20347780602249    1.41268582947026   -0.60898708167178
C        -2.34677348629473    2.57573165290993   -0.60077404318341
C        -2.96230280229376   -0.69423147275008   -1.83323288950576
C        -1.96394239821962   -1.41304894798222   -2.57953175921206
C        -1.58470113265868   -2.58028323280040   -1.81378937320197
C        -2.33778923334246   -2.58290131396418   -0.60082205466856
C        -3.19076866095819   -1.41365816156737   -0.60633846910862
C        -1.00806413192379   -0.71698284084528   -3.30085649767433
C        -1.01585310682051    0.72430994404635   -3.29967817501762
C         0.35352462194945    1.17531067670548   -3.30693158011634
C         1.19638734009970    0.00050009520261   -3.32382190044957
C         0.36634539748599   -1.15353343117038   -3.30834145564247
C        -1.84649444698125    0.00094264336280    4.97165284586966
F        -0.84670784249089    0.00234545757456    5.85978830163301
F        -2.59610734755005   -1.07555056755791    5.22791609189767
F        -2.59724135731687    1.07692883924823    5.22525650187889
C         2.94164654699767    3.47752471505059   -2.74301825219527
F         2.33550486653379    4.66399927552361   -2.86957184935914
F         3.20542998121596    3.04090892168824   -3.97889530552874
F         4.11549784417225    3.70091432219832   -2.14380789858522
C         4.78345503058570   -2.15322011380886    0.91083106668425
F         4.80458586642097   -2.88197784795834    2.03250094349707
F         5.17071351534034   -2.95610671108132   -0.08481219414548
F         5.71731822677859   -1.20650558014569    1.04259097604633
72
 energy: -177.493177349362 gnorm: 0.007475440348 xtb: 6.4.1 (a3dbbd7)
C        -1.33124888287486   -0.00192827967641    3.55071119719730
C        -0.38760678579928   -1.18148730491610    3.31315533386973
C         0.95041965315894   -0.72069936505403    3.26920497114627
C         0.95473032926528    0.71547851929993    3.27278641092439
C        -0.39215031845378    1.17972067659987    3.31687909857270
C         2.32305595079862   -2.62590004902831    0.59017742041166
C         3.40796536133339   -1.55199369544838    0.64088827686885
C         2.93144370712418   -0.70915182592493    1.82088129102379
C         1.93221825113478   -1.41149249992953    2.53739224441424
C         1.55602792724375   -2.58011328501666    1.78979970999613
C         3.16724002080277    1.39835208354603    0.56888876653540
C         2.30537053988084    2.56399368404333    0.56320015771244
C         1.55074458500469    2.55535448473738    1.78943373138889
C         1.92336372025532    1.39894152695192    2.53999885484911
C         2.92017596984231    0.67287766577518    1.78771501324874
C        -0.38178198484778    3.43193330661113    0.58729536865903
C        -1.75738447412988    2.99599169464069    0.59141346708770
C        -2.00079730884296    2.29266643461310    1.81109574635591
C        -0.75972279927171    2.27348850734018    2.56901742739644
C         0.22778093574581    2.98802557443905    1.80165266723766
C        -3.42395119431371    0.71609298178776    0.57011284352545
C        -3.42179356383179   -0.72000507027530    0.57046272830114
C        -2.79528341691627   -1.15114670809206    1.80582418311160
C        -2.45417259805498   -0.00414923857090    2.55169250333920
C        -2.79885643835761    1.14798577191215    1.80245209941393
C        -1.75893498038312   -3.00879752280095    0.59383492322226
C        -0.38569994218432   -3.45382435022015    0.59023986361137
C         0.22825172659120   -3.00435344060367    1.80369315033027
C        -0.75886086936626   -2.28097067545632    2.56423235742036
C        -1.99317342777510   -2.29836552626767    1.81255085866955
C        -0.25829552499053   -3.00380757913352   -1.81690320351356
C         0.73314105562507   -2.29315092013143   -2.57036391839390
C         1.95276375649914   -2.30750917526245   -1.82751057959278
C         1.72156625858063   -3.02041212871776   -0.58412725642984
C         0.34734853940618   -3.45186537617576   -0.58749079863944
C         2.75860725255614   -1.16640528424931   -1.79417795247036
C         2.37522440090597    0.01949270922650   -2.56110164611906
C         2.78195933487320    1.14654420080880   -1.84761039100328
C         3.35666098151635    0.69472566059278   -0.61722010011467
C         3.39305244915930   -0.73591861754162   -0.62134946736204
C         2.09474844536686    2.47978063744298   -1.97180631443821
C         0.71247994986173    2.30892814406105   -2.60739388074047
C        -0.25800144022149    2.98668358401475   -1.82577796055518
C         0.35728737441149    3.42481985693224   -0.59606174088506
C         1.72004372919884    3.01955696296754   -0.59901565583443
C        -1.59520918948607    2.57512510985134   -1.82097002624609
C        -1.97775668486678    1.41791301252414   -2.58459118900233
C        -2.97603877485164    0.69564593714148   -1.83484292895706
C        -3.20306663202164    1.41209638740783   -0.60751668054007
C        -2.34565311293715    2.57470510216997   -0.60280283485721
C        -2.96438545009595   -0.69414094786684   -1.83223043916057
C        -1.96610810131922   -1.41236153037462   -2.58063867901027
C        -1.58616939375388   -2.58005666608087   -1.81420936524215
C        -2.34055132863474   -2.58263724837709   -0.60119878506834
C        -3.19216213359012   -1.41273650616436   -0.60426559687948
C        -1.00882529004462   -0.71662997151923   -3.30112782657657
C        -1.01578854952813    0.72495863919295   -3.30117666233325
C         0.35464344569265    1.17481620263093   -3.30909010015041
C         1.19698523996602   -0.00005080550351   -3.32525401557590
C         0.36636720082558   -1.15305474052750   -3.30975391558615
C        -1.86032918091842   -0.00134639340321    4.99471343130596
F        -0.86540492158854    0.00034816584293    5.88922432265283
F        -2.61242327330216   -1.07655175202785    5.25268932874594
F        -2.61351048080210    1.07355152424830    5.24970305876117
C         2.95029042870457    3.48690238712976   -2.75688938068346
F         2.34484493203715    4.67440639780576   -2.88498997939456
F         3.21726623158864    3.05489121731590   -3.99415766737063
F         4.12487176042890    3.71551533342357   -2.15989970967756
C         4.79611805288182   -2.15862320685409    0.90980527638650
F         4.81934137657482   -2.88897359666701    2.03118209835600
F         5.18849137422736   -2.96278683655914   -0.08349272775923
F         5.73334929231554   -1.21487809735745    1.04412187340418
72
 energy: -177.493269237287 gnorm: 0.003649349888 xtb: 6.4.1 (a3dbbd7)
C        -1.33132751125050   -0.00237458419054    3.55658669184858
C        -0.38853497866202   -1.18102574875997    3.31141623961724
C         0.95005959076064   -0.72107395948716    3.26748793383743
C         0.95403823786829    0.71534653757696    3.27096340065447
C        -0.39328031926514    1.17869291233875    3.31508327538271
C         2.32359543306448   -2.62564056551322    0.58899868083829
C         3.40750090616706   -1.55053820201404    0.64042180148517
C         2.93147354156405   -0.70863920979014    1.82040449190544