108
 energy: -320.307805649061 gnorm: 3.246865644248 xtb: 6.4.1 (a3dbbd7)
C        -1.23626340000000    0.00000000000000    3.32997640000000
C        -0.38202640000000   -1.17575640000000    3.32997640000000
C         1.00015810000000   -0.72665740000000    3.32997640000000
C         1.00015810000000    0.72665740000000    3.32997640000000
C        -0.38202640000000    1.17575640000000    3.32997640000000
C         2.34433560000000   -2.60145750000000    0.59464210000000
C         3.19857260000000   -1.42570110000000    0.59464210000000
C         2.96246730000000   -0.69904370000000    1.83090550000000
C         1.96230920000000   -1.42570110000000    2.59495830000000
C         1.58028280000000   -2.60145750000000    1.83090550000000
C         3.19857260000000    1.42570110000000    0.59464210000000
C         2.34433560000000    2.60145750000000    0.59464210000000
C         1.58028280000000    2.60145750000000    1.83090550000000
C         1.96230920000000    1.42570110000000    2.59495830000000
C         2.96246730000000    0.69904370000000    1.83090550000000
C        -0.36750900000000    3.48258920000000    0.59464210000000
C        -1.74969350000000    3.03349030000000    0.59464210000000
C        -1.98579880000000    2.30683290000000    1.83090550000000
C        -0.74953540000000    2.30683290000000    2.59495830000000
C         0.25062270000000    3.03349030000000    1.83090550000000
C        -3.42570570000000    0.72665740000000    0.59464210000000
C        -3.42570570000000   -0.72665740000000    0.59464210000000
C        -2.80757400000000   -1.17575640000000    1.83090550000000
C        -2.42554760000000    0.00000000000000    2.59495830000000
C        -2.80757400000000    1.17575640000000    1.83090550000000
C        -1.74969350000000   -3.03349030000000    0.59464210000000
C        -0.36750900000000   -3.48258920000000    0.59464210000000
C         0.25062270000000   -3.03349030000000    1.83090550000000
C        -0.74953540000000   -2.30683290000000    2.59495830000000
C        -1.98579880000000   -2.30683290000000    1.83090550000000
C        -0.25062270000000   -3.03349030000000   -1.83090550000000
C         0.74953540000000   -2.30683290000000   -2.59495830000000
C         1.98579880000000   -2.30683290000000   -1.83090550000000
C         1.74969350000000   -3.03349030000000   -0.59464210000000
C         0.36750900000000   -3.48258920000000   -0.59464210000000
C         2.80757400000000   -1.17575640000000   -1.83090550000000
C         2.42554760000000    0.00000000000000   -2.59495830000000
C         2.80757400000000    1.17575640000000   -1.83090550000000
C         3.42570570000000    0.72665740000000   -0.59464210000000
C         3.42570570000000   -0.72665740000000   -0.59464210000000
C         1.98579880000000    2.30683290000000   -1.83090550000000
C         0.74953540000000    2.30683290000000   -2.59495830000000
C        -0.25062270000000    3.03349030000000   -1.83090550000000
C         0.36750900000000    3.48258920000000   -0.59464210000000
C         1.74969350000000    3.03349030000000   -0.59464210000000
C        -1.58028280000000    2.60145750000000   -1.83090550000000
C        -1.96230920000000    1.42570110000000   -2.59495830000000
C        -2.96246730000000    0.69904370000000   -1.83090550000000
C        -3.19857260000000    1.42570110000000   -0.59464210000000
C        -2.34433560000000    2.60145750000000   -0.59464210000000
C        -2.96246730000000   -0.69904370000000   -1.83090550000000
C        -1.96230920000000   -1.42570110000000   -2.59495830000000
C        -1.58028280000000   -2.60145750000000   -1.83090550000000
C        -2.34433560000000   -2.60145750000000   -0.59464210000000
C        -3.19857260000000   -1.42570110000000   -0.59464210000000
C        -1.00015810000000   -0.72665740000000   -3.32997640000000
C        -1.00015810000000    0.72665740000000   -3.32997640000000
C         0.38202640000000    1.17575640000000   -3.32997640000000
C         1.23626340000000    0.00000000000000   -3.32997640000000
C         0.38202640000000   -1.17575640000000   -3.32997640000000
C        -1.76086815247998    0.00000000000000    4.78849957557021
F        -0.76911826531252    0.00000000000000    5.67468926254662
F        -2.50968386795825   -1.06794314680471    5.04863888333743
F        -2.50968386795825    1.06794314680471    5.04863888333743
C        -0.54413818249354   -1.67468516033722    4.78849957845317
F        -0.23767107904745   -0.73147481112462    5.67468925997942
F        -1.79120914301982   -2.05683909935453    5.04863874564184
F         0.24013968171955   -2.71686350152345    5.04863903502921
C         0.53602450593361   -4.99908416128281   -0.86730591619822
F         1.22448605650957   -5.23152837615597   -1.98125850960180
F        -0.63540201352706   -5.61404743764837   -1.00324736766175
F         1.18149064144157   -5.61404773804446    0.11965571789346
C         3.37204091334889   -3.72927672645244    0.86730596148276
F         4.06564647311728   -3.51265957144659    1.98125763710228
F         4.25569947457670   -3.84739838595791   -0.11965645964809
F         2.78580317558591   -4.91533944031226    1.00324916143779
C         4.58877084110522    2.05459160147071    0.86730597290559
F         4.59709252483521    2.78118520641283    1.98125951001435
F         4.97417519512416    2.85850196315549   -0.11965482382298
F         5.53562669678859    1.13053295630600    1.00324569798425
C         2.82790274436383    2.05459160758554    3.71645040671519
F         3.82797483682855    2.78118494419178    3.22571836876305
F         2.11749631416700    2.85850222732984    4.50254863174647
F         3.37293748548841    1.13053297859378    4.50255013394648
C        -0.53602450593361    4.99908416128281    0.86730591619822
F        -1.22448605650957    5.23152837615597    1.98125850960180
F        -1.18149064144157    5.61404773804446   -0.11965571789346
F         0.63540201352706    5.61404743764837    1.00324736766175
C        -4.58877084110522    2.05459160147071   -0.86730597290559
F        -4.59709252483521    2.78118520641283   -1.98125951001435
F        -5.53562669678859    1.13053295630600   -1.00324569798425
F        -4.97417519512416    2.85850196315549    0.11965482382298
C        -4.25247495652193   -1.01957928511255   -2.62817407757680
F        -4.45020405360857   -2.32910962270745   -2.75037677428973
F        -4.21414295278389   -0.51936236815949   -3.85992636334022
F        -5.33704498641440   -0.51936149478962   -2.04303305824599
C        -4.92005227074660    1.03501232949151    0.86730592957069
F        -5.35386609588658    0.45207588830481    1.98125865327758
F        -5.70437742108406    0.61117153086585   -0.11965558739362
F        -5.14292645153878    2.33913927311179    1.00324714649869
C         1.76086815247998    0.00000000000000   -4.78849957557021
F         0.76911826531252    0.00000000000000   -5.67468926254662
F         2.50968386795825    1.06794314680471   -5.04863888333743
F         2.50968386795825   -1.06794314680471   -5.04863888333743
C        -2.84103082519036   -3.32439911178427    2.62817407941587
F        -2.23127406184888   -4.50005340761388    2.75037746012491
F        -4.01248672303644   -3.55720929213525    2.04303264409737
F        -3.10404037880940   -2.89718378306488    3.85992609894427
108
 energy: -321.690644063835 gnorm: 1.812410084978 xtb: 6.4.1 (a3dbbd7)
C        -1.24021165968108    0.00433056143887    3.32733927177575
C        -0.37707119546458   -1.18135873033777    3.32625772354379
C         1.00717118653572   -0.72159465622540    3.33193149854438
C         0.98716133926368    0.71811746719148    3.32991298339493
C        -0.37529306460161    1.17988177711874    3.33334268283228
C         2.35527214080883   -2.60427415435199    0.59822919323933
C         3.19941180844716   -1.41593141142468    0.59464955207847
C         2.96176934698783   -0.69744747282685    1.82936919456964
C         1.96087909652731   -1.42855765897034    2.59078760246889
C         1.57665028687275   -2.60121943798028    1.83654346542095
C         3.20947119782184    1.43231027405818    0.59689706908036
C         2.33356081100164    2.60276813438556    0.59685882044906
C         1.57620030567249    2.60289568290252    1.82048544801370
C         1.97264056303940    1.43329584189964    2.60528619265604
C         2.95673429282067    0.68757156615358    1.82637906175357
C        -0.37030151258437    3.48922468613753    0.59816301220109
C        -1.75369435714225    3.02457817679821    0.60042012707959
C        -1.98200449993780    2.31083721744317    1.82925404478702
C        -0.74681132338624    2.30807840136312    2.59097019899294
C         0.25199272777741    3.02523581395258    1.83503080268038
C        -3.40399197445164    0.71674243821244    0.60211328094217
C        -3.42592327715125   -0.73234935838442    0.59978926246691
C        -2.80879372592025   -1.16183186229036    1.83290822757523
C        -2.43276262054091   -0.00243319943213    2.58243912604208
C        -2.80654973662959    1.17539025235944    1.83434078029093
C        -1.74090068919034   -3.03351608446155    0.58706195865471
C        -0.37710255880845   -3.48481737457216    0.60465591375676
C         0.24740958111054   -3.02906352407772    1.82886079006671
C        -0.74347052652607   -2.31625600342531    2.58747386277055
C        -1.99148621963927   -2.31549034313919    1.83288431243184
C        -0.25353299635977   -3.02517963701021   -1.83593280657386
C         0.74560881599535   -2.30562595078792   -2.59335852094275
C         1.98254267267413   -2.30872936653330   -1.82658653812934
C         1.74856377458625   -3.02319614497758   -0.60865174744860
C         0.36905546748373   -3.48761713543118   -0.59916982705155
C         2.80720058051850   -1.17121871973111   -1.83200078751263
C         2.43353368207404   -0.00441471383724   -2.58103616227876
C         2.80699511012091    1.17266368984017   -1.82744449776011
C         3.42060573513116    0.71884707777938   -0.60614338583484
C         3.42588866228534   -0.72422215009541   -0.59410593495142
C         1.98457602191816    2.30640727335758   -1.83170903421018
C         0.74984389256923    2.30701234495091   -2.59342568709125
C        -0.24719492020157    3.03182879416962   -1.82949506018878
C         0.37467008365052    3.48561029604579   -0.60679058867417
C         1.74551526843730    3.03255093148296   -0.59640530501569
C        -1.57952840953670    2.59942810394854   -1.83326394161572
C        -1.95929081257463    1.42806755493552   -2.59106740034776
C        -2.96379802950502    0.70902919961495   -1.83795755771108
C        -3.17590375223262    1.42421881124931   -0.60168986722580
C        -2.33989883518601    2.60497731328545   -0.59702729149917
C        -2.96767538501351   -0.70569709188095   -1.83538882394459
C        -1.95224417253179   -1.43010464709774   -2.59513294025463
C        -1.57892310331748   -2.59778721572438   -1.83215384036718
C        -2.34524046272663   -2.59771853261298   -0.59613845583319
C        -3.19157293235275   -1.43320657740741   -0.58862238758630
C        -0.99753263742195   -0.72737194182920   -3.32927367297039
C        -0.99590943064911    0.72719586786356   -3.32999744966589
C         0.37363895474462    1.17916082373682   -3.33127283282536
C         1.23782321893570   -0.00055906172515   -3.33199095851969
C         0.37509296581400   -1.18088774235482   -3.33100121414948
C        -1.78830513565261    0.02181430181221    4.76976764865937
F        -0.82026052940357    0.09374609056043    5.70060899956056
F        -2.62575766144565   -0.92025820391772    5.05463686395924
F        -2.51711529675136    1.08418331590849    5.05101955554199
C        -0.53677065085664   -1.70808682176433    4.77120219151067
F        -0.15890157960103   -0.81176993150717    5.70025927779259
F        -1.68319636967218   -2.20791385991822    5.06184221678110
F         0.25201410714949   -2.72654911710564    5.05019784442416
C         0.53626374998478   -5.00255962868988   -0.86887750917985
F         1.22528416614261   -5.23347642553836   -1.98297468229198
F        -0.63734524630432   -5.61560716419431   -1.00379292566594
F         1.17272450948770   -5.62054094390655    0.11625789123583
C         3.37590244802647   -3.73095026864021    0.86800091767522
F         4.06787409628673   -3.51306855357841    1.98338237541551
F         4.25765062079343   -3.84822003411300   -0.12062740815312
F         2.79502603163505   -4.91387722655766    1.00944993640686
C         4.59566784229555    2.05367218448912    0.85811356705290
F         4.64568913162047    2.78865008666187    1.91661302793212
F         4.97643129128260    2.85944668947259   -0.12613080667961
F         5.53833455073608    1.12798290825826    1.00219111907729
C         2.82487770414306    2.05408893284739    3.72482399555050
F         3.79187505082452    2.78866987163996    3.29767799412546
F         2.11206648493305    2.85991243052994    4.50869115479333
F         3.37334709299285    1.12743313753076    4.50697748291724
C        -0.53471347797130    5.00195062192379    0.86768914969125
F        -1.22653607617195    5.23394985014727    1.98341426090748
F        -1.18322417871143    5.61608617634395   -0.12088621460090
F         0.63653561760942    5.61594654698149    1.00348120565798
C        -4.55208387408662    2.05570078026875   -0.88524266148611
F        -4.59954558417680    2.78452949175019   -1.98454289072248
F        -5.57243004592443    1.13249099807873   -1.06215766365062
F        -4.98335219534281    2.93094647631354    0.10407163615662
C        -4.24874571543801   -1.02630087879569   -2.63375649357067
F        -4.45304201993133   -2.33203502246335   -2.75168716524537
F        -4.21612415524279   -0.51857889902599   -3.86188766920725
F        -5.34393889198142   -0.52584937223331   -2.04622338840689
C        -4.88995542970865    1.01537770717033    0.88509825247571
F        -5.35809316464463    0.45115866141798    1.98476682864202
F        -5.75512438475111    0.55871613494505   -0.10645143825903
F        -5.16639143966204    2.36387125848937    1.07003271327502
C         1.76183534513454   -0.00020122389901   -4.79108966770486
F         0.76828703378845   -0.00027162875708   -5.67721958717325
F         2.51071746421475    1.06890620222595   -5.05001215281792
F         2.51061179611806   -1.06938636709139   -5.04983590794187
C        -2.84204279774183   -3.32867988881762    2.62659629084830
F        -2.23171605977996   -4.50254827108385    2.75197825081653
F        -4.01558182157676   -3.55808819810803    2.04277182918110
F        -3.11288560586402   -2.90195222651099    3.85742742404649
108
 energy: -322.907791763985 gnorm: 1.723421269901 xtb: 6.4.1 (a3dbbd7)
C        -1.24669960127078    0.01109697054144    3.34289850254349
C        -0.37069693416661   -1.18824536008997    3.33550399117469
C         1.01547096775493   -0.71303831735196    3.32374024153225
C         0.97081367137269    0.70623642851982    3.32509243919467
C        -0.36449198830725    1.18445778765319    3.32415634689188
C         2.37327592014779   -2.62008222085116    0.60571441331507
C         3.19868764157326   -1.40322022870553    0.59114738514364
C         2.95632825898130   -0.69505828705073    1.82285668583346
C         1.95914182766451   -1.43189993341543    2.58358239226951
C         1.57149593128046   -2.58819534924233    1.84456407956894
C         3.22859132917534    1.44285782844497    0.60260051962090
C         2.31805967130266    2.60387204642553    0.59724629729679
C         1.56968812945761    2.60276262948390    1.80587700369835
C         1.98914348516854    1.44466904908295    2.62311117461410
C         2.95105050068260    0.67210597048346    1.82288046977956
C        -0.37464794263070    3.51657073762895    0.60540849777540
C        -1.75711779934666    3.01135877662030    0.60138456517572
C        -1.97688813003079    2.31282633956251    1.82781926920709
C        -0.74435724606595    2.31078019532836    2.58304107972398
C         0.25293222588813    3.01433142689244    1.83911988310424
C        -3.40597449292774    0.71089081727373    0.61499536200092
C        -3.41547061499266   -0.74302630714042    0.60309355582644
C        -2.80777243047081   -1.14413161563142    1.82509162783156
C        -2.44125422205179   -0.00391814842792    2.56413145191736
C        -2.79921654848367    1.17489354346195    1.84203258431400
C        -1.72844346532329   -3.03106886326651    0.57743206821178
C        -0.38857716073086   -3.46768811880917    0.61425220887798
C         0.24228930518550   -3.01865280039533    1.82451326782732
C        -0.73420865742564   -2.32345688671543    2.57789115444946
C        -2.00307359835381   -2.33510976910981    1.84533675728252
C        -0.25684731960498   -3.01388024382375   -1.84316520765363
C         0.74006768390951   -2.30513265727447   -2.58966028498607
C         1.97760841976040   -2.31013351825350   -1.81903320761615
C         1.74592172933470   -3.00806285916338   -0.62548626693463
C         0.37152529821266   -3.51411572894655   -0.60911103279739
C         2.80632582109334   -1.16462035803647   -1.83536117810223
C         2.44168866176319   -0.01155061239648   -2.56415247965267
C         2.80587250978221    1.16788617445637   -1.82097589493461
C         3.41689871449821    0.70967740132169   -0.62082884266551
C         3.42109452893387   -0.72052023737401   -0.59382229057854
C         1.98308877185588    2.30623661724561   -1.83332735790755
C         0.75169355928388    2.30694293770696   -2.58969363004342
C        -0.24274299441031    3.02912206053995   -1.82736148117762
C         0.38275693560417    3.47242915114293   -0.62141248250675
C         1.74022363595124    3.02947392139772   -0.60005419264081
C        -1.57663977550348    2.59812109225332   -1.83587370845364
C        -1.95375882314234    1.43149593906119   -2.58601609090539
C        -2.95045617111102    0.72067545380458   -1.84216532258409
C        -3.16902442246591    1.42964749777433   -0.61391522320662
C        -2.32753818404788    2.61092032787659   -0.59731441879557
C        -2.98786091372448   -0.71614514962932   -1.84833192208044
C        -1.93868456055644   -1.43554130116651   -2.59421936144342
C        -1.57718703634430   -2.59206955354552   -1.83405299496358
C        -2.34615033612808   -2.59390333284600   -0.59806854073680
C        -3.18012514029470   -1.44217316697730   -0.58036040447604
C        -0.99299013016562   -0.72822154583766   -3.32302152456129
C        -0.99053263830000    0.72888864663553   -3.32969327204815
C         0.36187433379928    1.18245647714574   -3.31875029530672
C         1.24292117063474   -0.00113983600616   -3.36185211355149
C         0.36504603323255   -1.18603996614279   -3.31998609750572
C        -1.81900228686258    0.02587581672850    4.74952441021233
F        -0.84338481554416    0.16317073813622    5.73315299978895
F        -2.67309638225105   -0.87338070599591    5.06505936608730
F        -2.51912894682090    1.09386005448316    5.05008681768709
C        -0.54000914049861   -1.73982392663914    4.75102885506548
F        -0.09788515738633   -0.85138652278486    5.73911766986068
F        -1.64517416680114   -2.26485410772947    5.08311652457267
F         0.26271960065267   -2.73095955810193    5.04944409913139
C         0.53652029362312   -5.01223196159291   -0.87278910157626
F         1.22704718508388   -5.23695141485525   -1.98663908371037
F        -0.64084556131839   -5.61831592369356   -1.00575781892458
F         1.15970414352554   -5.63147200908254    0.11123784736999
C         3.38405632742773   -3.73566096510436    0.86957249440015
F         4.07216481811275   -3.51335016105553    1.98686367706479
F         4.26132468957693   -3.84932723256969   -0.12249637627177
F         2.80940575439638   -4.91274138172203    1.01906401064890
C         4.60531749589299    2.05474030578223    0.85085635676438
F         4.68765348118765    2.79951151569305    1.86908171089402
F         4.97946634352737    2.86078487772537   -0.13509892295517
F         5.54234955242530    1.12379208123202    1.00081472682011
C         2.82490185984752    2.05550164413612    3.73446783201005
F         3.76768305535605    2.79961047724189    3.35703103529518
F         2.10413956287158    2.86103330618643    4.51739732587445
F         3.37342213575530    1.12236454129673    4.51352079712256
C        -0.53424147882261    5.01123542424643    0.86936814422628
F        -1.22942411135558    5.23774215634863    1.98701242627853
F        -1.18567694324094    5.61944593387142   -0.12230416134362
F         0.63834200793178    5.61922805259714    1.00446124240597
C        -4.51494868925405    2.06173056170505   -0.91855203494232
F        -4.60027812481293    2.79296076980880   -1.99508041189879
F        -5.59594706500665    1.18575030661413   -1.17043082324155
F        -4.98137009901694    3.04366619226879    0.01080375077761
C        -4.24815116710533   -1.03567032392622   -2.64315141602711
F        -4.45631959098731   -2.33700330270249   -2.75463609157399
F        -4.21828023416251   -0.51760989854181   -3.86536227668934
F        -5.35104550002209   -0.54050154720237   -2.05446036817473
C        -4.85647263704126    0.99083422714071    0.91561771758879
F        -5.36547308667227    0.44552307672457    1.99410147455873
F        -5.82102338628379    0.46782063659957   -0.03534293666648
F        -5.20252023339174    2.34509152088535    1.21537823347955
C         1.76497650617152    0.00018716385823   -4.80045842071636
F         0.76724440818607   -0.00010262783349   -5.68195398212884
F         2.51285091345920    1.07126864415962   -5.05243004622856
F         2.51256978966509   -1.07123439659796   -5.05214629714366
C        -2.84656797633320   -3.33773868090535    2.62608349438378
F        -2.23224899547934   -4.50714906044525    2.75423946110489
F        -4.02026359136994   -3.56035219874405    2.04126419818478
F        -3.12852643457593   -2.90751491749850    3.85292032710014
108
 energy: -323.816724956941 gnorm: 0.648289372902 xtb: 6.4.1 (a3dbbd7)
C        -1.25475853036192    0.01766801141504    3.36856943539309
C        -0.36637230361221   -1.19595390439023    3.35631531311156
C         1.02329618437128   -0.70218865105444    3.31646545135861
C         0.95435177066618    0.69303561516678    3.32044613196083
C        -0.35316524547420    1.18917063278957    3.31587042547622
C         2.39059852891226   -2.63518817737995    0.61268011345396
C         3.19804076370610   -1.38989507822197    0.58722138862485
C         2.95360640670979   -0.69205798391548    1.81923003011404
C         1.95680242853599   -1.43732142223498    2.57773566171150
C         1.56816086321864   -2.57562649404286    1.85385578699017
C         3.24736611839118    1.45361456977438    0.60905460870370
C         2.30273975223106    2.60508553525606    0.59962886834326
C         1.56476582170423    2.60310407208093    1.79160924865599
C         2.00550863513033    1.45591711295100    2.64045472306500
C         2.94362411354903    0.65682381037680    1.81873537806277
C        -0.37904572195979    3.54165175940314    0.61239012843502
C        -1.76260574277528    2.99865865840931    0.60063343595532
C        -1.97492177775588    2.31150549624397    1.82557581584781
C        -0.74035871904570    2.31180332374589    2.57841899397195
C         0.25305442259943    3.00305715560043    1.84465206266955
C        -3.43557898094853    0.71201591252177    0.62677808474598
C        -3.40432562478446   -0.75479521459918    0.60473177213828
C        -2.80793284682640   -1.12485103891067    1.81641878471675
C        -2.44953901496207   -0.00270454996174    2.54279606402896
C        -2.78554627264553    1.17360977815374    1.84982270288112
C        -1.71561573324141   -3.03024875347769    0.56781547862917
C        -0.40057539021895   -3.45494404331706    0.62412663517793
C         0.23528561446561   -3.01223230066048    1.82218250652812
C        -0.72398691679123   -2.33092181142069    2.56344527147116
C        -2.01395276364135   -2.35363730176164    1.85727522123187
C        -0.25943622839480   -3.00235254788832   -1.85015578010868
C         0.73453242110509   -2.30507188191986   -2.58758872589610
C         1.97349084907377   -2.31387168172785   -1.81081068286105
C         1.74325270231805   -2.99064417500849   -0.64277034931437
C         0.37488254925745   -3.53856511146900   -0.61758888532284
C         2.80571697046456   -1.15720812512135   -1.83994351943028
C         2.44970962310031   -0.01961782984065   -2.54574625440599
C         2.80651699021971    1.16329515192488   -1.81429385539747
C         3.41122900520795    0.70177675810585   -0.63575486850691
C         3.41854828766374   -0.71844026201924   -0.59218298800281
C         1.97931449833560    2.30677745129811   -1.83597024451694
C         0.75504848172925    2.30806345876707   -2.58703061804515
C        -0.23831136449726    3.02906439432305   -1.82462127614529
C         0.39098262012943    3.46123627608153   -0.63525897485600
C         1.73486617042422    3.02886615061912   -0.60285607149755
C        -1.57622617397212    2.59728871160224   -1.83182756066786
C        -1.95585665880967    1.42883321912759   -2.57926865596989
C        -2.92899651956020    0.72999323500338   -1.84916519508926
C        -3.18943701927146    1.44552122081952   -0.62724497422969
C        -2.31098063581046    2.61551479445048   -0.59675750341272
C        -3.00841546828052   -0.72564763144798   -1.86108193820605
C        -1.92514283247702   -1.44066123093441   -2.59315362267224
C        -1.57598111872580   -2.58710192784578   -1.83600140320015
C        -2.34862126377351   -2.59062678946921   -0.59961177675127
C        -3.17031431694965   -1.44825316173370   -0.57003417108906
C        -0.98883941815681   -0.73002709028110   -3.31932710529755
C        -0.98316229740661    0.72979240007866   -3.33207012259452
C         0.34832253272105    1.18507802491507   -3.30969178362868
C         1.24729073985751   -0.00154226326347   -3.38844733012803
C         0.35552031460106   -1.19140638746448   -3.31124863710073
C        -1.85075763845126    0.03900992382710    4.73286815590306
F        -0.91806106186602    0.29531300373833    5.75509767675949
F        -2.72582997804667   -0.81709134066235    5.06951189726371
F        -2.52500871986536    1.11045044011785    5.04619797564446
C        -0.53662492972976   -1.77431557872727    4.73320083028379
F         0.00960764044987   -0.96112291007629    5.76952796036926
F        -1.60074416586483   -2.32791872498658    5.09873886119415
F         0.27734373248136   -2.74087318476660    5.04459045054580
C         0.53708600762771   -5.02021053894883   -0.87525963367066
F         1.22822428267895   -5.23846623814180   -1.98886463054701
F        -0.64334897062820   -5.61950900480295   -1.00665998895067
F         1.14850672375961   -5.63888235198237    0.10672061617722
C         3.39050097853176   -3.74094905336479    0.87091059764099
F         4.07464376595666   -3.51313831534271    1.98925516152954
F         4.26328429191587   -3.84956546460851   -0.12404959747265
F         2.82075978393187   -4.91034778783210    1.02660287315667
C         4.61341012979885    2.05479399965717    0.84539090292530
F         4.72407854677479    2.80917291470660    1.82695847360222
F         4.98071608560443    2.86144108986651   -0.14325719894210
F         5.54492805097078    1.11933471849648    0.99963807784998
C         2.82465098227629    2.05570959436573    3.74237342264109
F         3.74622972107460    2.80954153826387    3.40868366439841
F         2.09689910223352    2.86184630840149    4.52295742389810
F         3.37342676411162    1.11759589809389    4.51716721855896
C        -0.53492461700667    5.01961528282387    0.87066220863287
F        -1.23049688605981    5.23917896119367    1.98881216422199
F        -1.18663276995738    5.62074537418649   -0.12357312724442
F         0.63964058161029    5.62026425018665    1.00475986280204
C        -4.49983201451507    2.07911290143882   -0.94828629748907
F        -4.59381000297234    2.79885962313774   -2.00762789814521
F        -5.58030168452231    1.29254481667959   -1.31482578192217
F        -4.95602285401708    3.14927721246622   -0.14773075106255
C        -4.25254471279510   -1.04094150141806   -2.64951371087112
F        -4.45717573526296   -2.33962655463449   -2.75568764338689
F        -4.21838784748657   -0.51678000241546   -3.86712276737176
F        -5.35234601380516   -0.55516701002681   -2.06118076590492
C        -4.84982982487618    0.97450444555603    0.94824285545803
F        -5.36457387696466    0.43682798253353    2.00461544066312
F        -5.86567803363060    0.36198658525772    0.10600247735200
F        -5.23653608562798    2.26101241034253    1.38660489434571
C         1.76732922788588    0.00043858659389   -4.80741389047079
F         0.76634961114837   -0.00014339935504   -5.68442646056844
F         2.51401801104305    1.07267750584511   -5.05332048311671
F         2.51356770835622   -1.07252258965572   -5.05286177155552
C        -2.85123752106667   -3.34501647421291    2.62721707720382
F        -2.23200439703747   -4.50931577613646    2.75512180114842
F        -4.02243342844150   -3.56113928909046    2.04015036990640
F        -3.13977972182832   -2.91139097252120    3.84769696923924
108
 energy: -324.090746305059 gnorm: 0.427895668263 xtb: 6.4.1 (a3dbbd7)
C        -1.26990208144309    0.01759749893196    3.41233969834974
C        -0.36998874850954   -1.20800887413968    3.39858323823435
C         1.02145853412667   -0.69450819366043    3.30339090026200
C         0.95004591374527    0.68733227747536    3.30418343220629
C        -0.35050821224948    1.18610797648450    3.29846038645387
C         2.41425922783946   -2.65437593926355    0.61810050720184
C         3.19420094400186   -1.38040315899489    0.57919635402024
C         2.94566565191654   -0.68935439431378    1.80991425866055
C         1.95448734896930   -1.43569315924624    2.57032035007047
C         1.56981051111011   -2.56047295533757    1.85601113551615