63
 energy: -142.082360551920 gnorm: 0.137353458920 xtb: 6.4.1 (a3dbbd7)
C        -1.29585809770389    0.00401118895665    3.54517689253707
C        -0.36796043462932   -1.17243305037605    3.30515820978008
C         0.98298838983527   -0.72191219207564    3.27512267938171
C         0.98156472667820    0.71960753568128    3.26971969810914
C        -0.37066843460465    1.17924059903467    3.30150764336582
C         2.33648296603916   -2.58548060331365    0.57950289353032
C         3.18657767574002   -1.41946403927647    0.57781419519059
C         2.94957050639235   -0.69854930596759    1.80123308070154
C         1.95308396824160   -1.41752165468763    2.55613481575760
C         1.57961582989334   -2.57968580837377    1.80518673242103
C         3.18767024140451    1.40991878522763    0.57593180000620
C         2.33807592116844    2.57402574447607    0.57591940981122
C         1.57683795432701    2.56605672107525    1.79975339071644
C         1.95304946465436    1.40835201077487    2.55205927518980
C         2.95072023087345    0.68875745016373    1.80098024572921
C        -0.36516779407368    3.42666371337356    0.57921714423118
C        -1.72924376763824    3.01648005769000    0.58287705261872
C        -2.09463355992581    2.46231283092052    1.94730853815858
C        -0.73027134402217    2.28553619303067    2.58224921102021
C         0.24829448349984    2.97593693112150    1.80334175266563
C        -3.37466967425340    0.70300551354290    0.57574930054980
C        -3.39003092747716   -0.73268815647906    0.56838248265369
C        -2.76818811332164   -1.16356142379097    1.78871572221350
C        -2.38904763706855    0.02437925876362    2.53264263719760
C        -2.74834472563595    1.12995086275151    1.81420011519069
C        -1.73481952350512   -3.00995345714269    0.57938225060336
C        -0.36149853481650   -3.44686666227317    0.58178847315895
C         0.25217194581416   -2.99475012292755    1.80551621994623
C        -0.72930832442940   -2.27346636839910    2.56467955448571
C        -1.97147545426586   -2.28746259170963    1.79868366133100
C        -0.24419850626392   -3.01431906333444   -1.82647673840836
C         0.74940205407495   -2.29291975825760   -2.58286291053874
C         1.97453700933417   -2.29239152843074   -1.82543977586922
C         1.74139873400736   -3.01127177410490   -0.59946235558356
C         0.36858334367966   -3.45436466613801   -0.59762914044760
C         2.79442417392884   -1.17031401259636   -1.82833550603033
C         2.41574661888024   -0.00512369156855   -2.58546959716668
C         2.79806943075341    1.16104826420258   -1.83045397172065
C         3.41356646771945    0.71553904943849   -0.60565027142670
C         3.41126633561149   -0.72579612454708   -0.60436594395851
C         1.98256115248497    2.28538932455247   -1.82964816243281
C         0.75350030257848    2.28551308199782   -2.58573232036207
C        -0.23508280213456    3.00436687409655   -1.82344140492918
C         0.37359850932028    3.44286488622179   -0.60220138863872
C         1.74684322376492    3.00246743943424   -0.60372642363492
C        -1.55566653231806    2.56818250386052   -1.80941223575869
C        -1.93859434646944    1.40592010794080   -2.57168095880615
C        -2.93551210457882    0.68461262535792   -1.82146846772098
C        -3.16898901542976    1.39767486975662   -0.59605965548237
C        -2.30435127723071    2.57332623923171   -0.58497549467516
C        -2.94114405309208   -0.70773319324488   -1.83440725641731
C        -1.94505174577217   -1.42387954875747   -2.59102123506710
C        -1.56548890447542   -2.59170746585215   -1.83211639425372
C        -2.32839595515909   -2.59312664323360   -0.60918315818311
C        -3.17773883494341   -1.43218193772331   -0.61434027474195
C        -0.98775846759569   -0.72638522820754   -3.31322849837523
C        -0.98659864719709    0.71557045430270   -3.30737103326374
C         0.38544609985482    1.16109326139683   -3.31071431261235
C         1.23106807703669   -0.00470839638716   -3.31198800126459
C         0.38446650889097   -1.17000629330740   -3.31255499443923
Cl       -1.95494402230001   -0.00808767739961    5.23350834621500
Cl       -3.13453400437008    3.62205440029917    2.87428256883422
Cl       -0.34455701896226   -4.56573573751131   -2.75337180906897
63
 energy: -142.106497136517 gnorm: 0.059272338868 xtb: 6.4.1 (a3dbbd7)
C        -1.29643003625201    0.00418167090374    3.54455730932490
C        -0.36790479520964   -1.17155886879928    3.30468535317012
C         0.98350795810934   -0.72041271209578    3.27557065108419
C         0.98125734477125    0.72045299958843    3.26975484162972
C        -0.37150262839502    1.17961684967090    3.30094529643041
C         2.34169455180198   -2.58243746309675    0.58655036450248
C         3.19043712743902   -1.41646075808207    0.58088926635650
C         2.95262917063740   -0.69605483022293    1.80417805129857
C         1.95603572888693   -1.41525216421165    2.55908517484649
C         1.58504363404340   -2.57854580415775    1.81032271996324
C         3.18891206205481    1.41228264151514    0.57729687777257
C         2.33883585682863    2.57542228582731    0.57682110318902
C         1.57709301416431    2.56701386145814    1.80005688431678
C         1.95321636608353    1.40967784764832    2.55263391315393
C         2.95176318749241    0.69086627602345    1.80258096351845
C        -0.36477965964775    3.42735981946152    0.57996475839219
C        -1.72966965920106    3.01852279850108    0.58397081249939
C        -2.09523066914894    2.46470068213759    1.94841896978297
C        -0.73073305167405    2.28633295506761    2.58247680589034
C         0.24831237729553    2.97684570478342    1.80343710256924
C        -3.37712999486559    0.70938445039670    0.57776344229051
C        -3.39453209401560   -0.72639671543377    0.57178365715730
C        -2.77145971092098   -1.16045178112912    1.79091612924213
C        -2.38947037614334    0.02451559995518    2.53195781128808
C        -2.74986673882659    1.13370999359324    1.81492923302225
C        -1.73504589555753   -3.00452161404883    0.58258978951942
C        -0.35477951605223   -3.43478659643199    0.58605311440160
C         0.25673515118938   -2.99425482270174    1.81108230801078
C        -0.72843868388103   -2.27249188925487    2.56478879034201
C        -1.97096577428537   -2.28759372139886    1.79824369178398
C        -0.24792749680753   -3.10859534341132   -1.88162439927659
C         0.75853589325803   -2.27962096354832   -2.57935367676775
C         1.97363776488262   -2.28227460718656   -1.82069747736433
C         1.74016734765989   -3.00162098497189   -0.59311858356395
C         0.37667081675798   -3.44690518333485   -0.58466067920387
C         2.79995325017421   -1.16370837766525   -1.82761905001949
C         2.42223608939467   -0.00106686103408   -2.58577821504746
C         2.80137682234546    1.16398774176138   -1.82930897165964
C         3.41676239200067    0.71863195535693   -0.60413022665409
C         3.41502339689740   -0.72233893076071   -0.60208865057220
C         1.98364092717563    2.28674315992837   -1.82867319243180
C         0.75401807983450    2.28617260179590   -2.58432042092349
C        -0.23493840592198    3.00561320003536   -1.82283867302197
C         0.37377026060065    3.44318461915854   -0.60183326294739
C         1.74737039104722    3.00332227471028   -0.60325062572870
C        -1.55651280234586    2.56993504463926   -1.80855119895374
C        -1.94187172373157    1.40967742842161   -2.56997171779729
C        -2.94244842519204    0.69268599071889   -1.82042579383349
C        -3.17299574058255    1.40429941200471   -0.59465396466173
C        -2.30527632914232    2.57694474540402   -0.58375958925172
C        -2.95302913532936   -0.69856762081561   -1.83073671618729
C        -1.94862997823473   -1.41534178266438   -2.57809047897650
C        -1.59110170216444   -2.59053892499917   -1.83478360691757
C        -2.32825282438622   -2.57832569333252   -0.60883628712879
C        -3.18696623162620   -1.42174866247468   -0.61212699770862
C        -0.98950066353370   -0.72156392487089   -3.30723704009562
C        -0.98734139557431    0.71582701155574   -3.30441400114988
C         0.38623030740315    1.16182046369061   -3.30838404532012
C         1.23593788853136   -0.00003470403646   -3.31194647259552
C         0.38864515931444   -1.16154971316832   -3.30123159089651
Cl       -1.95453648932951   -0.00846022679580    5.23318137147854
Cl       -3.13435946468078    3.62507266072899    2.87639173660853
Cl       -0.34443246459752   -4.69531189902656   -2.83049638615643
63
 energy: -142.112475915948 gnorm: 0.013923567163 xtb: 6.4.1 (a3dbbd7)
C        -1.29638860458818    0.00648257450884    3.54449987994615
C        -0.36775096643076   -1.16896312889533    3.30406067398092
C         0.98437279334922   -0.71730651861301    3.27655399015758
C         0.98119166021410    0.72301401545651    3.27018923426742
C        -0.37193856334857    1.18218248566634    3.30136299993533
C         2.34032264235529   -2.57790682825739    0.58841071820736
C         3.19086091291574   -1.41307645235376    0.58300666607186
C         2.95466727028443   -0.69225855667893    1.80661965203298
C         1.95848285341447   -1.41201378774127    2.56200007637100
C         1.58656876405114   -2.57339720870845    1.81046644144170
C         3.19031758837412    1.41637916560169    0.57970410079574
C         2.33955888695004    2.57869032795499    0.57894047661271
C         1.57732309501470    2.57026023352030    1.80170951195020
C         1.95367282066134    1.41305570852763    2.55414118959812
C         2.95302093880655    0.69480430956507    1.80501465591477
C        -0.36477191664216    3.43013534600939    0.58207860176359
C        -1.73036322406358    3.02228790548633    0.58613050314952
C        -2.09551160807266    2.46810524347903    1.95054037479475
C        -0.73096661247177    2.28935052225869    2.58416012594661
C         0.24835059957274    2.97984985985665    1.80479489728176
C        -3.37935629680543    0.71509624894407    0.58015655572276
C        -3.39397270868824   -0.72161913554655    0.57341195956374
C        -2.77213987598222   -1.15617238658613    1.79261959561866
C        -2.38935273173692    0.02587373268824    2.53179245982830
C        -2.75158500529783    1.13834351466701    1.81640486017567
C        -1.73597461008339   -3.00465171693636    0.58426259133810
C        -0.35087479958458   -3.43167848970692    0.58123865641179
C         0.25768138553129   -2.98764922888471    1.80648097084978
C        -0.72766463890988   -2.26891016614109    2.56281327729785
C        -1.96888029941828   -2.28601718504185    1.79451045040946
C        -0.24856186239942   -3.19125505243328   -1.92976064858764
C         0.76109003490357   -2.28196163066293   -2.58244264451744
C         1.96468144190363   -2.27643791771294   -1.81894523513415
C         1.73074775549854   -2.99546666000397   -0.59121490141844
C         0.37873825154149   -3.45180684128639   -0.58429835454821
C         2.79790874159535   -1.15982991043306   -1.82480853180303
C         2.42293217077364    0.00129584022186   -2.58110160080664
C         2.80410140317530    1.16763492646292   -1.82746933130933
C         3.41865717461747    0.72226871930496   -0.60161369334326
C         3.41520714410049   -0.71895309373342   -0.59986881742835
C         1.98471972180563    2.28942151958412   -1.82662628355204
C         0.75418356354774    2.28750920408715   -2.58149369634064
C        -0.23472781620817    3.00812162719996   -1.82065282689700
C         0.37366888184325    3.44516979859024   -0.60006823378082
C         1.74763227356498    3.00552111031006   -0.60148193448167
C        -1.55688432517506    2.57215264326843   -1.80651382229678
C        -1.94338340554956    1.41341039931466   -2.56739326450449
C        -2.94360344993077    0.69751978909847   -1.81797157571430
C        -3.17633972703106    1.41033359889513   -0.59292336552944
C        -2.30645746705988    2.58144271654880   -0.58148018979849
C        -2.95196757207073   -0.69414393246698   -1.82699744271159
C        -1.94348617364310   -1.41571789696126   -2.56924800454195
C        -1.59347400431376   -2.58619357746862   -1.83141393445758
C        -2.31942432879349   -2.57175603326178   -0.61241855791384
C        -3.18427877228742   -1.41566349238515   -0.61042207213840
C        -0.99089289317546   -0.72080038670103   -3.30631434755302
C        -0.98771184605573    0.71392241287454   -3.29909769512289
C         0.38590455923845    1.16176811680979   -3.30281027553528
C         1.23393373548458   -0.00058115754634   -3.30302681081512
C         0.38981660489256   -1.16477352717412   -3.29415599031094
Cl       -1.95450552056345   -0.00829635521440    5.23297829836109
Cl       -3.13361777210661    3.62924696412495    2.87985750924487
Cl       -0.35211651067517   -4.78938172406985   -2.88794157012628
63
 energy: -142.112793112655 gnorm: 0.008256239855 xtb: 6.4.1 (a3dbbd7)
C        -1.29621551685142    0.00773743169411    3.54458564833320
C        -0.36756900373793   -1.16746322640455    3.30296147599347
C         0.98464712525643   -0.71555579461645    3.27665632401870
C         0.98127667847393    0.72458929355340    3.27083192376699
C        -0.37206264416444    1.18360587022504    3.30170603832728
C         2.33822314280453   -2.57573889968513    0.58710015837871
C         3.18952272072580   -1.41137220707222    0.58346950369692
C         2.95497526302852   -0.69047499749543    1.80752249412286
C         1.95890004413744   -1.41044216379631    2.56272078795281
C         1.58609776636669   -2.57080648866599    1.80902959002389
C         3.19100790349853    1.41853592929972    0.58101024440423
C         2.34002051128064    2.58080126405334    0.58025088932004
C         1.57738878259076    2.57224779821879    1.80286659823655
C         1.95401982123490    1.41502308329174    2.55533226652012
C         2.95362016462704    0.69680338598706    1.80640104297958
C        -0.36501248637220    3.43192973916858    0.58316814961912
C        -1.73084803119554    3.02419404167536    0.58703836692897
C        -2.09590152681336    2.46989589595407    1.95163336443221
C        -0.73120292551443    2.29096002595226    2.58496812885352
C         0.24825638290697    2.98164379253305    1.80567505536617
C        -3.37966751918741    0.71672899027560    0.58095405541725
C        -3.39231163801424   -0.72035515590439    0.57333381803313
C        -2.77141908570489   -1.15461552199318    1.79303658450919
C        -2.38902391295565    0.02674885911193    2.53176311185580
C        -2.75248389370114    1.14023322341125    1.81728362895002
C        -1.73676501984625   -3.00685615212950    0.58515788208679
C        -0.35058118027408   -3.43502725890696    0.57784525661003
C         0.25748808299972   -2.98438109163300    1.80198759555553
C        -0.72701763390558   -2.26660370172191    2.56031803584702
C        -1.96826162363354   -2.28542438993559    1.79286175476136
C        -0.24710477142858   -3.21185091069693   -1.94153322120534
C         0.76090408592222   -2.29016598307786   -2.58804494024003
C         1.96123705393485   -2.27691810322028   -1.81974667814163
C         1.72716202634945   -2.99591625301621   -0.59207350159836
C         0.37830498405265   -3.46089660951991   -0.58876390738557
C         2.79499967457484   -1.15950915673049   -1.82272114737021
C         2.42149140373805    0.00148311100471   -2.57818614003734
C         2.80429992571347    1.16899022488620   -1.82619766567386
C         3.41883490549989    0.72391316126158   -0.60033053519715
C         3.41368773134733   -0.71748838213690   -0.59884001813956
C         1.98470532239225    2.29057993767861   -1.82506610640581
C         0.75391813463264    2.28763689312996   -2.57956670449506
C        -0.23467799451907    3.00939364819213   -1.81943140256474
C         0.37356634887110    3.44666637773099   -0.59900618416934
C         1.74776364230876    3.00718395825073   -0.60028184606654
C        -1.55685198761060    2.57315001003676   -1.80564395419019
C        -1.94328857550979    1.41461667528220   -2.56642250991230
C        -2.94268538451787    0.69822921058799   -1.81685780666601
C        -3.17700369936858    1.41204196515948   -0.59236900857967
C        -2.30701511539208    2.58329863768149   -0.58066254863708
C        -2.94841883261307   -0.69375240252881   -1.82577640574011
C        -1.94035731691855   -1.41841700922382   -2.56869437151988
C        -1.58852556242389   -2.58609005885556   -1.83009004608033
C        -2.31525746475204   -2.57297055287699   -0.61446448855495
C        -3.18011665161103   -1.41459664451034   -0.60988402109652
C        -0.99132711606217   -0.72113256309500   -3.30810849800910
C        -0.98798499642896    0.71313191241615   -3.29727133577466
C         0.38532606883834    1.16076545587080   -3.29908573992111
C         1.23168350935898   -0.00262672892944   -3.29785021818057
C         0.38951146804187   -1.16929442267365   -3.29482206436687
Cl       -1.95447660881083   -0.00754529509520    5.23299371991991
Cl       -3.13226052186489    3.63218166270064    2.88241802562830
Cl       -0.35775467298603   -4.80464273884812   -2.89815220250669
63
 energy: -142.112892790683 gnorm: 0.004767936575 xtb: 6.4.1 (a3dbbd7)
C        -1.29618028192506    0.00797582325688    3.54469787800509
C        -0.36746120132652   -1.16710662327782    3.30270973088663
C         0.98482183629118   -0.71489421946635    3.27680800985616
C         0.98140893236374    0.72508309391831    3.27127466446796
C        -0.37211011991005    1.18383995459065    3.30173942307792
C         2.33690831813105   -2.57422985359521    0.58628460467058
C         3.18866502557965   -1.41043952723847    0.58369188871913
C         2.95520358288147   -0.68981905133861    1.80817933849240
C         1.95920481420395   -1.40980633517371    2.56336598055584
C         1.58583919681924   -2.56962370061235    1.80848918914176
C         3.19154059561000    1.41945097736017    0.58154612577196
C         2.34033379429171    2.58162225883044    0.58073565681558
C         1.57740862798575    2.57282526454329    1.80324459276967
C         1.95428114022162    1.41567916645107    2.55589712944568
C         2.95409004944088    0.69755757100114    1.80711198969894
C        -0.36519245209457    3.43231511108585    0.58338348758361
C        -1.73113823108249    3.02454818343526    0.58709017258458
C        -2.09610068361025    2.47015045261968    1.95181851081015
C        -0.73134139514489    2.29109342297920    2.58501157239788
C         0.24818248142074    2.98193936229441    1.80576471453523
C        -3.37970155058672    0.71698549879994    0.58111969812247
C        -3.39145530620089   -0.72016442121252    0.57312895777721
C        -2.77100110476676   -1.15417009672791    1.79344428637548
C        -2.38892719198116    0.02676552533480    2.53177145419910
C        -2.75322204211367    1.14068391307295    1.81766021881639
C        -1.73760074416507   -3.00846253796299    0.58649362160646
C        -0.35062085479873   -3.43665430925829    0.57634867307036
C         0.25749609140407   -2.98265503116554    1.79957745014265
C        -0.72661025648674   -2.26545644550116    2.55898248669518
C        -1.96828071393882   -2.28558147563242    1.79252469377711
C        -0.24623074084315   -3.22016252212842   -1.94630859257241
C         0.76030716227635   -2.29462867633350   -2.59103513530699
C         1.95926768910317   -2.27667187179527   -1.81989941192116
C         1.72510779575765   -2.99568841628161   -0.59226451213796
C         0.37759686039122   -3.46567321679742   -0.59138593506988
C         2.79318933209987   -1.15922280409939   -1.82130662556346
C         2.42078509324701    0.00166356497188   -2.57691628307322
C         2.80449091484153    1.16975821860988   -1.82570182015916
C         3.41905637697700    0.72476681279950   -0.59991328781804
C         3.41273472938501   -0.71669980304959   -0.59828980620521
C         1.98466096992352    2.29106052407899   -1.82439520887925
C         0.75384250862679    2.28766388292685   -2.57895270154198
C        -0.23463157955872    3.00987616671232   -1.81915832362475
C         0.37351877913900    3.44721640010539   -0.59875183655304
C         1.74788905270325    3.00793636412834   -0.59986304829178
C        -1.55681403414644    2.57343958491865   -1.80564420264507
C        -1.94318775866169    1.41520145442946   -2.56645753520484
C        -2.94218084312929    0.69823941059934   -1.81665135776095
C        -3.17723137800216    1.41232508121090   -0.59241444348381
C        -2.30733525508755    2.58376568537752   -0.58067683827346
C        -2.94607271908555   -0.69372063323190   -1.82515956493689
C        -1.93827785941343   -1.41990096283471   -2.56891057907612
C        -1.58413389467986   -2.58504659102749   -1.82846946290516
C        -2.31268203764144   -2.57408098807133   -0.61537712791976
C        -3.17739782110648   -1.41414526700707   -0.60961566136998
C        -0.99163868080576   -0.72073197062106   -3.30993385560828
C        -0.98819133683081    0.71307063645086   -3.29715797032210
C         0.38503879822082    1.16013124116263   -3.29724678228167
C         1.23059644432283   -0.00377881255596   -3.29518448713623
C         0.38925961639487   -1.17131929208584   -3.29527414227219
Cl       -1.95432840408588   -0.00691865539739    5.23312543403308
Cl       -3.13121251245815    3.63349495473370    2.88345244232985
Cl       -0.36284586356769   -4.80466085002941   -2.89922123529415
63
 energy: -142.112934416464 gnorm: 0.002497777635 xtb: 6.4.1 (a3dbbd7)
C        -1.29623252404572    0.00771213309917    3.54475380495850
C        -0.36745819960751   -1.16741736718172    3.30292785655322
C         0.98489279296048   -0.71493357271994    3.27689469991436
C         0.98143736867617    0.72493914060515    3.27137183644017
C        -0.37217062941578    1.18354221466057    3.30158457227397
C         2.33657597436240   -2.57363182954435    0.58605882083265
C         3.18843103648083   -1.41019608469933    0.58375983447964
C         2.95534562557379   -0.68983156962379    1.80850208682965
C         1.95943384387089   -1.40979132552979    2.56378077508086
C         1.58590644392897   -2.56949646126970    1.80858604070239
C         3.19173183152262    1.41954577065019    0.58158060000774
C         2.34037125716988    2.58158697066747    0.58070871203922
C         1.57732594889027    2.57266403824535    1.80316411848819
C         1.95431810976389    1.41557606613265    2.55592668006624
C         2.95426301728755    0.69756902421240    1.80726392558691
C        -0.36531377974001    3.43201909694415    0.58318344907891
C        -1.73126631788517    3.02417619628191    0.58681314127533
C        -2.09613779442648    2.46967542719354    1.95154334417250
C        -0.73143549683916    2.29062988538138    2.58472836557035
C         0.24808864244487    2.98158642012891    1.80550429199726
C        -3.37961193436859    0.71665705158395    0.58098195153645
C        -3.39128277459378   -0.72045832898484    0.57298726335998
C        -2.77085472002931   -1.15435267035222    1.79374191744367
C        -2.38894415829789    0.02634272424468    2.53172094771584
C        -2.75358487133371    1.14042214970461    1.81761623921223
C        -1.73802869687452   -3.00920826789007    0.58752250424584
C        -0.35052430898894   -3.43674754023058    0.57613495894651
C         0.25770076676670   -2.98223655884338    1.79892763481487
C        -0.72641736861733   -2.26533338052275    2.55870050924861
C        -1.96847918919845   -2.28615376331034    1.79280200543417
C        -0.24607701578114   -3.22259687766373   -1.94777364371136
C         0.75987845349306   -2.29555155814024   -2.59155047513249
C         1.95855624249092   -2.27606365474384   -1.81965122150074
C         1.72436163169882   -2.99510563416905   -0.59202964062525
C         0.37719301854975   -3.46656105469904   -0.59207081072350
C         2.79268459216878   -1.15905376808581   -1.82075969053878
C         2.42078641861668    0.00180389275502   -2.57680196006811
C         2.80472035065794    1.17002979083648   -1.82572138837378
C         3.41923865161190    0.72499953440340   -0.59998405136976
C         3.41248720243712   -0.71648890887042   -0.59815186005744
C         1.98463137664238    2.29106727167924   -1.82434077215393
C         0.75388097708255    2.28765787067283   -2.57915545687458
C        -0.23463031479176    3.00984435980391   -1.81936858076493
C         0.37345347825112    3.44715739651882   -0.59891185851787
C         1.74788161320148    3.00797333755333   -0.59992229047204
C        -1.55681541288236    2.57331276552750   -1.80598067970297
C        -1.94314110972548    1.41534181929899   -2.56687691637946
C        -2.94210226634076    0.69804469018706   -1.81689701149759
C        -3.17722610919497    1.41199867273323   -0.59267056052089
C        -2.30744811405633    2.58352571219388   -0.58097052594219
C        -2.94524196225506   -0.69377476865586   -1.82496233564733
C        -1.93718799253136   -1.42018749424303   -2.56889563361484
C        -1.58145015423870   -2.58357613149718   -1.82696728808081
C        -2.31139016598235   -2.57437171295903   -0.61553556508530
C        -3.17637633944634   -1.41400221529474   -0.60956302524539
C        -0.99172040339811   -0.72019350991579   -3.31090013348864
C        -0.98824576872775    0.71325133002041   -3.29779511878998
C         0.38503556621136    1.15992041716865   -3.29698362742094
C         1.23045949633817   -0.00413225052604   -3.29448954918019
C         0.38927898018667   -1.17152968562065   -3.29512577302674
Cl       -1.95430896466801   -0.00652111526119    5.23318802516991
Cl       -3.13081848107306    3.63366262519726    2.88341236928387
Cl       -0.36703760916360   -4.79872613395806   -2.89662953622907
63
 energy: -142.112946610577 gnorm: 0.001372847532 xtb: 6.4.1 (a3dbbd7)
C        -1.29629138009111    0.00745455887031    3.54471357023313
C        -0.36749608644774   -1.16776078043270    3.30314141459665
C         0.98489070569488   -0.71518435685088    3.27687510613302
C         0.98138167408310    0.72467576519889    3.27123925535006
C        -0.37222301481279    1.18327486921959    3.30144107987231
C         2.33690740324176   -2.57381375628620    0.58621268552267
C         3.18862228725257   -1.41035639992115    0.58373303367184
C         2.95536370749614   -0.69002683244655    1.80847431630437
C         1.95951277937706   -1.40998711428109    2.56381610578499
C         1.58610060133475   -2.56983308423153    1.80884296634035
C         3.19163466700147    1.41932324623166    0.58143450407715
C         2.34024906816103    2.58129607111389    0.58053900961872
C         1.57722821682744    2.57240008634275    1.80299277336457
C         1.95421663408001    1.41531076822800    2.55573798137432
C         2.95418223563057    0.69735809115566    1.80711368441125
C        -0.36535790110794    3.43171614546648    0.58298800625828
C        -1.73127237755628    3.02381660288723    0.58662768043799
C        -2.09610665032125    2.46925867863175    1.95128177490823
C        -0.73149026146898    2.29030934448709    2.58453540511229
C         0.24801396796098    2.98130032861414    1.80531680318868
C        -3.37953051932351    0.71635232532762    0.58082846995286
C        -3.39144181778245   -0.72075595498935    0.57297849392077
C        -2.77087520551341   -1.15466354774525    1.79380313255425
C        -2.38896678902028    0.02599379881485    2.53161360824108
C        -2.75356411459397    1.14009874027573    1.81740876799576
C        -1.73793827727025   -3.00920549841275    0.58774977113199
C        -0.35032605277840   -3.43633007509546    0.57650443068639
C         0.25789571760971   -2.98258901727137    1.79933124956669
C        -0.72639967953600   -2.26571585504895    2.55901936493628
C        -1.96854718406107   -2.28658173464662    1.79308982511911
C        -0.24633426810522   -3.22226575911426   -1.94763834656840
C         0.75993272153598   -2.29461518582751   -2.59085221346774
C         1.95883792348152   -2.27580239599943   -1.81945958588184
C         1.72464930229553   -2.99486969894145   -0.59181471278304
C         0.37730568045302   -3.46555986227721   -0.59155825117139
C         2.79306921907749   -1.15906051798660   -1.82092096644715
C         2.42107923422537    0.00183225489108   -2.57715079364021
C         2.80483596061302    1.16993920274468   -1.82588874960894
C         3.41928237846894    0.72487053504406   -0.60014539944445
C         3.41271142480106   -0.71661865630740   -0.59824749934209
C         1.98463311931474    2.29089872942734   -1.82452599183104
C         0.75393422483693    2.28763237808777   -2.57949971264111
C        -0.23466029856235    3.00965762126639   -1.81960682030494
C         0.37339772195481    3.44692501421913   -0.59909812387614
C         1.74779974704642    3.00772947183817   -0.60010016251635
C        -1.55683819740798    2.57310612638664   -1.80620776593704
C        -1.94313757723198    1.41520894121364   -2.56715175827220
C        -2.94221980831112    0.69791608917369   -1.81715390820580
C        -3.17716666365270    1.41169776724697   -0.59283909410731
C        -2.30741675272314    2.58319495659085   -0.58114846658962
C        -2.94555785161945   -0.69384290189883   -1.82505024953153
C        -1.93709356520804   -1.41979413718510   -2.56866507504536
C        -1.58098701305391   -2.58270751029596   -1.82628788005509
C        -2.31129598867699   -2.57407830932395   -0.61529850386836
C        -3.17667356593172   -1.41407425067668   -0.60963041882763
C        -0.99161478193934   -0.72003590017419   -3.31087593530149
C        -0.98817006580145    0.71333987139439   -3.29828933921626
C         0.38516818174967    1.16000707156739   -3.29751270110061
C         1.23078218072759   -0.00398422773246   -3.29494464589336
C         0.38948369231572   -1.17103804545053   -3.29486908085033
Cl       -1.95446192453008   -0.00646891154541    5.23309367973781
Cl       -3.13104943940304    3.63332181340863    2.88300185981245