63
 energy: -142.087466816157 gnorm: 0.138109258268 xtb: 6.4.1 (a3dbbd7)
C        -1.30524132879597    0.00000000000538    3.57807329023422
C        -0.38198622120159   -1.16615737488772    3.28622995044209
C         0.97316446785684   -0.71953336628746    3.26852105894251
C         0.97316446785530    0.71953336630216    3.26852105894473
C        -0.38198622120459    1.16615737490379    3.28622995045274
C         2.33525790565848   -2.58178581715533    0.58265918378867
C         3.18402429064640   -1.41551052449968    0.58305164633927
C         2.94575551469093   -0.69331830539435    1.80727245276214
C         1.94633616722705   -1.41428833030776    2.55691587181014
C         1.57537284635923   -2.57710002453835    1.80571263196464
C         3.18402429064568    1.41551052450295    0.58305164633618
C         2.33525790565840    2.58178581715875    0.58265918378237
C         1.57537284635929    2.57710002454614    1.80571263195897
C         1.94633616722623    1.41428833031814    2.55691587180842
C         2.94575551468950    0.69331830540176    1.80727245276124
C        -0.36286725388684    3.43716117593932    0.57905462418204
C        -1.73307079475598    2.99275061625332    0.57524951534827
C        -1.97752320629156    2.27496221823572    1.79457083857807
C        -0.73661625909686    2.27496497778529    2.56523814188962
C         0.24797249911112    2.99276091828423    1.80557303834060
C        -3.36590164017822    0.71953732333088    0.57375248902312
C        -3.36590164017888   -0.71953732332215    0.57375248902510
C        -2.78105190250946   -1.16617827543313    1.79633080427055
C        -2.63331800734743    0.00000000000824    2.75326019131418
C        -2.78105190250706    1.16617827544612    1.79633080426590
C        -1.73307079475815   -2.99275061624643    0.57524951535621
C        -0.36286725388906   -3.43716117593443    0.57905462419038
C         0.24797249911082   -2.99276091827599    1.80557303834608
C        -0.73661625909661   -2.27496497777287    2.56523814188986
C        -1.97752320629363   -2.27496221822376    1.79457083858313
C        -0.24045690066217   -3.00743782548085   -1.83034246730529
C         0.75231661586805   -2.28840993805800   -2.58424128273324
C         1.97824017738855   -2.28845527885670   -1.82288383798471
C         1.74258918722144   -3.00745695556584   -0.59875134393160
C         0.36899288245124   -3.44813425118672   -0.59934302533638
C         2.79566620008723   -1.16591822783908   -1.82325695863853
C         2.41697359109874   -0.00000000000271   -2.58108531976838
C         2.79566620008779    1.16591822783556   -1.82325695864148
C         3.40959680691412    0.72110795434846   -0.59778286565664
C         3.40959680691433   -0.72110795434857   -0.59778286565546
C         1.97824017738961    2.28845527885345   -1.82288383799084
C         0.75231661586926    2.28840993805322   -2.58424128273948
C        -0.24045690066036    3.00743782547884   -1.83034246731341
C         0.36899288245285    3.44813425118749   -0.59934302534530
C         1.74258918722258    3.00745695556589   -0.59875134393955
C        -1.56217286029713    2.58178679356912   -1.83784975797872
C        -1.93879975252934    1.41553008402889   -2.59849355392507
C        -2.93052386427469    0.69331652856981   -1.84222173469045
C        -3.15943698990261    1.41427069975303   -0.61403881020582
C        -2.32163160591617    2.57707956787764   -0.61452432163280
C        -2.93052386427455   -0.69331652856949   -1.84222173468868
C        -1.93879975252999   -1.41553008403179   -2.59849355392122
C        -1.56217286029877   -2.58178679357009   -1.83784975797151
C        -2.32163160591823   -2.57707956787401   -0.61452432162573
C        -3.15943698990344   -1.41427069974849   -0.61403881020168
C        -0.98033776527170   -0.72109715720207   -3.32415755726590
C        -0.98033776527144    0.72109715719620   -3.32415755726739
C         0.39032106020777    1.16579648770428   -3.31706046827290
C         1.23757908177170   -0.00000000000348   -3.31355725238661
C         0.39032106020722   -1.16579648771087   -3.31706046826971
Cl       -1.60949318930206   -0.00000000015797    5.36443419001363
Cl       -4.09957109178614    0.00000000004209    3.81802953081684
Cl        4.80729883492912   -2.14878563550802    0.90459070377935
63
 energy: -142.111312014451 gnorm: 0.058652850405 xtb: 6.4.1 (a3dbbd7)
C        -1.30894248957777    0.00078604394988    3.57977113150726
C        -0.38671895075319   -1.16587845060559    3.28890746418870
C         0.96655635574944   -0.71565887011128    3.27359574942988
C         0.96808500718211    0.72153416751895    3.27470856711497
C        -0.38618425627559    1.16736427883204    3.28881231816193
C         2.31785801553862   -2.58426862669160    0.58339145144695
C         3.27804439566848   -1.45980333937661    0.60415265378053
C         2.93211244676001   -0.68628239730684    1.81564900687043
C         1.93716848088448   -1.40792035133441    2.55354820547906
C         1.56538545708467   -2.57243279703841    1.80133809392245
C         3.18146908932212    1.41864103503620    0.57997836659269
C         2.33429935438110    2.58039560399651    0.58115729270402
C         1.57281160163133    2.57614328509895    1.80513454095014
C         1.94147976505678    1.41713521185968    2.56111210927123
C         2.93081133648659    0.69399001470572    1.80531212824622
C        -0.36423175644338    3.43806385118882    0.57892108883592
C        -1.73317392371730    2.99287313106086    0.57502781734428
C        -1.97871083801694    2.27537517732572    1.79490098241774
C        -0.73908184472010    2.27547670996351    2.56570637763335
C         0.24608572354594    2.99227309874909    1.80506261456951
C        -3.36674612521056    0.71947703731902    0.57429106610458
C        -3.36733333405793   -0.71900907057811    0.57445084011021
C        -2.78332839452564   -1.16540787346356    1.79718419504510
C        -2.63585794478493    0.00064407830442    2.75395682170750
C        -2.78244787373523    1.16636205819334    1.79653688413300
C        -1.73700120493829   -2.99370693641517    0.57715619638763
C        -0.36937559567418   -3.44136271108166    0.58207740326247
C         0.23934133751490   -2.99610105589482    1.80654481399026
C        -0.74203670489347   -2.27560454852619    2.56772245854767
C        -1.98154738569146   -2.27541325561644    1.79656008711585
C        -0.24211576580321   -3.00630064155811   -1.82902833919304
C         0.75164962062564   -2.28635073178314   -2.58394270618240
C         1.97299221056820   -2.28444513143481   -1.82569711299090
C         1.72946227485180   -3.00081494547334   -0.59559170073889
C         0.36265413912299   -3.45170072341481   -0.59855849302764
C         2.78562394091397   -1.15361701073140   -1.82526111083501
C         2.41320536940025    0.00938485690565   -2.59176566240560
C         2.79268574685750    1.17334024624766   -1.83409285209500
C         3.40340313456945    0.72249054704946   -0.60639596247735
C         3.41438660493698   -0.70963158052271   -0.61892777518266
C         1.97580347817310    2.29418182125122   -1.82864345639097
C         0.74924985009234    2.29205067973681   -2.58824787720134
C        -0.24240481198031    3.00902763709198   -1.83162028610647
C         0.36868546784862    3.44895983709108   -0.60057911148963
C         1.74074358685975    3.01070515027321   -0.60207617760929
C        -1.56324301778885    2.58236063152927   -1.83845001328875
C        -1.94007688548509    1.41621189501148   -2.59924016677284
C        -2.93087366563378    0.69348395536326   -1.84204089941702
C        -3.15940752173656    1.41439783934844   -0.61439161376755
C        -2.32237134795352    2.57687819996351   -0.61469917190708
C        -2.93050710090129   -0.69328546582412   -1.84232144675921
C        -1.93996749960196   -1.41522087912230   -2.59883311159585
C        -1.56316152826023   -2.58073601967563   -1.83687018338506
C        -2.32336812936068   -2.57684829613221   -0.61366294917274
C        -3.16014087510587   -1.41437445014778   -0.61359168462353
C        -0.98097174585005   -0.71995184986229   -3.32562398805421
C        -0.98274752398852    0.72269779050216   -3.32611955749311
C         0.38677532406874    1.16992721581832   -3.32156407320433
C         1.23391985535745    0.00510419528793   -3.32121112833838
C         0.38813238217282   -1.16268139288102   -3.32092888469867
Cl       -1.61111357258375   -0.00078090884914    5.36599323505565
Cl       -4.10182020659572   -0.00018914251968    3.81855359313955
Cl        4.93681556880533   -2.21074346310897    0.93687579959454
63
 energy: -142.117276045073 gnorm: 0.013450159586 xtb: 6.4.1 (a3dbbd7)
C        -1.31324545526358    0.00204568634785    3.57974086002135
C        -0.38995800511250   -1.16433947405079    3.28790073755073
C         0.96271350530982   -0.71296667661151    3.26989280646197
C         0.96354335499468    0.72121833531557    3.27398812220106
C        -0.39012714039145    1.16916915271004    3.29061934274468
C         2.32086993117957   -2.58891520458494    0.58379858072906
C         3.36535245437488   -1.50147149940588    0.62372961503743
C         2.93475852259186   -0.68697743195425    1.81792403106716
C         1.93541954415268   -1.40069783866802    2.54182659849378
C         1.56423170872726   -2.56590692007414    1.79044049965769
C         3.17683263104603    1.41867971185305    0.57967863427908
C         2.33093593406424    2.57650604124836    0.57946341824201
C         1.56900769860035    2.57398464960092    1.80350606470176
C         1.93677820530821    1.41337231093953    2.55692848760883
C         2.92785944351824    0.68811291143356    1.80521509263621
C        -0.36733826353577    3.43944107503168    0.57854250403058
C        -1.73521435256241    2.99418504805091    0.57449615311073
C        -1.98109700902050    2.27666558934979    1.79478270485861
C        -0.74230012881837    2.27670539191870    2.56604926344184
C         0.24333411442087    2.99258642789455    1.80443904188338
C        -3.37003627122531    0.72132770201454    0.57462554563271
C        -3.37003121922203   -0.71669603832276    0.57483508162466
C        -2.78740807811033   -1.16347086845783    1.79780270973170
C        -2.64038604384396    0.00261664968328    2.75455947592986
C        -2.78578551745830    1.16809925186295    1.79654985517262
C        -1.74144767174544   -2.99338999376459    0.57814821988395
C        -0.37303162146169   -3.43787334790879    0.58337567210546
C         0.23644716910773   -2.99315995800139    1.80352740422922
C        -0.74538728341610   -2.27409158973934    2.56696961457191
C        -1.98567323430532   -2.27399468519901    1.79756010834656
C        -0.24356332753993   -3.00214127835671   -1.82697434489503
C         0.75233850341449   -2.28260947515547   -2.58063719921808
C         1.97310166500553   -2.28420003901208   -1.82727970642657
C         1.73010119376726   -2.99671282732488   -0.59062131263539
C         0.36191775715295   -3.44371950555283   -0.59626208010831
C         2.78221044809070   -1.14858959208107   -1.81618459110729
C         2.40749889184813    0.01196434202544   -2.59117713759456
C         2.78513372439108    1.17411542183064   -1.83609836139884
C         3.38760362589275    0.71363012764285   -0.60555736129093
C         3.41670253583178   -0.70752443776002   -0.62262262255150
C         1.97080677109148    2.29596081172012   -1.83129481571562
C         0.74511442641620    2.29536240917738   -2.59232226717021
C        -0.24610418939413    3.01121547360197   -1.83350033291018
C         0.36632606242152    3.44975841240598   -0.60172805015147
C         1.73642499544955    3.01268880272392   -0.60426180751892
C        -1.56631167899412    2.58422419878129   -1.83950079081987
C        -1.94323677607636    1.41802581431517   -2.60040951773261
C        -2.93369833133829    0.69552042487329   -1.84218937260124
C        -3.16154899024894    1.41623117457065   -0.61480071247432
C        -2.32523176634828    2.57826425769753   -0.61515210939350
C        -2.93225300618651   -0.69126400224292   -1.84245707518938
C        -1.94296813554427   -1.41337154020551   -2.59885879622539
C        -1.56496936661451   -2.57827327543414   -1.83600579323779
C        -2.32655229476544   -2.57526891276821   -0.61315177641725
C        -3.16190324316134   -1.41249777319023   -0.61325202163880
C        -0.98314241965615   -0.71838467361692   -3.32631779823783
C        -0.98662723356259    0.72486706857004   -3.32824030682796
C         0.38278038079194    1.17280046356880   -3.32580373041042
C         1.22965907733594    0.00710594068009   -3.32290335959745
C         0.38455798733790   -1.16045604998030   -3.32267548442894
Cl       -1.61588508257415   -0.00315816011386    5.36563518687228
Cl       -4.10614317292737    0.00213533754155    3.81913904092354
Cl        5.03893114717599   -2.25524898295162    0.95666402039996
63
 energy: -142.117571513597 gnorm: 0.008166686024 xtb: 6.4.1 (a3dbbd7)
C        -1.31480757384041    0.00259877122297    3.57997956317357
C        -0.39045692683291   -1.16287213197768    3.28598501264219
C         0.96236317107652   -0.71241900478038    3.26641753856899
C         0.96221233374507    0.72084999621011    3.27170889114463
C        -0.39171834930947    1.16997357538772    3.29100932747904
C         2.32904540063166   -2.59345248991625    0.58503676081357
C         3.38376658652694   -1.51134937796692    0.62974716105459
C         2.94346178575832   -0.69002712699255    1.81999353398692
C         1.93759911697963   -1.39903683282144    2.53858893339188
C         1.56643961511913   -2.56455947981301    1.78749382247427
C         3.18003966073635    1.42011346027941    0.58021094698759
C         2.33046400512121    2.57487198690127    0.57843269256269
C         1.56749069624391    2.57195057412473    1.80150317587498
C         1.93548284241933    1.41021822222093    2.55283518993452
C         2.93160356622175    0.68569552191690    1.80526634095829
C        -0.36897173193642    3.43977049569658    0.57826374533878
C        -1.73675301797230    2.99465951479642    0.57419391327054
C        -1.98290151279184    2.27718574925479    1.79460325477800
C        -0.74395892188847    2.27686119620371    2.56571408191866
C         0.24214170187211    2.99193593694497    1.80357409275408
C        -3.37195637216344    0.72195932680979    0.57448441194508
C        -3.37207821795157   -0.71608262327926    0.57493260899365
C        -2.78955491849804   -1.16297138097941    1.79797911555180
C        -2.64236496806682    0.00335108251525    2.75468156182651
C        -2.78796959903068    1.16885569840939    1.79648030738491
C        -1.74279274965571   -2.99274025133483    0.57821985419324
C        -0.37319923368700   -3.43490462905667    0.58344220322173
C         0.23718235686058   -2.99003631978389    1.80207760131059
C        -0.74581248711160   -2.27243560217937    2.56553700977207
C        -1.98704614675588   -2.27321398334694    1.79760483806206
C        -0.24357107099800   -2.99902123751438   -1.82554850866712
C         0.75249478865520   -2.28109952338175   -2.57998779713583
C         1.97410295495137   -2.28593630370016   -1.82895523688791
C         1.73403308746605   -2.99731412223772   -0.58936021696484
C         0.36320861170470   -3.43858510549931   -0.59484251222224
C         2.78308866446933   -1.15005921690625   -1.81266961426271
C         2.40499630101701    0.01090321367207   -2.58797735256745
C         2.78215456990267    1.17204024314732   -1.83286322089957
C         3.38850171460772    0.71028288370056   -0.60302234928881
C         3.41413374510387   -0.70902171653601   -0.61895070255405
C         1.96889608692996    2.29502821734374   -1.83050658256573
C         0.74386712927061    2.29624680130666   -2.59285812906686
C        -0.24767029355845    3.01218610781168   -1.83411128079465
C         0.36515121583915    3.44988880177986   -0.60188538721742
C         1.73487251371508    3.01291987267927   -0.60441863465301
C        -1.56786604897743    2.58511642365687   -1.84000450780464
C        -1.94487354841809    1.41879204200016   -2.60101839124433
C        -2.93544122616981    0.69631013893855   -1.84253504966601
C        -3.16303937877851    1.41686428414525   -0.61511019264312
C        -2.32699603449156    2.57889319156516   -0.61550731085200
C        -2.93369374773912   -0.69050507708457   -1.84256856235041
C        -1.94451563602288   -1.41250287973053   -2.59885951947576
C        -1.56548314823404   -2.57671424542781   -1.83540487601629
C        -2.32777715278715   -2.57421559188545   -0.61293417193263
C        -3.16346633177499   -1.41182661864420   -0.61320564402281
C        -0.98443737675539   -0.71772504709132   -3.32640211662412
C        -0.98821354443771    0.72575895064665   -3.32897496903541
C         0.38150307614557    1.17357951948468   -3.32645229842087
C         1.22820625258667    0.00748438829344   -3.32187072526692
C         0.38297257143186   -1.15973506006423   -3.32292192811359
Cl       -1.61755437411567   -0.00533457232780    5.36589395902825
Cl       -4.10883359736476    0.00399647870901    3.81828101030821
Cl        5.05498621539298   -2.26023075102380    0.95566918676800
63
 energy: -142.117674399032 gnorm: 0.004655435251 xtb: 6.4.1 (a3dbbd7)
C        -1.31531157665413    0.00296995402057    3.58026573401291
C        -0.39079892420780   -1.16208487594806    3.28488218846603
C         0.96186913123263   -0.71207784914750    3.26410085971118
C         0.96155066607427    0.72088127608711    3.27071500712105
C        -0.39256604502990    1.17078605349152    3.29178114228699
C         2.33402524995687   -2.59581971315585    0.58552545590125
C         3.39197970579205   -1.51597531696235    0.63283644931089
C         2.94866354914971   -0.69169984440124    1.82080504855924
C         1.93826808619166   -1.39763993108741    2.53639144906039
C         1.56710271824383   -2.56335407060311    1.78548566631633
C         3.18216360134708    1.42198214489637    0.58086814901617
C         2.33063902017820    2.57476810128848    0.57809637070348
C         1.56673351161418    2.57075135904706    1.80033254500294
C         1.93466729368850    1.40828683575189    2.55055135239587
C         2.93357861201591    0.68471361257068    1.80525209543288
C        -0.36953182147772    3.44003334086414    0.57819658831964
C        -1.73728255484918    2.99499570444728    0.57407548813927
C        -1.98362646613351    2.27755413776280    1.79451209707076
C        -0.74463336799401    2.27690399349498    2.56554170154100
C         0.24175077832398    2.99168571874999    1.80320669122185
C        -3.37257518538981    0.72212172337917    0.57440380582631
C        -3.37303437464259   -0.71598598082478    0.57503531700122
C        -2.79075037277043   -1.16304913579511    1.79819689420147
C        -2.64279948155426    0.00361549899120    2.75461171742972
C        -2.78866607339240    1.16917850175678    1.79636840094019
C        -1.74367504549265   -2.99269976885104    0.57817636006214
C        -0.37336944865727   -3.43356309272056    0.58335538028005
C         0.23742429228747   -2.98781917292410    1.80113836959433
C        -0.74619180819889   -2.27156679579517    2.56468902062914
C        -1.98787556264412   -2.27318217074678    1.79760215274124
C        -0.24340703634280   -2.99735917208704   -1.82466132248119
C         0.75260395578657   -2.28091066512927   -2.58015831202351
C         1.97442919803113   -2.28754802434809   -1.83054066233525
C         1.73609142206105   -2.99770411219969   -0.58885828814110
C         0.36402198213043   -3.43577442179226   -0.59385671381788
C         2.78342711244951   -1.15139215530475   -1.81032487677004
C         2.40340808157686    0.01017253682594   -2.58563089961147
C         2.78036555581584    1.17071382248871   -1.83065708534754
C         3.38909125029551    0.70839044385143   -0.60093368789902
C         3.41052867825351   -0.70995465900903   -0.61559994278980
C         1.96834687574994    2.29456080245305   -1.83003230651530
C         0.74369911580972    2.29636149432626   -2.59289963330167
C        -0.24798776663064    3.01258849040656   -1.83436682814041
C         0.36491576012738    3.45003109823644   -0.60182705349665
C         1.73440102659821    3.01333896742447   -0.60429882818438
C        -1.56810551446670    2.58535010003146   -1.84022655053679
C        -1.94518602576575    1.41889913625404   -2.60132901705661
C        -2.93588361051608    0.69647807262552   -1.84270800117670
C        -3.16328089784652    1.41697639187103   -0.61525014454357
C        -2.32745216569683    2.57906391646158   -0.61567421983433
C        -2.93420414110884   -0.69036055091796   -1.84265091553617
C        -1.94511653960261   -1.41236179919454   -2.59890943785303
C        -1.56562188701673   -2.57623975975790   -1.83515195401086
C        -2.32831455998735   -2.57377744639460   -0.61286629773342
C        -3.16426299226537   -1.41169081806398   -0.61321311141934
C        -0.98484928018897   -0.71777789212178   -3.32651001822518
C        -0.98860225152539    0.72588041801127   -3.32940391111456
C         0.38130050649287    1.17361101952392   -3.32656279711002
C         1.22776321743616    0.00741593298630   -3.32129659330812
C         0.38228581823807   -1.15981809772550   -3.32322250999626
Cl       -1.62082104469824   -0.00790925692423    5.36556495813415
Cl       -4.10786773301045    0.00564898589041    3.82002391272302
Cl        5.05724288319503   -2.25839867184270    0.95114740941383
63
 energy: -142.117708335256 gnorm: 0.002609911918 xtb: 6.4.1 (a3dbbd7)
C        -1.31545360228633    0.00300735207797    3.58144253173913
C        -0.39091454976267   -1.16163832696167    3.28454576160829
C         0.96159166528262   -0.71192730115600    3.26334568442445
C         0.96146556078367    0.72101434612219    3.27077993060963
C        -0.39283395327522    1.17091000265623    3.29243442558600
C         2.33513586908420   -2.59606811523010    0.58549711436216
C         3.39451066066183   -1.51732723924038    0.63368058633890
C         2.94979819076051   -0.69198318957300    1.82063639614859
C         1.93797670186718   -1.39682887258762    2.53540892434315
C         1.56673489905955   -2.56259852982004    1.78464620019577
C         3.18272654954662    1.42310618236180    0.58131506223073
C         2.33101887830380    2.57526464700349    0.57832714752146
C         1.56664244848818    2.57043910191722    1.80021076476055
C         1.93442537664557    1.40765420785192    2.55012129224571
C         2.93372592091927    0.68460951211796    1.80523837686906
C        -0.36942523068570    3.44003740523038    0.57837836300266
C        -1.73715306402253    2.99499229350570    0.57419404558260
C        -1.98361020734445    2.27753671812380    1.79461871329146
C        -0.74466332012839    2.27659429423388    2.56560689918997
C         0.24182551291672    2.99157917624965    1.80336889221522
C        -3.37232469023195    0.72200596309396    0.57434073005079
C        -3.37299617780568   -0.71605799203345    0.57509387344235
C        -2.79096970120819   -1.16300678949214    1.79841901646134
C        -2.64352091903393    0.00368789111089    2.75515510663493
C        -2.78837251721776    1.16895442420315    1.79625948447750
C        -1.74405063492249   -2.99286053789302    0.57833687061125
C        -0.37357530633957   -3.43346619941570    0.58344398963874
C         0.23728279101158   -2.98697034584117    1.80101175057973
C        -0.74643121374581   -2.27124206680195    2.56459949220412
C        -1.98816172845149   -2.27327580824205    1.79778578365537
C        -0.24329633370799   -2.99717430757320   -1.82432829521747
C         0.75267131071062   -2.28142656165567   -2.58046285347216
C         1.97428961094870   -2.28838127870501   -1.83128207303198
C         1.73626523520361   -2.99768046903777   -0.58866640248113
C         0.36420130968200   -3.43514794174677   -0.59332771936423
C         2.78314015762729   -1.15186988033415   -1.80923268830141
C         2.40291184185256    0.00999031497842   -2.58477577743381
C         2.77978755127510    1.17031134716067   -1.82999630014721
C         3.38871370865768    0.70771645690293   -0.59994489408005
C         3.40778155533304   -0.71012506704610   -0.61386955009577
C         1.96855942183508    2.29452827212986   -1.82989829333293
C         0.74400280678571    2.29614359451292   -2.59271869580404
C        -0.24768972597810    3.01253332820005   -1.83428601274582
C         0.36517174077257    3.45003111529393   -0.60160754676289
C         1.73454242387078    3.01365853728708   -0.60404708176143
C        -1.56771098968364    2.58519118807969   -1.84016910448035
C        -1.94481072297411    1.41871732704277   -2.60133374379209
C        -2.93558484070627    0.69634023086334   -1.84272884127255
C        -3.16288488901371    1.41683555974362   -0.61527796442111
C        -2.32715261176899    2.57891708871416   -0.61561723622033
C        -2.93405190702957   -0.69050046046653   -1.84266426799846
C        -1.94503341076948   -1.41257858786641   -2.59889405433586
C        -1.56556246503464   -2.57646522637095   -1.83507401286899
C        -2.32831456955246   -2.57375611391205   -0.61274276165484
C        -3.16428771799918   -1.41178276808702   -0.61319402772817
C        -0.98466534167347   -0.71808630188217   -3.32652709961456
C        -0.98833305494748    0.72566356845903   -3.32944942683503
C         0.38160726187925    1.17335434025725   -3.32641163417799
C         1.22792249698014    0.00718872120926   -3.32122371618277
C         0.38225242736498   -1.16021964930155   -3.32338572743913
Cl       -1.61493804042651   -0.00952078192141    5.36770113606837
Cl       -4.11265331306031    0.00683395232602    3.81514298780092
Cl        5.05343196506383   -2.25416738633416    0.94616432742045
63
 energy: -142.117717512575 gnorm: 0.002098006585 xtb: 6.4.1 (a3dbbd7)
C        -1.31511058066594    0.00290466090520    3.58049292063755
C        -0.39081195732515   -1.16191603134025    3.28467093750540
C         0.96150240611077   -0.71196918081916    3.26365645119216
C         0.96162272724830    0.72122013968580    3.27142550211042
C        -0.39271054171383    1.17120260427610    3.29293018066393
C         2.33441623160961   -2.59549291508641    0.58527127747589
C         3.39485241318438   -1.51733357060064    0.63353257125268
C         2.94893017154099   -0.69167042421715    1.82024209537737
C         1.93744633938562   -1.39658506852386    2.53529677416949
C         1.56621837569515   -2.56237835969009    1.78450930794438
C         3.18251868117452    1.42347810716462    0.58156059663133
C         2.33144758697189    2.57577546608927    0.57866382231851
C         1.56696623310306    2.57066454074946    1.80052392266229
C         1.93449486878488    1.40776536660254    2.55061917559559
C         2.93308677065029    0.68480640373946    1.80531207056980
C        -0.36896726374345    3.44008562416295    0.57837559911152
C        -1.73671571128809    2.99507868261077    0.57410850020529
C        -1.98321134874274    2.27768663439124    1.79450663477511
C        -0.74428521872223    2.27654513180401    2.56552409192176
C         0.24221829997741    2.99177395550160    1.80349235820891
C        -3.37200530370036    0.72190899914589    0.57433827077926
C        -3.37275521886591   -0.71623259317632    0.57515229160448
C        -2.79089657659225   -1.16338419278364    1.79848615879243
C        -2.64239909423623    0.00368421423835    2.75447372977081
C        -2.78791904431779    1.16906346183728    1.79607797226979
C        -1.74403284429156   -2.99325862595242    0.57830807411103
C        -0.37361931787575   -3.43402648743867    0.58338757859139
C         0.23719486835951   -2.98720719238746    1.80109256627387
C        -0.74639673275678   -2.27153285761240    2.56463193998004
C        -1.98805941261673   -2.27366772490141    1.79774051426873
C        -0.24319625271774   -2.99767367557919   -1.82445950129048
C         0.75278696327232   -2.28205686521446   -2.58077520036666
C         1.97410518853096   -2.28865949011438   -1.83149404153794
C         1.73575779541596   -2.99755888665385   -0.58868388781991
C         0.36418772740392   -3.43564380568895   -0.59331859763759
C         2.78268544539949   -1.15181780105864   -1.80897211110759
C         2.40307835372302    0.01007579555761   -2.58486181193064
C         2.77993134932228    1.17036519550763   -1.83021753734595
C         3.38797767134776    0.70767585543450   -0.59970771758213
C         3.40610068703321   -0.70990784173849   -0.61331305607678
C         1.96905815198145    2.29464487941880   -1.83000983482641
C         0.74445129108678    2.29587727815680   -2.59263250448935
C        -0.24720189610057    3.01231712994162   -1.83424452145441
C         0.36566874163412    3.45002325267217   -0.60159872582288
C         1.73497168248694    3.01381839021686   -0.60392375305760
C        -1.56717295149418    2.58495067609491   -1.84014184693575
C        -1.94428241143457    1.41848338153207   -2.60125193696921
C        -2.93508903993660    0.69615317099109   -1.84267566797927
C        -3.16243867129360    1.41671584026450   -0.61527803242162
C        -2.32666046229098    2.57877284524052   -0.61564068868653
C        -2.93366400960843   -0.69067849520372   -1.84262917577983
C        -1.94469679907926   -1.41281961177929   -2.59888485679994
C        -1.56540896092957   -2.57687913458875   -1.83519005428264
C        -2.32811004392944   -2.57396073648245   -0.61276271268489
C        -3.16403702054249   -1.41195908792918   -0.61318064589736
C        -0.98426878072269   -0.71836967484085   -3.32653014570338
C        -0.98787380923293    0.72540101564542   -3.32935525728621
C         0.38204315893113    1.17307170141225   -3.32630218153224
C         1.22830241253125    0.00695364751920   -3.32142895668538
C         0.38251777391541   -1.16060461427992   -3.32350342663721
Cl       -1.62445380049934   -0.01020274738643    5.36470209320752
Cl       -4.10570130859302    0.00747308428887    3.82214247673021