72
 energy: -177.321826934728 gnorm: 0.278745992214 xtb: 6.4.1 (a3dbbd7)
C        -1.23626340000000    0.00000000000000    3.32997640000000
C        -0.38202640000000   -1.17575640000000    3.32997640000000
C         1.00015810000000   -0.72665740000000    3.32997640000000
C         1.00015810000000    0.72665740000000    3.32997640000000
C        -0.38202640000000    1.17575640000000    3.32997640000000
C         2.34433560000000   -2.60145750000000    0.59464210000000
C         3.19857260000000   -1.42570110000000    0.59464210000000
C         2.96246730000000   -0.69904370000000    1.83090550000000
C         1.96230920000000   -1.42570110000000    2.59495830000000
C         1.58028280000000   -2.60145750000000    1.83090550000000
C         3.19857260000000    1.42570110000000    0.59464210000000
C         2.34433560000000    2.60145750000000    0.59464210000000
C         1.58028280000000    2.60145750000000    1.83090550000000
C         1.96230920000000    1.42570110000000    2.59495830000000
C         2.96246730000000    0.69904370000000    1.83090550000000
C        -0.36750900000000    3.48258920000000    0.59464210000000
C        -1.74969350000000    3.03349030000000    0.59464210000000
C        -1.98579880000000    2.30683290000000    1.83090550000000
C        -0.74953540000000    2.30683290000000    2.59495830000000
C         0.25062270000000    3.03349030000000    1.83090550000000
C        -3.42570570000000    0.72665740000000    0.59464210000000
C        -3.42570570000000   -0.72665740000000    0.59464210000000
C        -2.80757400000000   -1.17575640000000    1.83090550000000
C        -2.42554760000000    0.00000000000000    2.59495830000000
C        -2.80757400000000    1.17575640000000    1.83090550000000
C        -1.74969350000000   -3.03349030000000    0.59464210000000
C        -0.36750900000000   -3.48258920000000    0.59464210000000
C         0.25062270000000   -3.03349030000000    1.83090550000000
C        -0.74953540000000   -2.30683290000000    2.59495830000000
C        -1.98579880000000   -2.30683290000000    1.83090550000000
C        -0.25062270000000   -3.03349030000000   -1.83090550000000
C         0.74953540000000   -2.30683290000000   -2.59495830000000
C         1.98579880000000   -2.30683290000000   -1.83090550000000
C         1.74969350000000   -3.03349030000000   -0.59464210000000
C         0.36750900000000   -3.48258920000000   -0.59464210000000
C         2.80757400000000   -1.17575640000000   -1.83090550000000
C         2.42554760000000    0.00000000000000   -2.59495830000000
C         2.80757400000000    1.17575640000000   -1.83090550000000
C         3.42570570000000    0.72665740000000   -0.59464210000000
C         3.42570570000000   -0.72665740000000   -0.59464210000000
C         1.98579880000000    2.30683290000000   -1.83090550000000
C         0.74953540000000    2.30683290000000   -2.59495830000000
C        -0.25062270000000    3.03349030000000   -1.83090550000000
C         0.36750900000000    3.48258920000000   -0.59464210000000
C         1.74969350000000    3.03349030000000   -0.59464210000000
C        -1.58028280000000    2.60145750000000   -1.83090550000000
C        -1.96230920000000    1.42570110000000   -2.59495830000000
C        -2.96246730000000    0.69904370000000   -1.83090550000000
C        -3.19857260000000    1.42570110000000   -0.59464210000000
C        -2.34433560000000    2.60145750000000   -0.59464210000000
C        -2.96246730000000   -0.69904370000000   -1.83090550000000
C        -1.96230920000000   -1.42570110000000   -2.59495830000000
C        -1.58028280000000   -2.60145750000000   -1.83090550000000
C        -2.34433560000000   -2.60145750000000   -0.59464210000000
C        -3.19857260000000   -1.42570110000000   -0.59464210000000
C        -1.00015810000000   -0.72665740000000   -3.32997640000000
C        -1.00015810000000    0.72665740000000   -3.32997640000000
C         0.38202640000000    1.17575640000000   -3.32997640000000
C         1.23626340000000    0.00000000000000   -3.32997640000000
C         0.38202640000000   -1.17575640000000   -3.32997640000000
C        -1.76086815247998    0.00000000000000    4.78849957557021
F        -0.76911826531252    0.00000000000000    5.67468926254662
F        -2.50968386795825   -1.06794314680471    5.04863888333743
F        -2.50968386795825    1.06794314680471    5.04863888333743
C        -1.08016271022039    3.32439912180418    3.71645041587937
F        -1.46215754230407    4.50005299330749    3.22571838851551
F        -2.06425285383526    2.89718320022386    4.50255037491024
F        -0.03290491502764    3.55721032900471    4.50254840735999
C        -1.08016271022039   -3.32439912180418    3.71645041587937
F        -1.46215754230407   -4.50005299330749    3.22571838851551
F        -0.03290491502764   -3.55721032900471    4.50254840735999
F        -2.06425285383526   -2.89718320022386    4.50255037491024
72
 energy: -177.404024355522 gnorm: 0.168462618026 xtb: 6.4.1 (a3dbbd7)
C        -1.24063803119835    0.00000016683765    3.34517184081393
C        -0.34851758676418   -1.16531275128824    3.33435827128393
C         0.99663869111881   -0.72669840031571    3.31942264799689
C         0.99663854268191    0.72669858566876    3.31942228718977
C        -0.34851759674650    1.16531281119911    3.33435824149744
C         2.34234392563466   -2.59391917539540    0.58555672067789
C         3.18568433580610   -1.42060188968085    0.59100557147645
C         2.94932333031909   -0.70332587186699    1.82967711574936
C         1.97033228289565   -1.42754265335018    2.58487358004822
C         1.58442663361043   -2.59497831862637    1.81088285026706
C         3.18568426036054    1.42060189572354    0.59100554441744
C         2.34234384651137    2.59391927945499    0.58555671178659
C         1.58442661805136    2.59497857722959    1.81088283479924
C         1.97033183416591    1.42754258305258    2.58487294583434
C         2.94932332543053    0.70332595470095    1.82967700134889
C        -0.36047273848235    3.47017706123913    0.58347471635692
C        -1.74142750441650    3.02586302787757    0.58366693204291
C        -1.99108687943986    2.31733266987416    1.79989320266513
C        -0.75945256588694    2.34860741519064    2.63229054036699
C         0.26763224935963    3.01830277885484    1.79443238694153
C        -3.42353118043055    0.72398441871221    0.57673976524979
C        -3.42353121077582   -0.72398440191786    0.57673976891186
C        -2.79655076611469   -1.17310363061840    1.79830352121803
C        -2.43618938682206    0.00000005113467    2.54088454316596
C        -2.79655080227056    1.17310367681296    1.79830356649771
C        -1.74142749716064   -3.02586309913382    0.58366679946105
C        -0.36047267832097   -3.47017708660616    0.58347456038075
C         0.26763232800974   -3.01830286182287    1.79443219719506
C        -0.75945272814632   -2.34860777059457    2.63229055663475
C        -1.99108693329070   -2.31733275580872    1.79989304699281
C        -0.25009814584668   -3.02254946305414   -1.82865428136699
C         0.74556291185859   -2.29807593040670   -2.58753625788198
C         1.97806125333870   -2.29903781969355   -1.82731860216029
C         1.74568754901034   -3.02337754005656   -0.59933092101498
C         0.37057541667470   -3.46769136074772   -0.60089695832142
C         2.79685438405899   -1.17114473456480   -1.82474906370714
C         2.41636608192804   -0.00000001442328   -2.58496016251637
C         2.79685437325116    1.17114472629867   -1.82474906507007
C         3.41013853623905    0.72544842103904   -0.59254425889963
C         3.41013853719418   -0.72544839671337   -0.59254422658446
C         1.97806125498613    2.29903784059869   -1.82731859030721
C         0.74556290124802    2.29807593002018   -2.58753619570434
C        -0.25009815893074    3.02254946427720   -1.82865418013539
C         0.37057533196049    3.46769138917741   -0.60089681680455
C         1.74568753155863    3.02337754865314   -0.59933088217627
C        -1.57629517957955    2.59236835535771   -1.82696170618490
C        -1.95688243875730    1.41954311108672   -2.58774365087813
C        -2.95345456667085    0.69691894890602   -1.82933511772035
C        -3.19143131619404    1.42357982525235   -0.60247952612576
C        -2.34083857223047    2.59519976129636   -0.60240281975009
C        -2.95345457995927   -0.69691893937021   -1.82933511807539
C        -1.95688241868501   -1.41954309733495   -2.58774365353443
C        -1.57629517844199   -2.59236836136274   -1.82696178784741
C        -2.34083857322819   -2.59519977047263   -0.60240290159170
C        -3.19143133218154   -1.42357982225228   -0.60247955708013
C        -0.99788987569664   -0.72345998926368   -3.31846213669685
C        -0.99788987448595    0.72345999662210   -3.31846212474224
C         0.37957652766384    1.17060444980183   -3.31846361863527
C         1.22990653922084   -0.00000000188938   -3.31768419879331
C         0.37957652769271   -1.17060444838974   -3.31846363795596
C        -1.76881760473829    0.00000024979161    4.82467369535282
F        -0.77146263121298    0.00000013981613    5.70796171036833
F        -2.54281641259822   -1.03579418209055    5.09578806899699
F        -2.54281656014896    1.03579447132412    5.09578824633124
C        -1.07886595210096    3.38828875593443    3.73600056754722
F        -1.44564211680338    4.56043163041080    3.22578929427134
F        -2.07495136898288    3.00477108733127    4.51585863067823
F        -0.02136946820133    3.59250110474474    4.51834216542685
C        -1.07886620133865   -3.38828908125893    3.73600059001454
F        -1.44564235074765   -4.56043216156336    3.22578952990849
F        -0.02136956554319   -3.59250123182170    4.51834222902481
F        -2.07495152875222   -3.00477114754745    4.51585879919541
72
 energy: -177.452867126218 gnorm: 0.063916566517 xtb: 6.4.1 (a3dbbd7)
C        -1.25262190220972    0.00000006381076    3.42598728512269
C        -0.31209073760761   -1.16025030169458    3.30193793026703
C         0.97717523408950   -0.72859650130069    3.27132856329988
C         0.97717522082863    0.72859653299850    3.27132851854518
C        -0.31209074817307    1.16025027117369    3.30193777751400
C         2.34209326844013   -2.59444181747467    0.57426035752471
C         3.17381135081630   -1.41993019080371    0.58637442913618
C         2.93580316563390   -0.71144400458054    1.82950649668227
C         1.98464178854424   -1.43152684805571    2.56560967950026
C         1.58669957321873   -2.59224295183947    1.78823210212916
C         3.17381136205591    1.41993018061257    0.58637444338908
C         2.34209328846276    2.59444187366586    0.57426035065195
C         1.58669959020777    2.59224298462292    1.78823207952679
C         1.98464162158456    1.43152677313149    2.56560949233550
C         2.93580319760559    0.71144401516753    1.82950645119146
C        -0.35437667503917    3.44859162748486    0.57025385224567
C        -1.73251806211791    2.99926011083108    0.57671504856785
C        -1.98535758761802    2.28922512537677    1.76207286613674
C        -0.77574796728759    2.42949758433295    2.68346214536757
C         0.28507081648434    3.01203224984467    1.75533613667457
C        -3.42026731890510    0.71922275489600    0.55920907936572
C        -3.42026729853696   -0.71922276035214    0.55920907639913
C        -2.77678931054818   -1.14981431792050    1.77199593790793
C        -2.43773238655601   -0.00000000261508    2.51252411053406
C        -2.77678932406192    1.14981431263332    1.77199595020966
C        -1.73251805046540   -2.99926009432035    0.57671502370618
C        -0.35437664177705   -3.44859158298624    0.57025383255972
C         0.28507085433032   -3.01203228828065    1.75533611255379
C        -0.77574805276510   -2.42949773265233    2.68346221611255
C        -1.98535757439654   -2.28922511566671    1.76207282549902
C        -0.24791062917234   -3.01421433880027   -1.83065974859471
C         0.74380983723142   -2.29078534813863   -2.58284791125754
C         1.97203476936467   -2.29405778045697   -1.82509384096073
C         1.74187610155049   -3.01973050508249   -0.60748237969847
C         0.37430170638511   -3.46144306760942   -0.61150754308761
C         2.78751723458451   -1.16719796586430   -1.81725026197050
C         2.40961729415437    0.00000000252560   -2.57337892451495
C         2.78751722837885    1.16719797595372   -1.81725026137499
C         3.39553114238565    0.72598102753593   -0.58941457961348
C         3.39553112711425   -0.72598099201036   -0.58941456341444
C         1.97203477301576    2.29405780254528   -1.82509385236040
C         0.74380983539916    2.29078535736481   -2.58284789183313
C        -0.24791063533367    3.01421434362968   -1.83065971557211
C         0.37430168062081    3.46144308370011   -0.61150750846729
C         1.74187613613743    3.01973050343564   -0.60748236263029
C        -1.57125238069577    2.58385437031537   -1.82527860106212
C        -1.94943225118265    1.41333750210683   -2.58432180365192
C        -2.94409383018835    0.69523897861370   -1.83342972753983
C        -3.18362481735703    1.41943184987850   -0.61274475329892
C        -2.33769714915693    2.58490926421597   -0.61350768165500
C        -2.94409382823542   -0.69523898316054   -1.83342972549212
C        -1.94943222654419   -1.41333749953185   -2.58432180376125
C        -1.57125237318023   -2.58385437061054   -1.82527863373215
C        -2.33769713134534   -2.58490925353206   -0.61350769922517
C        -3.18362480942458   -1.41943185417063   -0.61274477692941
C        -0.99211300891371   -0.72000605189811   -3.30976964971109
C        -0.99211301568600    0.72000606019893   -3.30976964435325
C         0.38072418037096    1.16541938992768   -3.30912207100472
C         1.22669525454111    0.00000001142514   -3.30626526100061
C         0.38072418865507   -1.16541937705497   -3.30912207460606
C        -1.78387322276176    0.00000010192991    4.89134666185709
F        -0.77206485607958    0.00000003557482    5.75711335227128
F        -2.57483964517970   -1.01923442002003    5.14731395196721
F        -2.57483974081956    1.01923446550574    5.14731408028212
C        -1.08586752550553    3.45524083380438    3.76825863329315
F        -1.43897953647722    4.62211640889993    3.23475196496914
F        -2.09271612903096    3.09515776169634    4.53584501575291
F        -0.01458061457780    3.62880858294627    4.54380367520851
C        -1.08586760972740   -3.45524090362680    3.76825865022208
F        -1.43897959515800   -4.62211653325175    3.23475200493293
F        -0.01458062464913   -3.62880863020126    4.54380373450527
F        -2.09271619422786   -3.09515778874889    4.53584513457813
72
 energy: -177.468074772990 gnorm: 0.035574812675 xtb: 6.4.1 (a3dbbd7)
C        -1.26794821964544    0.00000029295590    3.47626478377918
C        -0.33073423577656   -1.17546820456583    3.30636440797687
C         0.95729648927578   -0.73221546210275    3.25148071014818
C         0.95729698797135    0.73222103002241    3.25148968884113
C        -0.33072941453162    1.17545576412956    3.30633194480560
C         2.33816747815304   -2.59518757824864    0.56421707425664
C         3.17166906453507   -1.42169862780763    0.57633233411930
C         2.92792986843988   -0.71330616195093    1.81970581699376
C         1.98071341212316   -1.43271827755964    2.55425382471002
C         1.58246369426734   -2.59870064486581    1.78395611098298
C         3.17166338288450    1.42170102392528    0.57633386798763
C         2.33816443003714    2.59519533187668    0.56421912722829
C         1.58246366330977    2.59871481244587    1.78395699667695
C         1.98068993521194    1.43270974722302    2.55422458256531
C         2.92793960254845    0.71331411388234    1.81971057103763
C        -0.34974637372526    3.44367971585461    0.56469161654752
C        -1.72483833582100    2.99389438435569    0.57112170608486
C        -1.97886574336322    2.30032422341628    1.77004829575293
C        -0.78741852323326    2.46881426362283    2.71515129721570
C         0.27910264322334    3.02300107036978    1.76442779063680
C        -3.39813452819775    0.71905486332331    0.55107024729180
C        -3.39813533678000   -0.71905416711300    0.55107039771048
C        -2.75832273940260   -1.15176855857757    1.77229552832686
C        -2.42602091692473    0.00000091354833    2.52275936049322
C        -2.75832076132594    1.15176889888666    1.77229471404708
C        -1.72483917383571   -2.99389389429768    0.57112135562444
C        -0.34974416145894   -3.44367355148573    0.56469002552645
C         0.27910201154423   -3.02300092137899    1.76443073996289
C        -0.78742748890907   -2.46882772842371    2.71516625603120
C        -1.97887282238366   -2.30033009941793    1.77005289824158
C        -0.24471991285266   -3.01343983302621   -1.84375203307933
C         0.74638409886634   -2.29035606249846   -2.59514524917378
C         1.97382298194210   -2.29524697653044   -1.83685561319723
C         1.74317771676041   -3.02135469084496   -0.61985617926193
C         0.37612289355795   -3.45891279401658   -0.62184760666353
C         2.78635290254709   -1.16687815644272   -1.82445948312312
C         2.40863003708315    0.00000099218553   -2.57883868477198
C         2.78635141459555    1.16688104383185   -1.82445895432943
C         3.39264549456836    0.72669885756739   -0.59685421905507
C         3.39264671937219   -0.72669379217592   -0.59685473947941
C         1.97382262560147    2.29525083640937   -1.83685474363428
C         0.74638270569507    2.29035693998175   -2.59514191426701
C        -0.24472134931191    3.01344074490258   -1.84374808109173
C         0.37611969939696    3.45891422477724   -0.62184432225944
C         1.74317695075035    3.02135748862339   -0.61985392877170
C        -1.56681642555425    2.58240974820638   -1.83818663536813
C        -1.94614310490840    1.41295572742054   -2.59825377465655
C        -2.94180016596145    0.69547057921574   -1.84872127458276
C        -3.17448466016648    1.41847696709050   -0.62469753146610
C        -2.32879515521825    2.58177801248625   -0.62412465285940
C        -2.94180078721080   -0.69546926133305   -1.84872204113952
C        -1.94614228234807   -1.41295389658778   -2.59825419246371
C        -1.56681538535798   -2.58240914596729   -1.83818960527001
C        -2.32879380381617   -2.58177603499518   -0.62412642026975
C        -3.17448423590500   -1.41847566188605   -0.62469836303137
C        -0.98836447460131   -0.71951543717310   -3.32207281615404
C        -0.98836468189552    0.71951734332205   -3.32207197426174
C         0.38367362222802    1.16465551044310   -3.31978958033074
C         1.22839726813205    0.00000105909499   -3.31405264877523
C         0.38367375585456   -1.16465346295935   -3.31978984090870
C        -1.80646082224215    0.00000711779473    4.93390085247255
F        -0.79622907777924    0.00000542381849    5.80374310693083
F        -2.58682042580692   -1.03928406409218    5.18744925292102
F        -2.58682472531068    1.03929210413701    5.18745155771051
C        -1.08637714725213    3.51668451555382    3.78854499099091
F        -1.40845215810765    4.69397585333021    3.24322066261927
F        -2.10603102481093    3.18398633450949    4.56495726310213
F        -0.01695373750871    3.69098052209753    4.57092505361166
C        -1.08638975707540   -3.51670139235400    3.78855602327645
F        -1.40846570024805   -4.69399367946200    3.24323189792202
F        -0.01696319818883   -3.69099540855140    4.57093479128061
F        -2.10604077220664   -3.18399476794599    4.56496935737739
72
 energy: -177.475326518193 gnorm: 0.014730564066 xtb: 6.4.1 (a3dbbd7)
C        -1.28535170146921    0.00000256705651    3.52149695671448
C        -0.35587805149870   -1.18916661708286    3.31073545875984
C         0.92925380406598   -0.73376813538626    3.22831488616435
C         0.92925574259727    0.73376079025138    3.22831449374807
C        -0.35588467068225    1.18916743849070    3.31072903804797
C         2.33218055653131   -2.59680638756145    0.55630301231185
C         3.16701393446554   -1.42355077651265    0.56798894127824
C         2.91574077378726   -0.71317767982732    1.80950457670394
C         1.96573443127234   -1.42975075038049    2.54040411279983
C         1.57484737913423   -2.60433156564840    1.77923688457894
C         3.16702186751932    1.42355120838543    0.56798870734320
C         2.33218618465710    2.59680574834429    0.55630159610263
C         1.57484894465585    2.60432463613774    1.77923570529049
C         1.96573863410995    1.42974718010559    2.54040525807441
C         2.91574729530066    0.71317601056187    1.80950634065308
C        -0.34681313743216    3.44233668476495    0.56171127362080
C        -1.71844863583613    2.99064712620736    0.56859446397125
C        -1.97217509857713    2.31188383595930    1.78338644408232
C        -0.79605005520339    2.50007498814394    2.73870918237677
C         0.27175797886641    3.03657311215145    1.77763434144155
C        -3.36960285783217    0.71791326477617    0.54856379093830
C        -3.36960225943785   -0.71791431341693    0.54856405790482
C        -2.73824228450515   -1.15364115340896    1.77673225614377
C        -2.41139172921932   -0.00000015607192    2.53528917781906
C        -2.73824583337237    1.15364128695169    1.77673379433097
C        -1.71844650728438   -2.99064632615572    0.56859496550421
C        -0.34681185685811   -3.44233635238666    0.56171218575196
C         0.27176101240061   -3.03657899940121    1.77763624043408
C        -0.79604496640339   -2.50007282144307    2.73870399343600
C        -1.97217090107187   -2.31188157377820    1.78338516412232
C        -0.24111659285971   -3.01345942032980   -1.85265952051501
C         0.74987792794528   -2.29179170293189   -2.60635620943746
C         1.97724490423232   -2.29762197096480   -1.84784607638709
C         1.74421405524004   -3.02401677485476   -0.62959828130489
C         0.37665806239378   -3.45896943241326   -0.62795947715166
C         2.78700560838478   -1.16710314546586   -1.83247662876661
C         2.40989365664551    0.00000044208235   -2.58680152556968
C         2.78700590488459    1.16710389628010   -1.83247695704094
C         3.39074893805651    0.72742870201454   -0.60365200223550
C         3.39074534750484   -0.72742707909258   -0.60365122574000
C         1.97724543131331    2.29762235699133   -1.84784747724889
C         0.74987827902484    2.29179217673129   -2.60635714099601
C        -0.24111621563280    3.01345947520098   -1.85266035812660
C         0.37665904163872    3.45896804883799   -0.62796043923099
C         1.74421683134207    3.02401607463812   -0.62959904377154
C        -1.56187958839997    2.58130921324344   -1.84700416246599
C        -1.94345428148178    1.41390908204952   -2.61037885552547
C        -2.93792642385873    0.69561521301981   -1.85925562444307
C        -3.16277544626511    1.41617216079502   -0.63067810810156
C        -2.31847677613610    2.57867000811371   -0.62904617528937
C        -2.93792694354347   -0.69561612394989   -1.85925571635118
C        -1.94345411563765   -1.41390960052374   -2.61037859083873
C        -1.56187942335739   -2.58130942150921   -1.84700353313897
C        -2.31847543265121   -2.57867015761821   -0.62904501013339
C        -3.16277456848433   -1.41617282572246   -0.63067786857169
C        -0.98530464351488   -0.71983430458641   -3.33481410422736
C        -0.98530451026488    0.71983428217614   -3.33481391964160
C         0.38696708673675    1.16529497815707   -3.33104344217761
C         1.23124456480834    0.00000042239181   -3.32428856773100
C         0.38696705379646   -1.16529430447594   -3.33104284949282
C        -1.82527964138387    0.00000438612510    4.97104546970494
F        -0.82371402089094    0.00000632311304    5.85370634916423
F        -2.59362593407160   -1.05816863407278    5.22233231949231
F        -2.59363263679698    1.05817088322110    5.22233505014768
C        -1.08361065146959    3.57220384889331    3.80054788586079
F        -1.36675630851514    4.75755430042571    3.23750316611640
F        -2.11917558861746    3.27592489515369    4.58484238232332
F        -0.01981065757359    3.75130942860790    4.59201236685360
C        -1.08360700420489   -3.57220161348407    3.80054280741183
F        -1.36675418838668   -4.75755157938562    3.23749824121171
F        -0.01980736778146   -3.75131062542897    4.59200810176953
F        -2.11917192133192   -3.27592415127907    4.58483922926874
72
 energy: -177.476818373428 gnorm: 0.013452278524 xtb: 6.4.1 (a3dbbd7)
C        -1.29464960719129    0.00000106034931    3.54591008071188
C        -0.36890907546850   -1.19545125444284    3.31588792066787
C         0.91178172169595   -0.73363852645322    3.21536218469000
C         0.91178213729170    0.73363909030578    3.21536098931951
C        -0.36890945470040    1.19544987628189    3.31588238292985
C         2.32871031887507   -2.59862169988704    0.55302305381703
C         3.16245990996958   -1.42444009452699    0.56412407386331
C         2.90494574868512   -0.71227737748875    1.80303869120119
C         1.95287731818930   -1.42669082617919    2.53205956054272
C         1.56974513317610   -2.60615397941280    1.77544060085669
C         3.16246153109007    1.42444139743771    0.56412423916473
C         2.32871043628467    2.59862169674466    0.55302266184196
C         1.56974546976197    2.60615474403450    1.77544117963200
C         1.95287987790116    1.42669457095623    2.53206293029814
C         2.90494722727316    0.71227885208710    1.80304045748397
C        -0.34596172590651    3.44534600747349    0.56150084669630
C        -1.71564420001824    2.99117630922970    0.56982858712183
C        -1.96756368622792    2.31696575442557    1.79083143872441
C        -0.79811775464677    2.51565657905532    2.74953238703317
C         0.26901986446254    3.04460273588176    1.78318204218938
C        -3.35136223436617    0.71688248258059    0.55159662937488
C        -3.35136192732242   -0.71688264868303    0.55159653716825
C        -2.72512431786548   -1.15351080057945    1.78147665896053
C        -2.40211944436361   -0.00000055780265    2.54352463657087
C        -2.72512424136142    1.15351051761507    1.78147673024107
C        -1.71564389342066   -2.99117623858624    0.56982851681489
C        -0.34596216875701   -3.44534697799384    0.56150109943027
C         0.26901967081015   -3.04460178226146    1.78318175752806
C        -0.79811844015723   -2.51565649296678    2.74953097504317
C        -1.96756316253816   -2.31696505405318    1.79083117055511
C        -0.23921286225454   -3.01437100200599   -1.85517480821626
C         0.75142861979854   -2.29317354326576   -2.61121021889458
C         1.97877828437373   -2.29928471325037   -1.85277475114202
C         1.74456585908196   -3.02619109492606   -0.63361831318257
C         0.37644492680508   -3.46093763802602   -0.62938979623636
C         2.78725593426084   -1.16748641607962   -1.83695878505099
C         2.41092464770472   -0.00000008002656   -2.59193230778164
C         2.78725604665025    1.16748633956711   -1.83695920917991
C         3.38905892921530    0.72775428064624   -0.60698461969481
C         3.38905923244463   -0.72775408164298   -0.60698482500109
C         1.97877818647642    2.29928441060970   -1.85277543497217
C         0.75142860035455    2.29317328055432   -2.61121102286497
C        -0.23921271410084    3.01437066770494   -1.85517536962226
C         0.37644526098995    3.46093713916570   -0.62939054079617
C         1.74456554758701    3.02619068434249   -0.63361886209019
C        -1.55906303557762    2.58146890081236   -1.84882431136050
C        -1.94154886382532    1.41474800522438   -2.61369632881550
C        -2.93341225492898    0.69554123494227   -1.85985205829926
C        -3.15417027688235    1.41426135155253   -0.62917280852165
C        -2.31196172618075    2.57762368081999   -0.62803276873520
C        -2.93341246982014   -0.69554180032225   -1.85985234968407
C        -1.94154902735510   -1.41474864565164   -2.61369653030275
C        -1.55906305743272   -2.58146922403446   -1.84882409747990
C        -2.31196183838443   -2.57762409885220   -0.62803266225851
C        -3.15417016690107   -1.41426168170954   -0.62917290611370
C        -0.98412577003714   -0.72021223965979   -3.34006616201440
C        -0.98412578746352    0.72021159147750   -3.34006619895215
C         0.38835895324705    1.16619688050391   -3.33662791523142
C         1.23255556964077   -0.00000027218414   -3.33036933474684
C         0.38835903538704   -1.16619752096647   -3.33662778480820
C        -1.83576102520310    0.00000138084195    4.99002587539994
F        -0.84292804344625    0.00000418363808    5.88388892838864
F        -2.59817405070233   -1.06617346161906    5.23767324695366
F        -2.59817861220218    1.06617227245116    5.23767270890611
C        -1.08031647578311    3.60387584894933    3.80071690224486
F        -1.33919800238033    4.78861341628085    3.22085901638111
F        -2.12672923201095    3.33201507077446    4.58351486799864
F        -0.02300016188063    3.78683840682055    4.59972009565463
C        -1.08031775036103   -3.60387660659022    3.80071447525485
F        -1.33920020522650   -4.78861365175361    3.22085629257682
F        -0.02300130728288   -3.78684119707656    4.59971741035736
F        -2.12673014403250   -3.33201742117775    4.58351401958229
72
 energy: -177.477229987289 gnorm: 0.011387185885 xtb: 6.4.1 (a3dbbd7)
C        -1.29733057567434    0.00000117445494    3.55588189791428
C        -0.37257355311319   -1.19744413130590    3.32169300218432
C         0.90637408769822   -0.73316916753736    3.21096735742264
C         0.90637318411474    0.73316703666461    3.21096513813005
C        -0.37257667469501    1.19745270844130    3.32170715429955
C         2.32840558350647   -2.59965714777592    0.55230034508253
C         3.16107387202747   -1.42467049139816    0.56288427682576
C         2.90089582021903   -0.71154255556244    1.80009490370953