63
 energy: -142.084835286293 gnorm: 0.139551078940 xtb: 6.4.1 (a3dbbd7)
C        -1.29585809770389    0.00401118895665    3.54517689253707
C        -0.36796043462932   -1.17243305037605    3.30515820978008
C         0.98298838983527   -0.72191219207564    3.27512267938171
C         0.98156472667820    0.71960753568128    3.26971969810914
C        -0.37066843460465    1.17924059903467    3.30150764336582
C         2.33648296603916   -2.58548060331365    0.57950289353032
C         3.18657767574002   -1.41946403927647    0.57781419519059
C         2.94957050639235   -0.69854930596759    1.80123308070154
C         1.95308396824160   -1.41752165468763    2.55613481575760
C         1.57961582989334   -2.57968580837377    1.80518673242103
C         3.18767024140451    1.40991878522763    0.57593180000620
C         2.33807592116844    2.57402574447607    0.57591940981122
C         1.57683795432701    2.56605672107525    1.79975339071644
C         1.95304946465436    1.40835201077487    2.55205927518980
C         2.95072023087345    0.68875745016373    1.80098024572921
C        -0.36516779407368    3.42666371337356    0.57921714423118
C        -1.72924376763824    3.01648005769000    0.58287705261872
C        -2.09463355992581    2.46231283092052    1.94730853815858
C        -0.73027134402217    2.28553619303067    2.58224921102021
C         0.24829448349984    2.97593693112150    1.80334175266563
C        -3.37466967425340    0.70300551354290    0.57574930054980
C        -3.39003092747716   -0.73268815647906    0.56838248265369
C        -2.76818811332164   -1.16356142379097    1.78871572221350
C        -2.38904763706855    0.02437925876362    2.53264263719760
C        -2.74834472563595    1.12995086275151    1.81420011519069
C        -1.73481952350512   -3.00995345714269    0.57938225060336
C        -0.36149853481650   -3.44686666227317    0.58178847315895
C         0.25217194581416   -2.99475012292755    1.80551621994623
C        -0.72930832442940   -2.27346636839910    2.56467955448571
C        -1.97147545426586   -2.28746259170963    1.79868366133100
C        -0.24419850626392   -3.01431906333444   -1.82647673840836
C         0.74940205407495   -2.29291975825760   -2.58286291053874
C         1.97453700933417   -2.29239152843074   -1.82543977586922
C         1.74139873400736   -3.01127177410490   -0.59946235558356
C         0.36858334367966   -3.45436466613801   -0.59762914044760
C         2.79442417392884   -1.17031401259636   -1.82833550603033
C         2.41574661888024   -0.00512369156855   -2.58546959716668
C         2.79806943075341    1.16104826420258   -1.83045397172065
C         3.41356646771945    0.71553904943849   -0.60565027142670
C         3.41126633561149   -0.72579612454708   -0.60436594395851
C         1.98256115248497    2.28538932455247   -1.82964816243281
C         0.75350030257848    2.28551308199782   -2.58573232036207
C        -0.23508280213456    3.00436687409655   -1.82344140492918
C         0.37359850932028    3.44286488622179   -0.60220138863872
C         1.74684322376492    3.00246743943424   -0.60372642363492
C        -1.55566653231806    2.56818250386052   -1.80941223575869
C        -1.93859434646944    1.40592010794080   -2.57168095880615
C        -2.93551210457882    0.68461262535792   -1.82146846772098
C        -3.16898901542976    1.39767486975662   -0.59605965548237
C        -2.30435127723071    2.57332623923171   -0.58497549467516
C        -2.94114405309208   -0.70773319324488   -1.83440725641731
C        -1.94505174577217   -1.42387954875747   -2.59102123506710
C        -1.56548890447542   -2.59170746585215   -1.83211639425372
C        -2.32839595515909   -2.59312664323360   -0.60918315818311
C        -3.17773883494341   -1.43218193772331   -0.61434027474195
C        -0.98775846759569   -0.72638522820754   -3.31322849837523
C        -0.98659864719709    0.71557045430270   -3.30737103326374
C         0.38544609985482    1.16109326139683   -3.31071431261235
C         1.23106807703669   -0.00470839638716   -3.31198800126459
C         0.38446650889097   -1.17000629330740   -3.31255499443923
Cl       -1.95494402230001   -0.00808767739961    5.23350834621500
Cl       -3.13453400437008    3.62205440029917    2.87428256883422
Cl        2.95308875336311   -2.14300403760661    3.87892192705264
63
 energy: -142.108813181576 gnorm: 0.061013430788 xtb: 6.4.1 (a3dbbd7)
C        -1.30290970570821    0.01157041172812    3.54610486874603
C        -0.37227440874117   -1.15985234718210    3.29769824660643
C         0.96570031623294   -0.71124416645542    3.28913123357688
C         0.96950276440183    0.72318209968445    3.26254297952785
C        -0.38066607601945    1.18904848466270    3.30371763845644
C         2.32643792595718   -2.58075294573874    0.57199042489671
C         3.17707933660128   -1.41277059170093    0.57108701708344
C         2.94833663525664   -0.69127864029357    1.78621220355772
C         2.01192214329067   -1.46102263030946    2.63291415977772
C         1.57233068833018   -2.58471842682998    1.78817933038963
C         3.18993065702403    1.41269456209693    0.57031539536080
C         2.33723202011969    2.57362364018841    0.57377449339126
C         1.57486873718099    2.56582139932554    1.79853827471245
C         1.94823150675942    1.41145665901116    2.54953892455416
C         2.94364094745256    0.68944015678383    1.78857344100916
C        -0.36640009087380    3.42861550322305    0.57961856543255
C        -1.73113513971806    3.01867455026582    0.58243151118210
C        -2.09942031154007    2.46650192580212    1.94661800053174
C        -0.73632595019582    2.29307654241840    2.58327262266119
C         0.24495116271449    2.98038454360050    1.80299275075618
C        -3.37587536203184    0.70448974735116    0.57532871471232
C        -3.39046497566653   -0.73176475285955    0.56963710627748
C        -2.76947180730258   -1.16060262895672    1.78895235320880
C        -2.39303247679468    0.02751215273176    2.53163986348180
C        -2.75218511385579    1.13380991857453    1.81365334853419
C        -1.73286853055358   -3.01000821937203    0.57613826442287
C        -0.36297859135332   -3.45252179800427    0.57375104296999
C         0.24942132101109   -2.99086227182034    1.79085606031557
C        -0.73429013625710   -2.27461317598829    2.56183637426367
C        -1.96780573619186   -2.28671301672215    1.79860805799855
C        -0.24454443832045   -3.01579759635069   -1.83248446222379
C         0.74874913074652   -2.29358379295181   -2.58887067504983
C         1.97394728293067   -2.29296350697842   -1.83229310719212
C         1.73819317781362   -3.01546234117246   -0.60958686029069
C         0.36876246979464   -3.45985361610200   -0.60684966671472
C         2.79405095487001   -1.16991040093838   -1.83462345041943
C         2.41564459305257   -0.00454850234973   -2.59037647584908
C         2.79815282482628    1.16154884686660   -1.83488120806333
C         3.41654595455825    0.71693075278641   -0.61235840863763
C         3.41187762321461   -0.72194320925340   -0.61227774951570
C         1.98179490073900    2.28532501380888   -1.83190810570249
C         0.75355598893873    2.28598854516828   -2.58691859912865
C        -0.23514619097918    3.00438585266633   -1.82303967792080
C         0.37325946086964    3.44376974682599   -0.60283796040798
C         1.74584508498019    3.00226399579434   -0.60498096057317
C        -1.55573131286694    2.56823138242059   -1.80918469292353
C        -1.93882740745282    1.40590074527846   -2.57107575217670
C        -2.93575541000674    0.68497810705468   -1.82141982462260
C        -3.16953091698118    1.39834385384392   -0.59640028779501
C        -2.30502773610901    2.57434771978734   -0.58517267295123
C        -2.94158144339462   -0.70782452117329   -1.83348880321408
C        -1.94526987408780   -1.42378830342816   -2.59136644100578
C        -1.56545123437387   -2.59182186708245   -1.83457704776204
C        -2.32721198974033   -2.59247936792220   -0.61037631763984
C        -3.17803158458658   -1.43174197879513   -0.61450519120569
C        -0.98847527237909   -0.72589697653502   -3.31454293453369
C        -0.98693763763916    0.71579612578832   -3.30832675311625
C         0.38461973198446    1.16124313505928   -3.31246959296515
C         1.22998033265304   -0.00389421591835   -3.31528653090259
C         0.38329542944566   -1.16953291246698   -3.31582043038437
Cl       -1.95943373489325   -0.00604986953130    5.23414769774374
Cl       -3.13775390024624    3.62644389103393    2.87426553627660
Cl        3.03398892625413   -2.20083911926424    3.98546417661664
63
 energy: -142.114849353499 gnorm: 0.014261822960 xtb: 6.4.1 (a3dbbd7)
C        -1.30252970106079    0.01258700944629    3.53897566938118
C        -0.36547413426986   -1.15571757043833    3.29186963931411
C         0.95893838572942   -0.70921468519319    3.28623469010280
C         0.96644878017827    0.71875068397285    3.25484799357737
C        -0.38338092704535    1.19096940287914    3.29842904428418
C         2.31567779377851   -2.57419775642453    0.57416379542283
C         3.16581182182180   -1.40590675685184    0.57341499043316
C         2.95121811992053   -0.69209150657547    1.78673129922082
C         2.06615202878526   -1.50131627362262    2.69990000554416
C         1.57364314267497   -2.59023821526108    1.78745910334788
C         3.18231151537053    1.40820541971105    0.56842962440709
C         2.33345171472143    2.57133738521323    0.57162124629207
C         1.57175599180911    2.56263720431616    1.79737226743157
C         1.94694015775981    1.41283982932892    2.55029837697540
C         2.94000380748101    0.68319252235932    1.78625382794256
C        -0.36846245840647    3.43056989914690    0.57839306932664
C        -1.73448179160336    3.02248899985911    0.58035732981377
C        -2.10384383844125    2.47192349109992    1.94502248863905
C        -0.73991680910149    2.29588555775904    2.58047836510629
C         0.24166846716014    2.98377675405338    1.80097579833925
C        -3.37809855044728    0.70763330807630    0.57334676259236
C        -3.39009423865451   -0.72932586952161    0.56942701711586
C        -2.76958501768412   -1.15633155211540    1.78806073132966
C        -2.39489291179672    0.03084380497229    2.52803316906573
C        -2.75603938767712    1.13880450410427    1.81138242134172
C        -1.72978903836939   -3.00631899820727    0.57371604063585
C        -0.36055050639357   -3.44711566607907    0.57073834518413
C         0.25432640056630   -2.98858335132452    1.78788074431855
C        -0.73685306384554   -2.28016112609181    2.56415336999305
C        -1.96075366417420   -2.28262532799389    1.79948699479958
C        -0.24561517755298   -3.01657724928251   -1.83803873580316
C         0.74722281766588   -2.29298072129569   -2.59444749072410
C         1.97158530568359   -2.29184391412525   -1.83623552692731
C         1.73451960002809   -3.01394725563034   -0.61303694171556
C         0.36906058560051   -3.45821555962655   -0.61219396731127
C         2.79111632034258   -1.16858621951909   -1.83823826620818
C         2.41367082207603   -0.00361679522617   -2.59506324683707
C         2.79709845741053    1.16253739288072   -1.83958775122558
C         3.41228013940139    0.71585575939738   -0.61622593703827
C         3.40664644827842   -0.71940211987634   -0.61433631048022
C         1.97982688714782    2.28587730752570   -1.83512664535610
C         0.75205915927920    2.28682234295312   -2.58895814457231
C        -0.23693273401035    3.00536457477480   -1.82420927085764
C         0.37133220412848    3.44509560924597   -0.60503222515648
C         1.74338437432293    3.00202093260779   -0.60676426601644
C        -1.55757102155743    2.56971493958533   -1.81093528172265
C        -1.94046848905312    1.40725433226179   -2.57236373192142
C        -2.93736724444232    0.68698226885171   -1.82319615121701
C        -3.17178216259030    1.40070242935491   -0.59865834062114
C        -2.30735199011898    2.57705617146958   -0.58719681509596
C        -2.94258073184104   -0.70621234755547   -1.83379909048148
C        -1.94614931197164   -1.42231106638434   -2.59238486858146
C        -1.56608738491224   -2.59079479209421   -1.83741485739408
C        -2.32587244374361   -2.59013120736979   -0.61120509637889
C        -3.17812980711018   -1.42926464498762   -0.61564610318889
C        -0.99034364145832   -0.72421486989054   -3.31731064648616
C        -0.98888910464749    0.71732549882041   -3.31096657558333
C         0.38236180494339    1.16229786884651   -3.31559138560923
C         1.22764052341104   -0.00225994478561   -3.32002489726537
C         0.38094993940535   -1.16824868702208   -3.32040062144051
Cl       -1.95513882872165   -0.01218431880939    5.22639572962446
Cl       -3.14359257626347    3.63194043838941    2.87115759294905
Cl        3.08855070522768   -2.24061497289744    4.07081168350982
63
 energy: -142.115167604085 gnorm: 0.008698679072 xtb: 6.4.1 (a3dbbd7)
C        -1.29997192793065    0.01190232211920    3.53469579643034
C        -0.36072370703487   -1.15722772882432    3.29093116086716
C         0.96132538208215   -0.71143234295931    3.28333905497903
C         0.96847699528505    0.71637886450955    3.25367853224646
C        -0.38201956084833    1.19034730054679    3.29539023944702
C         2.31334748747217   -2.57317400515608    0.57731710527649
C         3.16315382431186   -1.40479445524629    0.57653111568684
C         2.95629516567848   -0.69557855463801    1.79362806418063
C         2.07989904821787   -1.51145128855074    2.71495323109760
C         1.57829063516353   -2.59527728891634    1.79443018160277
C         3.17750490754414    1.40457962218896    0.56893613730862
C         2.33074582790287    2.56913810226163    0.57095423203688
C         1.57052877311165    2.56170218409720    1.79721742386815
C         1.94792226661178    1.41397449276028    2.55173373540455
C         2.94112520020575    0.68028969303225    1.78922535457661
C        -0.36920743648068    3.43141245043472    0.57744862820470
C        -1.73565285104096    3.02409086245224    0.57930592645432
C        -2.10494537648050    2.47367958573829    1.94429786028927
C        -0.74040290731441    2.29629403581515    2.57946500830905
C         0.24079668578812    2.98474420032295    1.80000220563227
C        -3.37895590732055    0.70897609093623    0.57252199523889
C        -3.38948035543740   -0.72829851495485    0.56872044340431
C        -2.76887062998636   -1.15493806186921    1.78717864312690
C        -2.39391298818881    0.03169351506860    2.52577311754224
C        -2.75700011501914    1.14048011535404    1.81027861579603
C        -1.72767809523065   -3.00339986590749    0.57293307954023
C        -0.35834901712715   -3.44328373134509    0.57115183431600
C         0.25758911367420   -2.99101799928809    1.79134996963999
C        -0.73768572888684   -2.28399113533201    2.56607081806368
C        -1.95814841414442   -2.28093458427628    1.79999633819543
C        -0.24631470217809   -3.01625624836798   -1.83966889964505
C         0.74619990413771   -2.29244196007406   -2.59635544514027
C         1.96975374018516   -2.29058969244447   -1.83656134422125
C         1.73331379859898   -3.01141856481416   -0.61223789440098
C         0.36908572499066   -3.45609100970160   -0.61282924034602
C         2.78863097233975   -1.16771337617181   -1.83843034997721
C         2.41222002159616   -0.00314063311264   -2.59662583834666
C         2.79573453439502    1.16277861111564   -1.84096270250936
C         3.40874344189486    0.71475773718048   -0.61645886253489
C         3.40254368692163   -0.71945308353822   -0.61318724970631
C         1.97824920983067    2.28592404344623   -1.83641761295733
C         0.75090197061532    2.28745015688455   -2.59044986316349
C        -0.23809599053895    3.00617741889771   -1.82538787322508
C         0.37022014334051    3.44573938042747   -0.60629293894371
C         1.74179990425401    3.00134729289625   -0.60746462493501
C        -1.55882163707649    2.57085546054907   -1.81226004995076
C        -1.94155847968358    1.40825062956837   -2.57354193475824
C        -2.93846350437172    0.68827915882092   -1.82433527601900
C        -3.17311760914682    1.40205208110026   -0.59978928620959
C        -2.30853100294871    2.57849850298615   -0.58830905689581
C        -2.94319129363881   -0.70508849718190   -1.83456652665043
C        -1.94696600516922   -1.42134195299739   -2.59350305421032
C        -1.56643120334098   -2.58961705832530   -1.83861081087537
C        -2.32481059474621   -2.58833116426408   -0.61147534890571
C        -3.17804152038709   -1.42780348936476   -0.61646937307522
C        -0.99155579455158   -0.72336020939654   -3.31926657274552
C        -0.99018722415829    0.71827916264299   -3.31265258454357
C         0.38111176039969    1.16307839127708   -3.31762523485424
C         1.22645278785622   -0.00148032542343   -3.32240298449434
C         0.37968626191549   -1.16772811198915   -3.32270574428657
Cl       -1.95127590998557   -0.01974412142823    5.22182211392707
Cl       -3.14541121454382    3.63520778167700    2.86794260173031
Cl        3.09316506176007   -2.24321789006411    4.08885405225221
63
 energy: -142.115282539928 gnorm: 0.004745582870 xtb: 6.4.1 (a3dbbd7)
C        -1.29819002638540    0.01162778833866    3.53207068614280
C        -0.35765159492596   -1.15823715087246    3.28934682183630
C         0.96302009078128   -0.71283728161365    3.27934219815668
C         0.97015139939014    0.71522961750533    3.25276096710532
C        -0.38084176500444    1.18982600936944    3.29346695609642
C         2.31157583245927   -2.57230716487837    0.57892568937639
C         3.16123892178095   -1.40388009089104    0.57804850126397
C         2.95901099570360   -0.69760952241361    1.79799096647528
C         2.08638418771190   -1.51604259244097    2.72144048729176
C         1.58089233719361   -2.59809418738450    1.79901114825141
C         3.17482315954255    1.40237915006802    0.56923856384691
C         2.32924016192854    2.56778466329232    0.57070113491524
C         1.57023389029155    2.56189663845002    1.79742004600107
C         1.94890229086967    1.41554008523845    2.55276219035950
C         2.94166025079421    0.67893003787440    1.79085740087310
C        -0.36922215904308    3.43176048015358    0.57715491264130
C        -1.73576859775026    3.02446820627557    0.57906912837734
C        -2.10527239656959    2.47416583077975    1.94426651641493
C        -0.74041116430646    2.29660491971577    2.57943107323429
C         0.24067717046928    2.98543185452732    1.79977103286027
C        -3.37939717309849    0.70947822131934    0.57252756396294
C        -3.38913641330657   -0.72805260339014    0.56846584975633
C        -2.76855044290398   -1.15447154449641    1.78682397463217
C        -2.39314390236664    0.03171551929116    2.52459414273582
C        -2.75753226187610    1.14113604726283    1.81004075452006
C        -1.72637308734836   -3.00172274107576    0.57247997229012
C        -0.35698784728642   -3.44126755191272    0.57145048673957
C         0.25911149192107   -2.99279960279606    1.79352628559437
C        -0.73906774779459   -2.28693907663078    2.56710491516253
C        -1.95698811277914   -2.28036028388899    1.80054498119675
C        -0.24679958980796   -3.01628780586329   -1.84054467600699
C         0.74563386280581   -2.29243427522917   -2.59734351128934
C         1.96865766838028   -2.28974975413842   -1.83658707715179
C         1.73250299467904   -3.00949117014904   -0.61167887517396
C         0.36893171986444   -3.45511166233262   -0.61307147437204
C         2.78714026671997   -1.16714919632507   -1.83840931791335
C         2.41174143535902   -0.00275711217679   -2.59747679939132
C         2.79521402616587    1.16304146269344   -1.84176869856271
C         3.40694702635152    0.71431554251020   -0.61651892820261
C         3.39980121612720   -0.71950836715037   -0.61249649633560
C         1.97751695961489    2.28592711264481   -1.83698090006234
C         0.75050202536328    2.28777283833790   -2.59117037884562
C        -0.23846858490203    3.00654620669148   -1.82584526544006
C         0.36991188689376    3.44605850004164   -0.60677230380942
C         1.74126499148604    3.00107567026943   -0.60770708181479
C        -1.55918646877576    2.57123510436335   -1.81266328840163
C        -1.94180580454700    1.40850499996785   -2.57381415463050
C        -2.93882460550648    0.68876273032430   -1.82462116929095
C        -3.17365317482461    1.40252112583236   -0.60003001026598
C        -2.30878975341751    2.57890261379433   -0.58851563099555
C        -2.94345065614707   -0.70470364507577   -1.83486144162552
C        -1.94739974271325   -1.42100675861092   -2.59405720002923
C        -1.56659778503125   -2.58901950831425   -1.83911959869528
C        -2.32419641507181   -2.58759622611626   -0.61146864434707
C        -3.17803139423204   -1.42716614365330   -0.61675988268990
C        -0.99203495551138   -0.72313765790838   -3.32022305940946
C        -0.99063022228883    0.71857728000590   -3.31329680170684
C         0.38071418334025    1.16336914819074   -3.31859055326144
C         1.22611785681292   -0.00117490750090   -3.32368691878467
C         0.37919738130549   -1.16769699075791   -3.32390236841175
Cl       -1.94816986106898   -0.02522872703838    5.21931515945784
Cl       -3.14559704052219    3.63712041899596    2.86631237130812
Cl        3.08848859815014   -2.23912221991514    4.09494966618561
63
 energy: -142.115325257476 gnorm: 0.002437285758 xtb: 6.4.1 (a3dbbd7)
C        -1.29755764613012    0.01156680537462    3.53134732556857
C        -0.35662429024109   -1.15845818990417    3.28796236847534
C         0.96317463431768   -0.71311763264875    3.27614209546939
C         0.97064316940260    0.71506651453570    3.25206745038817
C        -0.38044700407442    1.18960563793932    3.29297190974711
C         2.31070301343001   -2.57184550952453    0.57899888088149
C         3.16034210813636   -1.40338517856523    0.57804937642158
C         2.95908258301603   -0.69794254868007    1.79873638500527
C         2.08789248195616   -1.51699061636889    2.72286128354155
C         1.58118611348492   -2.59851063355726    1.79992379473242
C         3.17433393194569    1.40180850582853    0.56926208817564
C         2.32908501520134    2.56754103192509    0.57075819173962
C         1.57056140155887    2.56247906073248    1.79772100253407
C         1.94935794519565    1.41645672166816    2.55310619109294
C         2.94149909071601    0.67871971138332    1.79085932256294
C        -0.36892774205463    3.43173041059982    0.57733027334874
C        -1.73542405236503    3.02420941406699    0.57925303941665
C        -2.10509205231928    2.47399622449595    1.94451762672303
C        -0.74024342213720    2.29676424208067    2.57983120663880
C         0.24094032829217    2.98573771270117    1.79999654022359
C        -3.37940493649187    0.70947851659302    0.57291204416318
C        -3.38898299001633   -0.72819969448181    0.56861964202903
C        -2.76850003098332   -1.15459556789984    1.78693639865311
C        -2.39281012772923    0.03138338499386    2.52444040477777
C        -2.75753733677637    1.14114477502919    1.81025465860456
C        -1.72602287535523   -3.00158427061779    0.57235309217985
C        -0.35657323495162   -3.44111184939888    0.57143941138205
C         0.25926531102740   -2.99332596076941    1.79377996878791
C        -0.74004766994925   -2.28837820561293    2.56735626630818
C        -1.95680340670642   -2.28064940135766    1.80093049328669
C        -0.24691600208526   -3.01653731438039   -1.84078161003478
C         0.74553872675830   -2.29265111815930   -2.59752761720603
C         1.96845934389585   -2.28957281724521   -1.83657785012785
C         1.73232629954970   -3.00896051330534   -0.61166343288336
C         0.36883254077400   -3.45523402199649   -0.61319905962699
C         2.78687310846654   -1.16703019869170   -1.83841636144553
C         2.41189568565734   -0.00259981847695   -2.59766022835881
C         2.79536913279530    1.16317668122128   -1.84202708460851
C         3.40683692585294    0.71435085967068   -0.61658319695561
C         3.39910135371138   -0.71954901495973   -0.61246549182528
C         1.97751486917852    2.28588867309329   -1.83695927764601
C         0.75060492642153    2.28779702210069   -2.59112230146009
C        -0.23834233836826    3.00654094869837   -1.82569009273477
C         0.37009601812336    3.44608208687065   -0.60664663093053
C         1.74149000462883    3.00115485069811   -0.60761921853714
C        -1.55900817355929    2.57112114907354   -1.81243093389177
C        -1.94163007718242    1.40836848027645   -2.57352570137094
C        -2.93871275363382    0.68870415351853   -1.82435286429756
C        -3.17357874749205    1.40242784512065   -0.59976599394231
C        -2.30859202100278    2.57874267079580   -0.58824088180420
C        -2.94343020193761   -0.70479612647046   -1.83471626033530
C        -1.94742988789968   -1.42106166478085   -2.59398691473416
C        -1.56656127572513   -2.58896686862981   -1.83907863952916
C        -2.32403840474708   -2.58774532979987   -0.61130603725292
C        -3.17800947049416   -1.42714533561451   -0.61660857397978
C        -0.99198696992088   -0.72322123481273   -3.32019270267195
C        -0.99055553349330    0.71850970040949   -3.31314638192264
C         0.38080537201504    1.16331657197312   -3.31854653877276
C         1.22622739516845   -0.00117881967027   -3.32383948317821
C         0.37922111259347   -1.16782820865711   -3.32400686012995
Cl       -1.94649043968947   -0.02715679272854    5.21891668245685
Cl       -3.14513301414126    3.63758125686750    2.86607250591222
Cl        3.08118971952627   -2.23337886138531    4.09420633911132
63
 energy: -142.115337316793 gnorm: 0.001314207121 xtb: 6.4.1 (a3dbbd7)
C        -1.29767758178505    0.01155654361674    3.53170355361913
C        -0.35690259343228   -1.15826279486630    3.28746417743001
C         0.96256461199745   -0.71279950556254    3.27486633134741
C         0.97038877906416    0.71534930160239    3.25176874521844
C        -0.38057649851453    1.18963539257852    3.29330721541322
C         2.31074465870290   -2.57190144452705    0.57851378292198
C         3.16041889849060   -1.40341451044838    0.57753871801671
C         2.95830968358892   -0.69754308583226    1.79771262342824
C         2.08735405018138   -1.51652308139215    2.72244592773598
C         1.58059895551514   -2.59799959003244    1.79897193126863
C         3.17489984731208    1.40210195704163    0.56915953905642
C         2.32954807847327    2.56784539322654    0.57087253469578
C         1.57096360742653    2.56279088088566    1.79785867496080
C         1.94939429670739    1.41648033767792    2.55297368301341
C         2.94132079820971    0.67893689072962    1.79029447419780
C        -0.36871161109935    3.43159662692593    0.57757704438070
C        -1.73515221564103    3.02393290430741    0.57946516600764
C        -2.10482905343916    2.47374496665457    1.94470505585863
C        -0.74009006683233    2.29678319075779    2.58008901530998
C         0.24120452787648    2.98572039310881    1.80023481348153
C        -3.37922136994985    0.70933825904982    0.57318675479777
C        -3.38893421407156   -0.72837165865247    0.56884469731780
C        -2.76853887641847   -1.15485286572543    1.78716573548699
C        -2.39281498892181    0.03111950151911    2.52473305223234
C        -2.75730358141910    1.14094290381809    1.81047125389575
C        -1.72620932901593   -3.00213083976409    0.57240340004438
C        -0.35669306557471   -3.44169762632626    0.57130350513133
C         0.25897733964764   -2.99318070569659    1.79321056125544
C        -0.74022963925117   -2.28854297186635    2.56724522818477
C        -1.95699671500078   -2.28113354201263    1.80105438860277
C        -0.24681133031501   -3.01669012362387   -1.84069046759582
C         0.74564922328259   -2.29276076120623   -2.59736059375081
C         1.96869553236953   -2.28975431296425   -1.83661503163628
C         1.73252013834912   -3.00932578715930   -0.61189640748207
C         0.36884552179999   -3.45564754644712   -0.61326576522530
C         2.78719641361578   -1.16715982421640   -1.83848627484098
C         2.41211167176054   -0.00263224221572   -2.59753418873633
C         2.79563743789930    1.16314879039962   -1.84196657448504
C         3.40735883105343    0.71448008313812   -0.61664885137180
C         3.39959123038589   -0.71959107586257   -0.61272004943829
C         1.97774699808087    2.28584374596288   -1.83677274671784
C         0.75077972276498    2.28771444522869   -2.59082940883742
C        -0.23815780010174    3.00642874453892   -1.82540270745613
C         0.37032061152591    3.44599621999488   -0.60638667885481
C         1.74182745604150    3.00128104921058   -0.60747996675470
C        -1.55879591021642    2.57095650785145   -1.81212039272928
C        -1.94148413780487    1.40824745157208   -2.57323270145666
C        -2.93855077644217    0.68855127943400   -1.82405938808747
C        -3.17334669791886    1.40223285136406   -0.59949766964134
C        -2.30840260788474    2.57854513234068   -0.58797101121376
C        -2.94334088144518   -0.70495252593668   -1.83448848353387
C        -1.94731224143628   -1.42117019844293   -2.59373148851741
C        -1.56646550609226   -2.58911121171523   -1.83889901399791
C        -2.32410103411170   -2.58808222918221   -0.61119316109179
C        -3.17798651941607   -1.42731880505812   -0.61639473460223
C        -0.99183438941765   -0.72329825299430   -3.31984935174164
C        -0.99041623095464    0.71841924322288   -3.31283617278180
C         0.38094277945922    1.16321142454509   -3.31819367308791
C         1.22634531179639   -0.00125085834672   -3.32352182748349
C         0.37934801743492   -1.16787893047024   -3.32368735087460
Cl       -1.94621053170787   -0.02681772780191    5.21947358056160
Cl       -3.14482438446947    3.63723233318436    2.86646228821580