 Entering Gaussian System, Link 0=g16
 Input=bogh66psd15og_addon_3.gjf
 Output=bogh66psd15og_addon_3.log
 Initial command:
 /home/mkliu/g16/l1.exe "/data/scratch/Gau-112198.inp" -scrdir="/data/scratch/"
 Entering Link 1 = /home/mkliu/g16/l1.exe PID=    112199.
  
 Copyright (c) 1988,1990,1992,1993,1995,1998,2003,2009,2016,
            Gaussian, Inc.  All Rights Reserved.
  
 This is part of the Gaussian(R) 16 program.  It is based on
 the Gaussian(R) 09 system (copyright 2009, Gaussian, Inc.),
 the Gaussian(R) 03 system (copyright 2003, Gaussian, Inc.),
 the Gaussian(R) 98 system (copyright 1998, Gaussian, Inc.),
 the Gaussian(R) 94 system (copyright 1995, Gaussian, Inc.),
 the Gaussian 92(TM) system (copyright 1992, Gaussian, Inc.),
 the Gaussian 90(TM) system (copyright 1990, Gaussian, Inc.),
 the Gaussian 88(TM) system (copyright 1988, Gaussian, Inc.),
 the Gaussian 86(TM) system (copyright 1986, Carnegie Mellon
 University), and the Gaussian 82(TM) system (copyright 1983,
 Carnegie Mellon University). Gaussian is a federally registered
 trademark of Gaussian, Inc.
  
 This software contains proprietary and confidential information,
 including trade secrets, belonging to Gaussian, Inc.
  
 This software is provided under written license and may be
 used, copied, transmitted, or stored only in accord with that
 written license.
  
 The following legend is applicable only to US Government
 contracts under FAR:
  
                    RESTRICTED RIGHTS LEGEND
  
 Use, reproduction and disclosure by the US Government is
 subject to restrictions as set forth in subparagraphs (a)
 and (c) of the Commercial Computer Software - Restricted
 Rights clause in FAR 52.227-19.
  
 Gaussian, Inc.
 340 Quinnipiac St., Bldg. 40, Wallingford CT 06492
  
  
 ---------------------------------------------------------------
 Warning -- This program may not be used in any manner that
 competes with the business of Gaussian, Inc. or will provide
 assistance to any competitor of Gaussian, Inc.  The licensee
 of this program is prohibited from giving any competitor of
 Gaussian, Inc. access to this program.  By using this program,
 the user acknowledges that Gaussian, Inc. is engaged in the
 business of creating and licensing software in the field of
 computational chemistry and represents and warrants to the
 licensee that it is not a competitor of Gaussian, Inc. and that
 it will not use this program in any manner prohibited above.
 ---------------------------------------------------------------
  

 Cite this work as:
 Gaussian 16, Revision A.03,
 M. J. Frisch, G. W. Trucks, H. B. Schlegel, G. E. Scuseria, 
 M. A. Robb, J. R. Cheeseman, G. Scalmani, V. Barone, 
 G. A. Petersson, H. Nakatsuji, X. Li, M. Caricato, A. V. Marenich, 
 J. Bloino, B. G. Janesko, R. Gomperts, B. Mennucci, H. P. Hratchian, 
 J. V. Ortiz, A. F. Izmaylov, J. L. Sonnenberg, D. Williams-Young, 
 F. Ding, F. Lipparini, F. Egidi, J. Goings, B. Peng, A. Petrone, 
 T. Henderson, D. Ranasinghe, V. G. Zakrzewski, J. Gao, N. Rega, 
 G. Zheng, W. Liang, M. Hada, M. Ehara, K. Toyota, R. Fukuda, 
 J. Hasegawa, M. Ishida, T. Nakajima, Y. Honda, O. Kitao, H. Nakai, 
 T. Vreven, K. Throssell, J. A. Montgomery, Jr., J. E. Peralta, 
 F. Ogliaro, M. J. Bearpark, J. J. Heyd, E. N. Brothers, K. N. Kudin, 
 V. N. Staroverov, T. A. Keith, R. Kobayashi, J. Normand, 
 K. Raghavachari, A. P. Rendell, J. C. Burant, S. S. Iyengar, 
 J. Tomasi, M. Cossi, J. M. Millam, M. Klene, C. Adamo, R. Cammi, 
 J. W. Ochterski, R. L. Martin, K. Morokuma, O. Farkas, 
 J. B. Foresman, and D. J. Fox, Gaussian, Inc., Wallingford CT, 2016.
 
 ******************************************
 Gaussian 16:  ES64L-G16RevA.03 25-Dec-2016
                16-Jul-2022 
 ******************************************
 %mem=10GB
 %chk=bogh66psd15og_addon_3.chk
 %nprocshared=48
 Will use up to   48 processors via shared memory.
 -------------------------------------------------
 #P opt b3lyp/6-311G(d, p) empiricaldispersion=GD3
 -------------------------------------------------
 1/18=20,19=15,26=3,38=1/1,3;
 2/9=110,12=2,17=6,18=5,40=1/2;
 3/5=4,6=6,7=101,11=2,25=1,30=1,71=1,74=-5,124=31/1,2,3;
 4//1;
 5/5=2,38=5/2;
 6/7=2,8=2,9=2,10=2,28=1/1;
 7//1,2,3,16;
 1/18=20,19=15,26=3/3(2);
 2/9=110/2;
 99//99;
 2/9=110/2;
 3/5=4,6=6,7=101,11=2,25=1,30=1,71=1,74=-5,124=31/1,2,3;
 4/5=5,16=3,69=1/1;
 5/5=2,38=5/2;
 7//1,2,3,16;
 1/18=20,19=15,26=3/3(-5);
 2/9=110/2;
 6/7=2,8=2,9=2,10=2,19=2,28=1/1;
 99/9=1/99;
 Leave Link    1 at Sat Jul 16 16:58:27 2022, MaxMem=  1342177280 cpu:               2.2 elap:               0.1
 (Enter /home/mkliu/g16/l101.exe)
 -----
 force
 -----
 Symbolic Z-matrix:
 Charge =  0 Multiplicity = 2
 C                    -1.32762   1.86105  -3.89882 
 C                     0.18656   2.17463  -3.952 
 C                     0.85771   0.83004  -4.10049 
 C                    -1.36399   0.35446  -3.99015 
 C                    -0.09088  -0.20251  -4.20619 
 C                    -2.17192  -0.15864  -2.98957 
 C                    -1.95969   2.0833   -2.55841 
 C                    -2.6306    0.92785  -2.15483 
 C                    -1.44556   2.95731  -1.58713 
 C                     0.73863   2.62306  -2.638 
 C                    -0.01836   3.24691  -1.63508 
 C                     1.85172   0.66223  -3.11745 
 C                     1.84516   1.8495   -2.28959 
 C                     2.23023  -0.55902  -2.55369 
 C                     0.20363  -1.44332  -3.64992 
 C                     1.59279  -1.7967   -3.16269 
 C                    -1.94876  -1.43413  -2.41371 
 C                    -0.75504  -2.07735  -2.85465 
 C                    -2.46324  -1.72127  -1.10188 
 C                    -3.0657    0.69213  -0.83767 
 C                    -3.07088  -0.65845  -0.31457 
 C                    -2.04219   2.85643  -0.32421 
 C                    -2.91225   1.78562   0.0257 
 C                    -1.38959   3.28304   0.88083 
 C                     0.64642   3.43657  -0.41457 
 C                    -0.04364   3.57353   0.8362 
 C                     2.41734   1.84375  -1.0124 
 C                     1.89311   2.80793  -0.13624 
 C                     2.86843  -0.599    -1.28492 
 C                     3.01544   0.63219  -0.51006 
 C                     2.90265  -1.82587  -0.57103 
 C                     1.29777  -2.8206   -2.11466 
 C                    -0.09905  -3.04027  -2.02669 
 C                     2.04339  -2.92505  -0.97402 
 C                    -1.9136   -2.82225  -0.41574 
 C                    -0.70906  -3.46094  -0.8617 
 C                    -1.91782  -2.90053   1.01461 
 C                    -3.12354  -0.79306   1.07809 
 C                    -2.52135  -1.90852   1.75248 
 C                    -2.87243   1.61319   1.44416 
 C                    -1.92871   2.54463   1.9945 
 C                    -3.00079   0.34163   1.96178 
 C                    -1.10561   2.14425   3.03047 
 C                     0.82203   3.13539   1.90255 
 C                     2.02482   2.66215   1.28043 
 C                     0.30412   2.4479    2.98493 
 C                     3.21436   0.55676   0.87098 
 C                     2.69224   1.55988   1.77183 
 C                     2.99446  -1.85858   0.84103 
 C                     3.17136  -0.69201   1.56633 
 C                     1.46564  -3.49324   0.2147 
 C                     0.10518  -3.77917   0.27009 
 C                    -0.66109  -3.46552   1.4423 
 C                     2.09853  -2.88154   1.34585 
 C                    -0.02833  -2.94468   2.55801 
 C                     1.38114  -2.6413    2.50569 
 C                    -1.91749  -1.44339   2.97068 
 C                    -2.21384  -0.04371   3.09841 
 C                    -1.2599    0.83165   3.60087 
 C                    -0.67319  -1.92725   3.34197 
 C                     1.01794   1.32041   3.52711 
 C                     2.21245   0.9059    2.95562 
 C                     2.50696  -0.49684   2.82332 
 C                     1.59717  -1.4398    3.27004 
 C                     0.04877   0.33664   3.94228 
 C                     0.33531  -1.01388   3.81078 
 Cl                   -2.30378   2.73045  -5.1184 
 Cl                    0.64496   3.39903  -5.18014 
 Cl                    2.70318  -2.38805  -4.46729 
 
 ITRead=  0  0  0  0  0  0  0  0  0  0  0  0  0  0  0  0  0  0  0  0
 ITRead=  0  0  0  0  0  0  0  0  0  0  0  0  0  0  0  0  0  0  0  0
 ITRead=  0  0  0  0  0  0  0  0  0  0  0  0  0  0  0  0  0  0  0  0
 ITRead=  0  0  0  0  0  0  0  0  0
 MicOpt= -1 -1 -1 -1 -1 -1 -1 -1 -1 -1 -1 -1 -1 -1 -1 -1 -1 -1 -1 -1
 MicOpt= -1 -1 -1 -1 -1 -1 -1 -1 -1 -1 -1 -1 -1 -1 -1 -1 -1 -1 -1 -1
 MicOpt= -1 -1 -1 -1 -1 -1 -1 -1 -1 -1 -1 -1 -1 -1 -1 -1 -1 -1 -1 -1
 MicOpt= -1 -1 -1 -1 -1 -1 -1 -1 -1
 NAtoms=     69 NQM=       69 NQMF=       0 NMMI=      0 NMMIF=      0
                NMic=       0 NMicF=      0.
                    Isotopes and Nuclear Properties:
 (Nuclear quadrupole moments (NQMom) in fm**2, nuclear magnetic moments (NMagM)
  in nuclear magnetons)

  Atom         1           2           3           4           5           6           7           8           9          10
 IAtWgt=          12          12          12          12          12          12          12          12          12          12
 AtmWgt=  12.0000000  12.0000000  12.0000000  12.0000000  12.0000000  12.0000000  12.0000000  12.0000000  12.0000000  12.0000000
 NucSpn=           0           0           0           0           0           0           0           0           0           0
 AtZEff=  -0.0000000  -0.0000000  -0.0000000  -0.0000000  -0.0000000  -0.0000000  -0.0000000  -0.0000000  -0.0000000  -0.0000000
 NQMom=    0.0000000   0.0000000   0.0000000   0.0000000   0.0000000   0.0000000   0.0000000   0.0000000   0.0000000   0.0000000
 NMagM=    0.0000000   0.0000000   0.0000000   0.0000000   0.0000000   0.0000000   0.0000000   0.0000000   0.0000000   0.0000000
 AtZNuc=   6.0000000   6.0000000   6.0000000   6.0000000   6.0000000   6.0000000   6.0000000   6.0000000   6.0000000   6.0000000

  Atom        11          12          13          14          15          16          17          18          19          20
 IAtWgt=          12          12          12          12          12          12          12          12          12          12
 AtmWgt=  12.0000000  12.0000000  12.0000000  12.0000000  12.0000000  12.0000000  12.0000000  12.0000000  12.0000000  12.0000000
 NucSpn=           0           0           0           0           0           0           0           0           0           0
 AtZEff=  -0.0000000  -0.0000000  -0.0000000  -0.0000000  -0.0000000  -0.0000000  -0.0000000  -0.0000000  -0.0000000  -0.0000000
 NQMom=    0.0000000   0.0000000   0.0000000   0.0000000   0.0000000   0.0000000   0.0000000   0.0000000   0.0000000   0.0000000
 NMagM=    0.0000000   0.0000000   0.0000000   0.0000000   0.0000000   0.0000000   0.0000000   0.0000000   0.0000000   0.0000000
 AtZNuc=   6.0000000   6.0000000   6.0000000   6.0000000   6.0000000   6.0000000   6.0000000   6.0000000   6.0000000   6.0000000

  Atom        21          22          23          24          25          26          27          28          29          30
 IAtWgt=          12          12          12          12          12          12          12          12          12          12
 AtmWgt=  12.0000000  12.0000000  12.0000000  12.0000000  12.0000000  12.0000000  12.0000000  12.0000000  12.0000000  12.0000000
 NucSpn=           0           0           0           0           0           0           0           0           0           0
 AtZEff=  -0.0000000  -0.0000000  -0.0000000  -0.0000000  -0.0000000  -0.0000000  -0.0000000  -0.0000000  -0.0000000  -0.0000000
 NQMom=    0.0000000   0.0000000   0.0000000   0.0000000   0.0000000   0.0000000   0.0000000   0.0000000   0.0000000   0.0000000
 NMagM=    0.0000000   0.0000000   0.0000000   0.0000000   0.0000000   0.0000000   0.0000000   0.0000000   0.0000000   0.0000000
 AtZNuc=   6.0000000   6.0000000   6.0000000   6.0000000   6.0000000   6.0000000   6.0000000   6.0000000   6.0000000   6.0000000

  Atom        31          32          33          34          35          36          37          38          39          40
 IAtWgt=          12          12          12          12          12          12          12          12          12          12
 AtmWgt=  12.0000000  12.0000000  12.0000000  12.0000000  12.0000000  12.0000000  12.0000000  12.0000000  12.0000000  12.0000000
 NucSpn=           0           0           0           0           0           0           0           0           0           0
 AtZEff=  -0.0000000  -0.0000000  -0.0000000  -0.0000000  -0.0000000  -0.0000000  -0.0000000  -0.0000000  -0.0000000  -0.0000000
 NQMom=    0.0000000   0.0000000   0.0000000   0.0000000   0.0000000   0.0000000   0.0000000   0.0000000   0.0000000   0.0000000
 NMagM=    0.0000000   0.0000000   0.0000000   0.0000000   0.0000000   0.0000000   0.0000000   0.0000000   0.0000000   0.0000000
 AtZNuc=   6.0000000   6.0000000   6.0000000   6.0000000   6.0000000   6.0000000   6.0000000   6.0000000   6.0000000   6.0000000

  Atom        41          42          43          44          45          46          47          48          49          50
 IAtWgt=          12          12          12          12          12          12          12          12          12          12
 AtmWgt=  12.0000000  12.0000000  12.0000000  12.0000000  12.0000000  12.0000000  12.0000000  12.0000000  12.0000000  12.0000000
 NucSpn=           0           0           0           0           0           0           0           0           0           0
 AtZEff=  -0.0000000  -0.0000000  -0.0000000  -0.0000000  -0.0000000  -0.0000000  -0.0000000  -0.0000000  -0.0000000  -0.0000000
 NQMom=    0.0000000   0.0000000   0.0000000   0.0000000   0.0000000   0.0000000   0.0000000   0.0000000   0.0000000   0.0000000
 NMagM=    0.0000000   0.0000000   0.0000000   0.0000000   0.0000000   0.0000000   0.0000000   0.0000000   0.0000000   0.0000000
 AtZNuc=   6.0000000   6.0000000   6.0000000   6.0000000   6.0000000   6.0000000   6.0000000   6.0000000   6.0000000   6.0000000

  Atom        51          52          53          54          55          56          57          58          59          60
 IAtWgt=          12          12          12          12          12          12          12          12          12          12
 AtmWgt=  12.0000000  12.0000000  12.0000000  12.0000000  12.0000000  12.0000000  12.0000000  12.0000000  12.0000000  12.0000000
 NucSpn=           0           0           0           0           0           0           0           0           0           0
 AtZEff=  -0.0000000  -0.0000000  -0.0000000  -0.0000000  -0.0000000  -0.0000000  -0.0000000  -0.0000000  -0.0000000  -0.0000000
 NQMom=    0.0000000   0.0000000   0.0000000   0.0000000   0.0000000   0.0000000   0.0000000   0.0000000   0.0000000   0.0000000
 NMagM=    0.0000000   0.0000000   0.0000000   0.0000000   0.0000000   0.0000000   0.0000000   0.0000000   0.0000000   0.0000000
 AtZNuc=   6.0000000   6.0000000   6.0000000   6.0000000   6.0000000   6.0000000   6.0000000   6.0000000   6.0000000   6.0000000

  Atom        61          62          63          64          65          66          67          68          69
 IAtWgt=          12          12          12          12          12          12          35          35          35
 AtmWgt=  12.0000000  12.0000000  12.0000000  12.0000000  12.0000000  12.0000000  34.9688527  34.9688527  34.9688527
 NucSpn=           0           0           0           0           0           0           3           3           3
 AtZEff=  -0.0000000  -0.0000000  -0.0000000  -0.0000000  -0.0000000  -0.0000000  -0.0000000  -0.0000000  -0.0000000
 NQMom=    0.0000000   0.0000000   0.0000000   0.0000000   0.0000000   0.0000000  -8.1650000  -8.1650000  -8.1650000
 NMagM=    0.0000000   0.0000000   0.0000000   0.0000000   0.0000000   0.0000000   0.8218740   0.8218740   0.8218740
 AtZNuc=   6.0000000   6.0000000   6.0000000   6.0000000   6.0000000   6.0000000  17.0000000  17.0000000  17.0000000
 Leave Link  101 at Sat Jul 16 16:58:27 2022, MaxMem=  1342177280 cpu:              13.4 elap:               0.3
 (Enter /home/mkliu/g16/l103.exe)

 GradGradGradGradGradGradGradGradGradGradGradGradGradGradGradGradGradGrad
 Berny optimization.
 Initialization pass.
                           ----------------------------
                           !    Initial Parameters    !
                           ! (Angstroms and Degrees)  !
 --------------------------                            --------------------------
 ! Name  Definition              Value          Derivative Info.                !
 --------------------------------------------------------------------------------
 ! R1    R(1,2)                  1.5472         estimate D2E/DX2                !
 ! R2    R(1,4)                  1.5098         estimate D2E/DX2                !
 ! R3    R(1,7)                  1.4985         estimate D2E/DX2                !
 ! R4    R(1,67)                 1.7878         estimate D2E/DX2                !
 ! R5    R(2,3)                  1.5101         estimate D2E/DX2                !
 ! R6    R(2,10)                 1.4941         estimate D2E/DX2                !
 ! R7    R(2,68)                 1.7938         estimate D2E/DX2                !
 ! R8    R(3,5)                  1.4061         estimate D2E/DX2                !
 ! R9    R(3,12)                 1.408          estimate D2E/DX2                !
 ! R10   R(4,5)                  1.4063         estimate D2E/DX2                !
 ! R11   R(4,6)                  1.3846         estimate D2E/DX2                !
 ! R12   R(5,15)                 1.3913         estimate D2E/DX2                !
 ! R13   R(6,8)                  1.4449         estimate D2E/DX2                !
 ! R14   R(6,17)                 1.4171         estimate D2E/DX2                !
 ! R15   R(7,8)                  1.3957         estimate D2E/DX2                !
 ! R16   R(7,9)                  1.4041         estimate D2E/DX2                !
 ! R17   R(8,20)                 1.4071         estimate D2E/DX2                !
 ! R18   R(9,11)                 1.4571         estimate D2E/DX2                !
 ! R19   R(9,22)                 1.4004         estimate D2E/DX2                !
 ! R20   R(10,11)                1.4029         estimate D2E/DX2                !
 ! R21   R(10,13)                1.3943         estimate D2E/DX2                !
 ! R22   R(11,25)                1.4027         estimate D2E/DX2                !
 ! R23   R(12,13)                1.4474         estimate D2E/DX2                !
 ! R24   R(12,14)                1.3973         estimate D2E/DX2                !
 ! R25   R(13,27)                1.3995         estimate D2E/DX2                !
 ! R26   R(14,16)                1.5196         estimate D2E/DX2                !
 ! R27   R(14,29)                1.4208         estimate D2E/DX2                !
 ! R28   R(15,16)                1.5139         estimate D2E/DX2                !
 ! R29   R(15,18)                1.3977         estimate D2E/DX2                !
 ! R30   R(16,32)                1.4946         estimate D2E/DX2                !
 ! R31   R(16,69)                1.8124         estimate D2E/DX2                !
 ! R32   R(17,18)                1.4259         estimate D2E/DX2                !
 ! R33   R(17,19)                1.4381         estimate D2E/DX2                !
 ! R34   R(18,33)                1.4294         estimate D2E/DX2                !
 ! R35   R(19,21)                1.4556         estimate D2E/DX2                !
 ! R36   R(19,35)                1.4089         estimate D2E/DX2                !
 ! R37   R(20,21)                1.4484         estimate D2E/DX2                !
 ! R38   R(20,23)                1.4017         estimate D2E/DX2                !
 ! R39   R(21,38)                1.4001         estimate D2E/DX2                !
 ! R40   R(22,23)                1.4234         estimate D2E/DX2                !
 ! R41   R(22,24)                1.4353         estimate D2E/DX2                !
 ! R42   R(23,40)                1.4294         estimate D2E/DX2                !
 ! R43   R(24,26)                1.3777         estimate D2E/DX2                !
 ! R44   R(24,41)                1.4409         estimate D2E/DX2                !
 ! R45   R(25,26)                1.4351         estimate D2E/DX2                !
 ! R46   R(25,28)                1.4237         estimate D2E/DX2                !
 ! R47   R(26,44)                1.4417         estimate D2E/DX2                !
 ! R48   R(27,28)                1.4043         estimate D2E/DX2                !
 ! R49   R(27,30)                1.4415         estimate D2E/DX2                !
 ! R50   R(28,45)                1.4302         estimate D2E/DX2                !
 ! R51   R(29,30)                1.4621         estimate D2E/DX2                !
 ! R52   R(29,31)                1.4199         estimate D2E/DX2                !
 ! R53   R(30,47)                1.3973         estimate D2E/DX2                !
 ! R54   R(31,34)                1.4522         estimate D2E/DX2                !
 ! R55   R(31,49)                1.4154         estimate D2E/DX2                !
 ! R56   R(32,33)                1.4167         estimate D2E/DX2                !
 ! R57   R(32,34)                1.3667         estimate D2E/DX2                !
 ! R58   R(33,36)                1.3807         estimate D2E/DX2                !
 ! R59   R(34,51)                1.4386         estimate D2E/DX2                !
 ! R60   R(35,36)                1.4345         estimate D2E/DX2                !
 ! R61   R(35,37)                1.4325         estimate D2E/DX2                !
 ! R62   R(36,52)                1.4301         estimate D2E/DX2                !
 ! R63   R(37,39)                1.3758         estimate D2E/DX2                !
 ! R64   R(37,53)                1.4427         estimate D2E/DX2                !
 ! R65   R(38,39)                1.4359         estimate D2E/DX2                !
 ! R66   R(38,42)                1.4434         estimate D2E/DX2                !
 ! R67   R(39,57)                1.437          estimate D2E/DX2                !
 ! R68   R(40,41)                1.4356         estimate D2E/DX2                !
 ! R69   R(40,42)                1.3789         estimate D2E/DX2                !
 ! R70   R(41,43)                1.3824         estimate D2E/DX2                !
 ! R71   R(42,58)                1.4352         estimate D2E/DX2                !
 ! R72   R(43,46)                1.4428         estimate D2E/DX2                !
 ! R73   R(43,59)                1.4395         estimate D2E/DX2                !
 ! R74   R(44,45)                1.4345         estimate D2E/DX2                !
 ! R75   R(44,46)                1.3829         estimate D2E/DX2                !
 ! R76   R(45,48)                1.3791         estimate D2E/DX2                !
 ! R77   R(46,61)                1.4404         estimate D2E/DX2                !
 ! R78   R(47,48)                1.4458         estimate D2E/DX2                !
 ! R79   R(47,50)                1.43           estimate D2E/DX2                !
 ! R80   R(48,62)                1.435          estimate D2E/DX2                !
 ! R81   R(49,50)                1.385          estimate D2E/DX2                !
 ! R82   R(49,54)                1.4505         estimate D2E/DX2                !
 ! R83   R(50,63)                1.4351         estimate D2E/DX2                !
 ! R84   R(51,52)                1.3913         estimate D2E/DX2                !
 ! R85   R(51,54)                1.4333         estimate D2E/DX2                !
 ! R86   R(52,53)                1.4351         estimate D2E/DX2                !
 ! R87   R(53,55)                1.3844         estimate D2E/DX2                !
 ! R88   R(54,56)                1.3848         estimate D2E/DX2                !
 ! R89   R(55,56)                1.4427         estimate D2E/DX2                !
 ! R90   R(55,60)                1.4372         estimate D2E/DX2                !
 ! R91   R(56,64)                1.4403         estimate D2E/DX2                !
 ! R92   R(57,58)                1.4364         estimate D2E/DX2                !
 ! R93   R(57,60)                1.3857         estimate D2E/DX2                !
 ! R94   R(58,59)                1.3888         estimate D2E/DX2                !
 ! R95   R(59,65)                1.4402         estimate D2E/DX2                !
 ! R96   R(60,66)                1.4391         estimate D2E/DX2                !
 ! R97   R(61,62)                1.3875         estimate D2E/DX2                !
 ! R98   R(61,65)                1.442          estimate D2E/DX2                !
 ! R99   R(62,63)                1.4394         estimate D2E/DX2                !
 ! R100  R(63,64)                1.3844         estimate D2E/DX2                !
 ! R101  R(64,66)                1.4374         estimate D2E/DX2                !
 ! R102  R(65,66)                1.3868         estimate D2E/DX2                !
 ! A1    A(2,1,4)              102.929          estimate D2E/DX2                !
 ! A2    A(2,1,7)              114.4234         estimate D2E/DX2                !
 ! A3    A(2,1,67)             114.3524         estimate D2E/DX2                !
 ! A4    A(4,1,7)              101.0663         estimate D2E/DX2                !
 ! A5    A(4,1,67)             115.5217         estimate D2E/DX2                !
 ! A6    A(7,1,67)             107.9241         estimate D2E/DX2                !
 ! A7    A(1,2,3)              104.9434         estimate D2E/DX2                !
 ! A8    A(1,2,10)             113.0909         estimate D2E/DX2                !
 ! A9    A(1,2,68)             114.3287         estimate D2E/DX2                !
 ! A10   A(3,2,10)             100.9227         estimate D2E/DX2                !
 ! A11   A(3,2,68)             115.2694         estimate D2E/DX2                !
 ! A12   A(10,2,68)            107.6284         estimate D2E/DX2                !
 ! A13   A(2,3,5)              111.1867         estimate D2E/DX2                !
 ! A14   A(2,3,12)             110.5623         estimate D2E/DX2                !
 ! A15   A(5,3,12)             116.1813         estimate D2E/DX2                !
 ! A16   A(1,4,5)              112.5006         estimate D2E/DX2                !
 ! A17   A(1,4,6)              109.8847         estimate D2E/DX2                !
 ! A18   A(5,4,6)              119.5039         estimate D2E/DX2                !
 ! A19   A(3,5,4)              107.9595         estimate D2E/DX2                !
 ! A20   A(3,5,15)             118.8181         estimate D2E/DX2                !
 ! A21   A(4,5,15)             118.9084         estimate D2E/DX2                !
 ! A22   A(4,6,8)              108.9088         estimate D2E/DX2                !
 ! A23   A(4,6,17)             122.3636         estimate D2E/DX2                !
 ! A24   A(8,6,17)             119.4746         estimate D2E/DX2                !
 ! A25   A(1,7,8)              109.7924         estimate D2E/DX2                !
 ! A26   A(1,7,9)              123.8213         estimate D2E/DX2                !
 ! A27   A(8,7,9)              119.4253         estimate D2E/DX2                !
 ! A28   A(6,8,7)              107.6299         estimate D2E/DX2                !
 ! A29   A(6,8,20)             120.8643         estimate D2E/DX2                !
 ! A30   A(7,8,20)             123.9183         estimate D2E/DX2                !
 ! A31   A(7,9,11)             117.3614         estimate D2E/DX2                !
 ! A32   A(7,9,22)             115.0228         estimate D2E/DX2                !
 ! A33   A(11,9,22)            117.4712         estimate D2E/DX2                !
 ! A34   A(2,10,11)            124.25           estimate D2E/DX2                !
 ! A35   A(2,10,13)            110.2714         estimate D2E/DX2                !
 ! A36   A(11,10,13)           119.7543         estimate D2E/DX2                !
 ! A37   A(9,11,10)            117.6242         estimate D2E/DX2                !
 ! A38   A(9,11,25)            117.5458         estimate D2E/DX2                !
 ! A39   A(10,11,25)           115.2426         estimate D2E/DX2                !
 ! A40   A(3,12,13)            107.3585         estimate D2E/DX2                !
 ! A41   A(3,12,14)            125.2444         estimate D2E/DX2                !
 ! A42   A(13,12,14)           119.1684         estimate D2E/DX2                !
 ! A43   A(10,13,12)           108.4064         estimate D2E/DX2                !
 ! A44   A(10,13,27)           123.6953         estimate D2E/DX2                !
 ! A45   A(12,13,27)           121.1132         estimate D2E/DX2                !
 ! A46   A(12,14,16)           115.8832         estimate D2E/DX2                !
 ! A47   A(12,14,29)           120.4344         estimate D2E/DX2                !
 ! A48   A(16,14,29)           121.5603         estimate D2E/DX2                !
 ! A49   A(5,15,16)            122.0776         estimate D2E/DX2                !
 ! A50   A(5,15,18)            119.1345         estimate D2E/DX2                !
 ! A51   A(16,15,18)           109.8992         estimate D2E/DX2                !
 ! A52   A(14,16,15)           108.891          estimate D2E/DX2                !
 ! A53   A(14,16,32)           111.0858         estimate D2E/DX2                !
 ! A54   A(14,16,69)           107.292          estimate D2E/DX2                !
 ! A55   A(15,16,32)           101.7977         estimate D2E/DX2                !
 ! A56   A(15,16,69)           113.9963         estimate D2E/DX2                !
 ! A57   A(32,16,69)           113.714          estimate D2E/DX2                !
 ! A58   A(6,17,18)            114.342          estimate D2E/DX2                !
 ! A59   A(6,17,19)            119.6076         estimate D2E/DX2                !
 ! A60   A(18,17,19)           119.4416         estimate D2E/DX2                !
 ! A61   A(15,18,17)           123.0625         estimate D2E/DX2                !
 ! A62   A(15,18,33)           108.6873         estimate D2E/DX2                !
 ! A63   A(17,18,33)           120.5959         estimate D2E/DX2                !
 ! A64   A(17,19,21)           119.7995         estimate D2E/DX2                !
 ! A65   A(17,19,35)           117.4333         estimate D2E/DX2                !
 ! A66   A(21,19,35)           118.0361         estimate D2E/DX2                !
 ! A67   A(8,20,21)            119.6974         estimate D2E/DX2                !
 ! A68   A(8,20,23)            114.3345         estimate D2E/DX2                !
 ! A69   A(21,20,23)           120.3575         estimate D2E/DX2                !
 ! A70   A(19,21,20)           118.9497         estimate D2E/DX2                !
 ! A71   A(19,21,38)           118.9144         estimate D2E/DX2                !
 ! A72   A(20,21,38)           116.6812         estimate D2E/DX2                !
 ! A73   A(9,22,23)            122.4324         estimate D2E/DX2                !
 ! A74   A(9,22,24)            122.8222         estimate D2E/DX2                !
 ! A75   A(23,22,24)           107.1661         estimate D2E/DX2                !
 ! A76   A(20,23,22)           120.158          estimate D2E/DX2                !
 ! A77   A(20,23,40)           121.3434         estimate D2E/DX2                !
 ! A78   A(22,23,40)           108.5213         estimate D2E/DX2                !
 ! A79   A(22,24,26)           118.6656         estimate D2E/DX2                !
 ! A80   A(22,24,41)           109.0546         estimate D2E/DX2                !
 ! A81   A(26,24,41)           119.9106         estimate D2E/DX2                !
 ! A82   A(11,25,26)           122.9146         estimate D2E/DX2                !
 ! A83   A(11,25,28)           121.696          estimate D2E/DX2                !
 ! A84   A(26,25,28)           107.0274         estimate D2E/DX2                !
 ! A85   A(24,26,25)           118.5491         estimate D2E/DX2                !
 ! A86   A(24,26,44)           119.9069         estimate D2E/DX2                !
 ! A87   A(25,26,44)           109.0822         estimate D2E/DX2                !
 ! A88   A(13,27,28)           114.4512         estimate D2E/DX2                !
 ! A89   A(13,27,30)           119.414          estimate D2E/DX2                !
 ! A90   A(28,27,30)           120.966          estimate D2E/DX2                !
 ! A91   A(25,28,27)           120.5363         estimate D2E/DX2                !
 ! A92   A(25,28,45)           108.6204         estimate D2E/DX2                !
 ! A93   A(27,28,45)           120.9056         estimate D2E/DX2                !
 ! A94   A(14,29,30)           119.6505         estimate D2E/DX2                !
 ! A95   A(14,29,31)           118.9553         estimate D2E/DX2                !
 ! A96   A(30,29,31)           117.3047         estimate D2E/DX2                !
 ! A97   A(27,30,29)           118.7724         estimate D2E/DX2                !
 ! A98   A(27,30,47)           116.6701         estimate D2E/DX2                !
 ! A99   A(29,30,47)           119.5135         estimate D2E/DX2                !
 ! A100  A(29,31,34)           120.0157         estimate D2E/DX2                !
 ! A101  A(29,31,49)           121.5423         estimate D2E/DX2                !
 ! A102  A(34,31,49)           107.3209         estimate D2E/DX2                !
 ! A103  A(16,32,33)           110.1444         estimate D2E/DX2                !
 ! A104  A(16,32,34)           121.9984         estimate D2E/DX2                !
 ! A105  A(33,32,34)           118.3083         estimate D2E/DX2                !
 ! A106  A(18,33,32)           108.1837         estimate D2E/DX2                !
 ! A107  A(18,33,36)           119.4228         estimate D2E/DX2                !
 ! A108  A(32,33,36)           122.3609         estimate D2E/DX2                !
 ! A109  A(31,34,32)           119.7718         estimate D2E/DX2                !
 ! A110  A(31,34,51)           107.8944         estimate D2E/DX2                !
 ! A111  A(32,34,51)           120.0459         estimate D2E/DX2                !
 ! A112  A(19,35,36)           121.6078         estimate D2E/DX2                !
 ! A113  A(19,35,37)           121.8588         estimate D2E/DX2                !
 ! A114  A(36,35,37)           106.7721         estimate D2E/DX2                !
 ! A115  A(33,36,35)           119.8458         estimate D2E/DX2                !
 ! A116  A(33,36,52)           118.948          estimate D2E/DX2                !
 ! A117  A(35,36,52)           109.3371         estimate D2E/DX2                !
 ! A118  A(35,37,39)           119.8285         estimate D2E/DX2                !
 ! A119  A(35,37,53)           108.351          estimate D2E/DX2                !
 ! A120  A(39,37,53)           120.3646         estimate D2E/DX2                !
 ! A121  A(21,38,39)           121.7413         estimate D2E/DX2                !
 ! A122  A(21,38,42)           122.0168         estimate D2E/DX2                !
 ! A123  A(39,38,42)           106.707          estimate D2E/DX2                !
 ! A124  A(37,39,38)           119.4878         estimate D2E/DX2                !
 ! A125  A(37,39,57)           120.2454         estimate D2E/DX2                !
 ! A126  A(38,39,57)           108.8413         estimate D2E/DX2                !
 ! A127  A(23,40,41)           108.6893         estimate D2E/DX2                !
 ! A128  A(23,40,42)           118.761          estimate D2E/DX2                !
 ! A129  A(41,40,42)           121.0369         estimate D2E/DX2                !
 ! A130  A(24,41,40)           106.3892         estimate D2E/DX2                !
 ! A131  A(24,41,43)           120.322          estimate D2E/DX2                !
 ! A132  A(40,41,43)           119.3904         estimate D2E/DX2                !
 ! A133  A(38,42,40)           120.1998         estimate D2E/DX2                !
 ! A134  A(38,42,58)           108.689          estimate D2E/DX2                !
 ! A135  A(40,42,58)           119.5956         estimate D2E/DX2                !
 ! A136  A(41,43,46)           119.8121         estimate D2E/DX2                !
 ! A137  A(41,43,59)           119.8171         estimate D2E/DX2                !
 ! A138  A(46,43,59)           108.0088         estimate D2E/DX2                !
 ! A139  A(26,44,45)           106.4369         estimate D2E/DX2                !
 ! A140  A(26,44,46)           120.3393         estimate D2E/DX2                !
 ! A141  A(45,44,46)           119.3057         estimate D2E/DX2                !
 ! A142  A(28,45,44)           108.5866         estimate D2E/DX2                !
 ! A143  A(28,45,48)           118.6185         estimate D2E/DX2                !
 ! A144  A(44,45,48)           120.9933         estimate D2E/DX2                !
 ! A145  A(43,46,44)           119.6877         estimate D2E/DX2                !
 ! A146  A(43,46,61)           107.9141         estimate D2E/DX2                !
 ! A147  A(44,46,61)           119.8777         estimate D2E/DX2                !
 ! A148  A(30,47,48)           121.7996         estimate D2E/DX2                !
 ! A149  A(30,47,50)           121.5647         estimate D2E/DX2                !
 ! A150  A(48,47,50)           106.9809         estimate D2E/DX2                !
 ! A151  A(45,48,47)           120.4837         estimate D2E/DX2                !
 ! A152  A(45,48,62)           119.7611         estimate D2E/DX2                !
 ! A153  A(47,48,62)           108.5751         estimate D2E/DX2                !
 ! A154  A(31,49,50)           120.7475         estimate D2E/DX2                !
 ! A155  A(31,49,54)           108.8712         estimate D2E/DX2                !
 ! A156  A(50,49,54)           119.383          estimate D2E/DX2                !
 ! A157  A(47,50,49)           118.9959         estimate D2E/DX2                !
 ! A158  A(47,50,63)           108.728          estimate D2E/DX2                !
 ! A159  A(49,50,63)           120.9375         estimate D2E/DX2                !
 ! A160  A(34,51,52)           120.4481         estimate D2E/DX2                !
 ! A161  A(34,51,54)           107.8314         estimate D2E/DX2                !
 ! A162  A(52,51,54)           119.2151         estimate D2E/DX2                !
 ! A163  A(36,52,51)           118.653          estimate D2E/DX2                !
 ! A164  A(36,52,53)           107.0846         estimate D2E/DX2                !
 ! A165  A(51,52,53)           120.6441         estimate D2E/DX2                !
 ! A166  A(37,53,52)           107.9716         estimate D2E/DX2                !
 ! A167  A(37,53,55)           119.3229         estimate D2E/DX2                !
 ! A168  A(52,53,55)           119.7657         estimate D2E/DX2                !
 ! A169  A(49,54,51)           107.4016         estimate D2E/DX2                !
 ! A170  A(49,54,56)           119.2841         estimate D2E/DX2                !
 ! A171  A(51,54,56)           120.4178         estimate D2E/DX2                !
 ! A172  A(53,55,56)           119.765          estimate D2E/DX2                !
 ! A173  A(53,55,60)           120.0573         estimate D2E/DX2                !
 ! A174  A(56,55,60)           108.0152         estimate D2E/DX2                !
 ! A175  A(54,56,55)           120.0008         estimate D2E/DX2                !
 ! A176  A(54,56,64)           120.764          estimate D2E/DX2                !
 ! A177  A(55,56,64)           107.62           estimate D2E/DX2                !
 ! A178  A(39,57,58)           107.7033         estimate D2E/DX2                !
 ! A179  A(39,57,60)           119.4357         estimate D2E/DX2                !
 ! A180  A(58,57,60)           120.1113         estimate D2E/DX2                !
 ! A181  A(42,58,57)           107.7184         estimate D2E/DX2                !
 ! A182  A(42,58,59)           119.5997         estimate D2E/DX2                !
 ! A183  A(57,58,59)           120.3082         estimate D2E/DX2                !
 ! A184  A(43,59,58)           120.3328         estimate D2E/DX2                !
 ! A185  A(43,59,65)           108.0561         estimate D2E/DX2                !
 ! A186  A(58,59,65)           119.556          estimate D2E/DX2                !
 ! A187  A(55,60,57)           120.26           estimate D2E/DX2                !
 ! A188  A(55,60,66)           108.2131         estimate D2E/DX2                !
 ! A189  A(57,60,66)           119.6645         estimate D2E/DX2                !
 ! A190  A(46,61,62)           120.3605         estimate D2E/DX2                !
 ! A191  A(46,61,65)           108.0179         estimate D2E/DX2                !
 ! A192  A(62,61,65)           119.5622         estimate D2E/DX2                !
 ! A193  A(48,62,61)           119.4363         estimate D2E/DX2                !
 ! A194  A(48,62,63)           107.451          estimate D2E/DX2                !
 ! A195  A(61,62,63)           120.3393         estimate D2E/DX2                !
 ! A196  A(50,63,62)           107.9241         estimate D2E/DX2                !
 ! A197  A(50,63,64)           119.621          estimate D2E/DX2                !
 ! A198  A(62,63,64)           119.9783         estimate D2E/DX2                !
 ! A199  A(56,64,63)           119.7048         estimate D2E/DX2                !
 ! A200  A(56,64,66)           108.3703         estimate D2E/DX2                !
 ! A201  A(63,64,66)           119.7685         estimate D2E/DX2                !
 ! A202  A(59,65,61)           107.9369         estimate D2E/DX2                !
 ! A203  A(59,65,66)           119.9983         estimate D2E/DX2                !
 ! A204  A(61,65,66)           119.8796         estimate D2E/DX2                !
 ! A205  A(60,66,64)           107.7333         estimate D2E/DX2                !
 ! A206  A(60,66,65)           120.2747         estimate D2E/DX2                !
 ! A207  A(64,66,65)           120.3722         estimate D2E/DX2                !
 ! D1    D(4,1,2,3)              1.3021         estimate D2E/DX2                !
 ! D2    D(4,1,2,10)          -107.7838         estimate D2E/DX2                !
 ! D3    D(4,1,2,68)           128.5699         estimate D2E/DX2                !
 ! D4    D(7,1,2,3)            109.9977         estimate D2E/DX2                !
 ! D5    D(7,1,2,10)             0.9118         estimate D2E/DX2                !
 ! D6    D(7,1,2,68)          -122.7344         estimate D2E/DX2                !
 ! D7    D(67,1,2,3)          -124.7938         estimate D2E/DX2                !
 ! D8    D(67,1,2,10)          126.1203         estimate D2E/DX2                !
 ! D9    D(67,1,2,68)            2.4741         estimate D2E/DX2                !
 ! D10   D(2,1,4,5)             -5.3109         estimate D2E/DX2                !
 ! D11   D(2,1,4,6)            130.4702         estimate D2E/DX2                !
 ! D12   D(7,1,4,5)           -123.8115         estimate D2E/DX2                !
 ! D13   D(7,1,4,6)             11.9696         estimate D2E/DX2                !
 ! D14   D(67,1,4,5)           120.0288         estimate D2E/DX2                !
 ! D15   D(67,1,4,6)          -104.1901         estimate D2E/DX2                !
 ! D16   D(2,1,7,8)           -126.3783         estimate D2E/DX2                !
 ! D17   D(2,1,7,9)             24.0333         estimate D2E/DX2                !
 ! D18   D(4,1,7,8)            -16.5498         estimate D2E/DX2                !
 ! D19   D(4,1,7,9)            133.8617         estimate D2E/DX2                !
 ! D20   D(67,1,7,8)           105.0964         estimate D2E/DX2                !
 ! D21   D(67,1,7,9)          -104.4921         estimate D2E/DX2                !
 ! D22   D(1,2,3,5)              2.9859         estimate D2E/DX2                !
 ! D23   D(1,2,3,12)          -127.6157         estimate D2E/DX2                !
 ! D24   D(10,2,3,5)           120.6905         estimate D2E/DX2                !
 ! D25   D(10,2,3,12)           -9.9112         estimate D2E/DX2                !
 ! D26   D(68,2,3,5)          -123.7047         estimate D2E/DX2                !
 ! D27   D(68,2,3,12)          105.6936         estimate D2E/DX2                !
 ! D28   D(1,2,10,11)          -26.0299         estimate D2E/DX2                !
 ! D29   D(1,2,10,13)          127.0345         estimate D2E/DX2                !
 ! D30   D(3,2,10,11)         -137.6082         estimate D2E/DX2                !
 ! D31   D(3,2,10,13)           15.4563         estimate D2E/DX2                !
 ! D32   D(68,2,10,11)         101.2274         estimate D2E/DX2                !
 ! D33   D(68,2,10,13)        -105.7081         estimate D2E/DX2                !
 ! D34   D(2,3,5,4)             -6.3528         estimate D2E/DX2                !
 ! D35   D(2,3,5,15)          -145.67           estimate D2E/DX2                !
 ! D36   D(12,3,5,4)           121.26           estimate D2E/DX2                !
 ! D37   D(12,3,5,15)          -18.0573         estimate D2E/DX2                !
 ! D38   D(2,3,12,13)            1.323          estimate D2E/DX2                !
 ! D39   D(2,3,12,14)          149.1142         estimate D2E/DX2                !
 ! D40   D(5,3,12,13)         -126.597          estimate D2E/DX2                !
 ! D41   D(5,3,12,14)           21.1942         estimate D2E/DX2                !
 ! D42   D(1,4,5,3)              7.3841         estimate D2E/DX2                !
 ! D43   D(1,4,5,15)           146.6586         estimate D2E/DX2                !
 ! D44   D(6,4,5,3)           -123.7181         estimate D2E/DX2                !
 ! D45   D(6,4,5,15)            15.5564         estimate D2E/DX2                !
 ! D46   D(1,4,6,8)             -3.5805         estimate D2E/DX2                !
 ! D47   D(1,4,6,17)          -149.9713         estimate D2E/DX2                !
 ! D48   D(5,4,6,8)            128.6613         estimate D2E/DX2                !
 ! D49   D(5,4,6,17)           -17.7295         estimate D2E/DX2                !
 ! D50   D(3,5,15,16)          -11.3822         estimate D2E/DX2                !
 ! D51   D(3,5,15,18)          132.6375         estimate D2E/DX2                !
 ! D52   D(4,5,15,16)         -146.2793         estimate D2E/DX2                !
 ! D53   D(4,5,15,18)           -2.2597         estimate D2E/DX2                !
 ! D54   D(4,6,8,7)             -7.2686         estimate D2E/DX2                !
 ! D55   D(4,6,8,20)          -157.9644         estimate D2E/DX2                !
 ! D56   D(17,6,8,7)           140.2481         estimate D2E/DX2                !
 ! D57   D(17,6,8,20)          -10.4477         estimate D2E/DX2                !
 ! D58   D(4,6,17,18)            5.9442         estimate D2E/DX2                !
 ! D59   D(4,6,17,19)          157.298          estimate D2E/DX2                !
 ! D60   D(8,6,17,18)         -137.078          estimate D2E/DX2                !
 ! D61   D(8,6,17,19)           14.2758         estimate D2E/DX2                !
 ! D62   D(1,7,8,6)             15.3498         estimate D2E/DX2                !
 ! D63   D(1,7,8,20)           164.9331         estimate D2E/DX2                !
 ! D64   D(9,7,8,6)           -136.5532         estimate D2E/DX2                !
 ! D65   D(9,7,8,20)            13.0301         estimate D2E/DX2                !
 ! D66   D(1,7,9,11)           -24.96           estimate D2E/DX2                !
 ! D67   D(1,7,9,22)          -169.5255         estimate D2E/DX2                !
 ! D68   D(8,7,9,11)           122.8039         estimate D2E/DX2                !
 ! D69   D(8,7,9,22)           -21.7616         estimate D2E/DX2                !
 ! D70   D(6,8,20,21)           -0.7837         estimate D2E/DX2                !
 ! D71   D(6,8,20,23)          152.9144         estimate D2E/DX2                !
 ! D72   D(7,8,20,21)         -146.5818         estimate D2E/DX2                !
 ! D73   D(7,8,20,23)            7.1163         estimate D2E/DX2                !
 ! D74   D(7,9,11,10)           -0.5861         estimate D2E/DX2                !
 ! D75   D(7,9,11,25)         -145.2538         estimate D2E/DX2                !
 ! D76   D(22,9,11,10)         143.1063         estimate D2E/DX2                !
 ! D77   D(22,9,11,25)          -1.5614         estimate D2E/DX2                !
 ! D78   D(7,9,22,23)           11.7119         estimate D2E/DX2                !
 ! D79   D(7,9,22,24)          157.398          estimate D2E/DX2                !
 ! D80   D(11,9,22,23)        -132.813          estimate D2E/DX2                !
 ! D81   D(11,9,22,24)          12.873          estimate D2E/DX2                !
 ! D82   D(2,10,11,9)           26.8215         estimate D2E/DX2                !
 ! D83   D(2,10,11,25)         172.2877         estimate D2E/DX2                !
 ! D84   D(13,10,11,9)        -123.8734         estimate D2E/DX2                !
 ! D85   D(13,10,11,25)         21.5928         estimate D2E/DX2                !
 ! D86   D(2,10,13,12)         -15.6915         estimate D2E/DX2                !
 ! D87   D(2,10,13,27)        -166.9089         estimate D2E/DX2                !
 ! D88   D(11,10,13,12)        138.7586         estimate D2E/DX2                !
 ! D89   D(11,10,13,27)        -12.4588         estimate D2E/DX2                !
 ! D90   D(9,11,25,26)         -10.4334         estimate D2E/DX2                !
 ! D91   D(9,11,25,28)         133.6315         estimate D2E/DX2                !
 ! D92   D(10,11,25,26)       -155.9278         estimate D2E/DX2                !
 ! D93   D(10,11,25,28)        -11.8628         estimate D2E/DX2                !
 ! D94   D(3,12,13,10)           8.7807         estimate D2E/DX2                !
 ! D95   D(3,12,13,27)         160.8822         estimate D2E/DX2                !
 ! D96   D(14,12,13,10)       -141.317          estimate D2E/DX2                !
 ! D97   D(14,12,13,27)         10.7845         estimate D2E/DX2                !
 ! D98   D(3,12,14,16)           5.9757         estimate D2E/DX2                !
 ! D99   D(3,12,14,29)        -157.7208         estimate D2E/DX2                !
 ! D100  D(13,12,14,16)        150.3413         estimate D2E/DX2                !
 ! D101  D(13,12,14,29)        -13.3553         estimate D2E/DX2                !
 ! D102  D(10,13,27,28)         -7.5112         estimate D2E/DX2                !
 ! D103  D(10,13,27,30)        147.3415         estimate D2E/DX2                !
 ! D104  D(12,13,27,28)       -155.2611         estimate D2E/DX2                !
 ! D105  D(12,13,27,30)         -0.4083         estimate D2E/DX2                !
 ! D106  D(12,14,16,15)        -31.7638         estimate D2E/DX2                !
 ! D107  D(12,14,16,32)       -143.0823         estimate D2E/DX2                !
 ! D108  D(12,14,16,69)         92.0647         estimate D2E/DX2                !
 ! D109  D(29,14,16,15)        131.7337         estimate D2E/DX2                !
 ! D110  D(29,14,16,32)         20.4152         estimate D2E/DX2                !
 ! D111  D(29,14,16,69)       -104.4378         estimate D2E/DX2                !
 ! D112  D(12,14,29,30)          5.7898         estimate D2E/DX2                !
 ! D113  D(12,14,29,31)        162.4545         estimate D2E/DX2                !
 ! D114  D(16,14,29,30)       -156.9684         estimate D2E/DX2                !
 ! D115  D(16,14,29,31)         -0.3037         estimate D2E/DX2                !
 ! D116  D(5,15,16,14)          35.9127         estimate D2E/DX2                !
 ! D117  D(5,15,16,32)         153.2952         estimate D2E/DX2                !
 ! D118  D(5,15,16,69)         -83.8373         estimate D2E/DX2                !
 ! D119  D(18,15,16,14)       -111.0106         estimate D2E/DX2                !
 ! D120  D(18,15,16,32)          6.3719         estimate D2E/DX2                !
 ! D121  D(18,15,16,69)        129.2394         estimate D2E/DX2                !
 ! D122  D(5,15,18,17)          -9.7462         estimate D2E/DX2                !
 ! D123  D(5,15,18,33)        -159.2085         estimate D2E/DX2                !
 ! D124  D(16,15,18,17)        138.2874         estimate D2E/DX2                !
 ! D125  D(16,15,18,33)        -11.1749         estimate D2E/DX2                !
 ! D126  D(14,16,32,33)        116.5181         estimate D2E/DX2                !
 ! D127  D(14,16,32,34)        -29.0515         estimate D2E/DX2                !
 ! D128  D(15,16,32,33)          0.731          estimate D2E/DX2                !
 ! D129  D(15,16,32,34)       -144.8387         estimate D2E/DX2                !
 ! D130  D(69,16,32,33)       -122.3289         estimate D2E/DX2                !
 ! D131  D(69,16,32,34)         92.1014         estimate D2E/DX2                !
 ! D132  D(6,17,18,15)           7.8839         estimate D2E/DX2                !
 ! D133  D(6,17,18,33)         153.8857         estimate D2E/DX2                !
 ! D134  D(19,17,18,15)       -143.5212         estimate D2E/DX2                !
 ! D135  D(19,17,18,33)          2.4806         estimate D2E/DX2                !
 ! D136  D(6,17,19,21)          -7.1064         estimate D2E/DX2                !
 ! D137  D(6,17,19,35)        -162.2761         estimate D2E/DX2                !
 ! D138  D(18,17,19,21)        142.7907         estimate D2E/DX2                !
 ! D139  D(18,17,19,35)        -12.3789         estimate D2E/DX2                !
 ! D140  D(15,18,33,32)         11.4938         estimate D2E/DX2                !
 ! D141  D(15,18,33,36)        157.8055         estimate D2E/DX2                !
 ! D142  D(17,18,33,32)       -138.8559         estimate D2E/DX2                !
 ! D143  D(17,18,33,36)          7.4558         estimate D2E/DX2                !
 ! D144  D(17,19,21,20)         -4.0005         estimate D2E/DX2                !
 ! D145  D(17,19,21,38)       -157.0965         estimate D2E/DX2                !
 ! D146  D(35,19,21,20)        151.022          estimate D2E/DX2                !
 ! D147  D(35,19,21,38)         -2.074          estimate D2E/DX2                !
 ! D148  D(17,19,35,36)         12.9791         estimate D2E/DX2                !
 ! D149  D(17,19,35,37)        154.3646         estimate D2E/DX2                !
 ! D150  D(21,19,35,36)       -142.6367         estimate D2E/DX2                !
 ! D151  D(21,19,35,37)         -1.2512         estimate D2E/DX2                !
 ! D152  D(8,20,21,19)           7.8945         estimate D2E/DX2                !
 ! D153  D(8,20,21,38)         161.5804         estimate D2E/DX2                !
 ! D154  D(23,20,21,19)       -144.2083         estimate D2E/DX2                !
 ! D155  D(23,20,21,38)          9.4776         estimate D2E/DX2                !
 ! D156  D(8,20,23,22)         -17.3004         estimate D2E/DX2                !
 ! D157  D(8,20,23,40)        -158.9321         estimate D2E/DX2                !
 ! D158  D(21,20,23,22)        136.2084         estimate D2E/DX2                !
 ! D159  D(21,20,23,40)         -5.4234         estimate D2E/DX2                !
 ! D160  D(19,21,38,39)          3.9583         estimate D2E/DX2                !
 ! D161  D(19,21,38,42)        145.7235         estimate D2E/DX2                !
 ! D162  D(20,21,38,39)       -149.7372         estimate D2E/DX2                !
 ! D163  D(20,21,38,42)         -7.972          estimate D2E/DX2                !
 ! D164  D(9,22,23,20)           8.3279         estimate D2E/DX2                !
 ! D165  D(9,22,23,40)         154.3352         estimate D2E/DX2                !
 ! D166  D(24,22,23,20)       -141.9483         estimate D2E/DX2                !
 ! D167  D(24,22,23,40)          4.059          estimate D2E/DX2                !
 ! D168  D(9,22,24,26)         -12.2173         estimate D2E/DX2                !
 ! D169  D(9,22,24,41)        -154.4097         estimate D2E/DX2                !
 ! D170  D(23,22,24,26)        137.916          estimate D2E/DX2                !
 ! D171  D(23,22,24,41)         -4.2764         estimate D2E/DX2                !
 ! D172  D(20,23,40,41)        143.1693         estimate D2E/DX2                !
 ! D173  D(20,23,40,42)         -0.5915         estimate D2E/DX2                !
 ! D174  D(22,23,40,41)         -2.3581         estimate D2E/DX2                !
 ! D175  D(22,23,40,42)       -146.1189         estimate D2E/DX2                !
 ! D176  D(22,24,26,25)          0.0064         estimate D2E/DX2                !
 ! D177  D(22,24,26,44)       -137.9206         estimate D2E/DX2                !
 ! D178  D(41,24,26,25)        138.0581         estimate D2E/DX2                !
 ! D179  D(41,24,26,44)          0.1311         estimate D2E/DX2                !
 ! D180  D(22,24,41,40)          2.8234         estimate D2E/DX2                !
 ! D181  D(22,24,41,43)        142.6973         estimate D2E/DX2                !
 ! D182  D(26,24,41,40)       -138.8218         estimate D2E/DX2                !
 ! D183  D(26,24,41,43)          1.0521         estimate D2E/DX2                !
 ! D184  D(11,25,26,24)         11.3314         estimate D2E/DX2                !
 ! D185  D(11,25,26,44)        153.407          estimate D2E/DX2                !
 ! D186  D(28,25,26,24)       -137.1869         estimate D2E/DX2                !
 ! D187  D(28,25,26,44)          4.8888         estimate D2E/DX2                !
 ! D188  D(11,25,28,27)         -7.9843         estimate D2E/DX2                !
 ! D189  D(11,25,28,45)       -153.881          estimate D2E/DX2                !
 ! D190  D(26,25,28,27)        141.0015         estimate D2E/DX2                !
 ! D191  D(26,25,28,45)         -4.8952         estimate D2E/DX2                !
 ! D192  D(24,26,44,45)        138.4906         estimate D2E/DX2                !
 ! D193  D(24,26,44,46)         -1.3248         estimate D2E/DX2                !
 ! D194  D(25,26,44,45)         -2.9866         estimate D2E/DX2                !
 ! D195  D(25,26,44,46)       -142.8021         estimate D2E/DX2                !
 ! D196  D(13,27,28,25)         17.3094         estimate D2E/DX2                !
 ! D197  D(13,27,28,45)        159.047          estimate D2E/DX2                !
 ! D198  D(30,27,28,25)       -137.1154         estimate D2E/DX2                !
 ! D199  D(30,27,28,45)          4.6222         estimate D2E/DX2                !
 ! D200  D(13,27,30,29)         -7.1203         estimate D2E/DX2                !
 ! D201  D(13,27,30,47)       -161.9106         estimate D2E/DX2                !
 ! D202  D(28,27,30,29)        146.0634         estimate D2E/DX2                !
 ! D203  D(28,27,30,47)         -8.7269         estimate D2E/DX2                !
 ! D204  D(25,28,45,44)          3.1106         estimate D2E/DX2                !
 ! D205  D(25,28,45,48)        146.4675         estimate D2E/DX2                !
 ! D206  D(27,28,45,44)       -142.637          estimate D2E/DX2                !
 ! D207  D(27,28,45,48)          0.7199         estimate D2E/DX2                !
 ! D208  D(14,29,30,27)          4.5765         estimate D2E/DX2                !
 ! D209  D(14,29,30,47)        158.6403         estimate D2E/DX2                !
 ! D210  D(31,29,30,27)       -152.4655         estimate D2E/DX2                !
 ! D211  D(31,29,30,47)          1.5983         estimate D2E/DX2                !
 ! D212  D(14,29,31,34)        -14.2126         estimate D2E/DX2                !
 ! D213  D(14,29,31,49)       -153.5055         estimate D2E/DX2                !
 ! D214  D(30,29,31,34)        142.994          estimate D2E/DX2                !
 ! D215  D(30,29,31,49)          3.7011         estimate D2E/DX2                !
 ! D216  D(27,30,47,48)          7.847          estimate D2E/DX2                !
 ! D217  D(27,30,47,50)        149.4948         estimate D2E/DX2                !
 ! D218  D(29,30,47,48)       -146.7479         estimate D2E/DX2                !
 ! D219  D(29,30,47,50)         -5.1001         estimate D2E/DX2                !
 ! D220  D(29,31,34,32)          6.2073         estimate D2E/DX2                !
 ! D221  D(29,31,34,51)       -136.0584         estimate D2E/DX2                !
 ! D222  D(49,31,34,32)        150.5993         estimate D2E/DX2                !
 ! D223  D(49,31,34,51)          8.3335         estimate D2E/DX2                !
 ! D224  D(29,31,49,50)         -5.6681         estimate D2E/DX2                !
 ! D225  D(29,31,49,54)        138.1032         estimate D2E/DX2                !
 ! D226  D(34,31,49,50)       -149.4009         estimate D2E/DX2                !
 ! D227  D(34,31,49,54)         -5.6296         estimate D2E/DX2                !
 ! D228  D(16,32,33,18)         -7.3658         estimate D2E/DX2                !
 ! D229  D(16,32,33,36)       -152.4787         estimate D2E/DX2                !
 ! D230  D(34,32,33,18)        139.6348         estimate D2E/DX2                !
 ! D231  D(34,32,33,36)         -5.4782         estimate D2E/DX2                !
 ! D232  D(16,32,34,31)         17.0271         estimate D2E/DX2                !
 ! D233  D(16,32,34,51)        154.7434         estimate D2E/DX2                !
 ! D234  D(33,32,34,31)       -125.8936         estimate D2E/DX2                !
 ! D235  D(33,32,34,51)         11.8227         estimate D2E/DX2                !
 ! D236  D(18,33,36,35)         -7.0901         estimate D2E/DX2                !
 ! D237  D(18,33,36,52)       -145.9961         estimate D2E/DX2                !
 ! D238  D(32,33,36,35)        134.311          estimate D2E/DX2                !
 ! D239  D(32,33,36,52)         -4.595          estimate D2E/DX2                !
 ! D240  D(31,34,51,52)        133.757          estimate D2E/DX2                !
 ! D241  D(31,34,51,54)         -7.8553         estimate D2E/DX2                !
 ! D242  D(32,34,51,52)         -8.3864         estimate D2E/DX2                !
 ! D243  D(32,34,51,54)       -149.9987         estimate D2E/DX2                !
 ! D244  D(19,35,36,33)         -3.2923         estimate D2E/DX2                !
 ! D245  D(19,35,36,52)        139.15           estimate D2E/DX2                !
 ! D246  D(37,35,36,33)       -149.6771         estimate D2E/DX2                !
 ! D247  D(37,35,36,52)         -7.2349         estimate D2E/DX2                !
 ! D248  D(19,35,37,39)          2.8035         estimate D2E/DX2                !
 ! D249  D(19,35,37,53)       -140.7206         estimate D2E/DX2                !
 ! D250  D(36,35,37,39)        149.085          estimate D2E/DX2                !
 ! D251  D(36,35,37,53)          5.5608         estimate D2E/DX2                !
 ! D252  D(33,36,52,51)          8.0541         estimate D2E/DX2                !
 ! D253  D(33,36,52,53)        148.9124         estimate D2E/DX2                !
 ! D254  D(35,36,52,51)       -134.7744         estimate D2E/DX2                !
 ! D255  D(35,36,52,53)          6.084          estimate D2E/DX2                !
 ! D256  D(35,37,39,38)         -0.9525         estimate D2E/DX2                !
 ! D257  D(35,37,39,57)       -140.3457         estimate D2E/DX2                !
 ! D258  D(53,37,39,38)        138.2068         estimate D2E/DX2                !
 ! D259  D(53,37,39,57)         -1.1864         estimate D2E/DX2                !
 ! D260  D(35,37,53,52)         -1.9023         estimate D2E/DX2                !
 ! D261  D(35,37,53,55)        139.4331         estimate D2E/DX2                !
 ! D262  D(39,37,53,52)       -145.1958         estimate D2E/DX2                !
 ! D263  D(39,37,53,55)         -3.8603         estimate D2E/DX2                !
 ! D264  D(21,38,39,37)         -2.4514         estimate D2E/DX2                !
 ! D265  D(21,38,39,57)        141.1001         estimate D2E/DX2                !
 ! D266  D(42,38,39,37)       -149.23           estimate D2E/DX2                !
 ! D267  D(42,38,39,57)         -5.6785         estimate D2E/DX2                !
 ! D268  D(21,38,42,40)          2.2688         estimate D2E/DX2                !
 ! D269  D(21,38,42,58)       -140.8723         estimate D2E/DX2                !
 ! D270  D(39,38,42,40)        148.9349         estimate D2E/DX2                !
 ! D271  D(39,38,42,58)          5.7939         estimate D2E/DX2                !
 ! D272  D(37,39,57,58)        146.6756         estimate D2E/DX2                !
 ! D273  D(37,39,57,60)          4.973          estimate D2E/DX2                !
 ! D274  D(38,39,57,58)          3.4474         estimate D2E/DX2                !
 ! D275  D(38,39,57,60)       -138.2553         estimate D2E/DX2                !
 ! D276  D(23,40,41,24)         -0.2922         estimate D2E/DX2                !
 ! D277  D(23,40,41,43)       -140.6132         estimate D2E/DX2                !
 ! D278  D(42,40,41,24)        142.4921         estimate D2E/DX2                !
 ! D279  D(42,40,41,43)          2.1711         estimate D2E/DX2                !
 ! D280  D(23,40,42,38)          2.2282         estimate D2E/DX2                !
 ! D281  D(23,40,42,58)        141.4241         estimate D2E/DX2                !
 ! D282  D(41,40,42,38)       -136.9619         estimate D2E/DX2                !
 ! D283  D(41,40,42,58)          2.234          estimate D2E/DX2                !
 ! D284  D(24,41,43,46)         -1.0481         estimate D2E/DX2                !
 ! D285  D(24,41,43,59)       -138.6999         estimate D2E/DX2                !
 ! D286  D(40,41,43,46)        133.7482         estimate D2E/DX2                !
 ! D287  D(40,41,43,59)         -3.9035         estimate D2E/DX2                !
 ! D288  D(38,42,58,57)         -3.7335         estimate D2E/DX2                !
 ! D289  D(38,42,58,59)        138.5263         estimate D2E/DX2                !
 ! D290  D(40,42,58,57)       -147.1338         estimate D2E/DX2                !
 ! D291  D(40,42,58,59)         -4.874          estimate D2E/DX2                !
 ! D292  D(41,43,46,44)         -0.1419         estimate D2E/DX2                !
 ! D293  D(41,43,46,61)       -142.0412         estimate D2E/DX2                !
 ! D294  D(59,43,46,44)        141.9377         estimate D2E/DX2                !
 ! D295  D(59,43,46,61)          0.0385         estimate D2E/DX2                !
 ! D296  D(41,43,59,58)          1.2592         estimate D2E/DX2                !
 ! D297  D(41,43,59,65)        143.6191         estimate D2E/DX2                !
 ! D298  D(46,43,59,58)       -140.8182         estimate D2E/DX2                !
 ! D299  D(46,43,59,65)          1.5417         estimate D2E/DX2                !
 ! D300  D(26,44,45,28)         -0.0659         estimate D2E/DX2                !
 ! D301  D(26,44,45,48)       -142.3917         estimate D2E/DX2                !
 ! D302  D(46,44,45,28)        140.2456         estimate D2E/DX2                !
 ! D303  D(46,44,45,48)         -2.0802         estimate D2E/DX2                !
 ! D304  D(26,44,46,43)          1.3249         estimate D2E/DX2                !
 ! D305  D(26,44,46,61)        138.7054         estimate D2E/DX2                !
 ! D306  D(45,44,46,43)       -133.4638         estimate D2E/DX2                !
 ! D307  D(45,44,46,61)          3.9167         estimate D2E/DX2                !
 ! D308  D(28,45,48,47)         -1.6594         estimate D2E/DX2                !
 ! D309  D(28,45,48,62)       -141.3359         estimate D2E/DX2                !
 ! D310  D(44,45,48,47)        137.047          estimate D2E/DX2                !
 ! D311  D(44,45,48,62)         -2.6295         estimate D2E/DX2                !
 ! D312  D(43,46,61,62)        140.7523         estimate D2E/DX2                !
 ! D313  D(43,46,61,65)         -1.6016         estimate D2E/DX2                !
 ! D314  D(44,46,61,62)         -1.0616         estimate D2E/DX2                !
 ! D315  D(44,46,61,65)       -143.4155         estimate D2E/DX2                !
 ! D316  D(30,47,48,45)         -2.8394         estimate D2E/DX2                !
 ! D317  D(30,47,48,62)        140.8172         estimate D2E/DX2                !
 ! D318  D(50,47,48,45)       -149.2807         estimate D2E/DX2                !
 ! D319  D(50,47,48,62)         -5.6241         estimate D2E/DX2                !
 ! D320  D(30,47,50,49)          3.2621         estimate D2E/DX2                !
 ! D321  D(30,47,50,63)       -140.6907         estimate D2E/DX2                !
 ! D322  D(48,47,50,49)        149.7993         estimate D2E/DX2                !
 ! D323  D(48,47,50,63)          5.8465         estimate D2E/DX2                !
 ! D324  D(45,48,62,61)          5.4701         estimate D2E/DX2                !
 ! D325  D(45,48,62,63)        147.2253         estimate D2E/DX2                !
 ! D326  D(47,48,62,61)       -138.4933         estimate D2E/DX2                !
 ! D327  D(47,48,62,63)          3.2619         estimate D2E/DX2                !
 ! D328  D(31,49,50,47)          2.1328         estimate D2E/DX2                !
 ! D329  D(31,49,50,63)        141.6112         estimate D2E/DX2                !
 ! D330  D(54,49,50,47)       -137.9408         estimate D2E/DX2                !
 ! D331  D(54,49,50,63)          1.5377         estimate D2E/DX2                !
 ! D332  D(31,49,54,51)          0.8165         estimate D2E/DX2                !
 ! D333  D(31,49,54,56)       -140.82           estimate D2E/DX2                !
 ! D334  D(50,49,54,51)        145.1605         estimate D2E/DX2                !
 ! D335  D(50,49,54,56)          3.524          estimate D2E/DX2                !
 ! D336  D(47,50,63,62)         -3.8958         estimate D2E/DX2                !
 ! D337  D(47,50,63,64)        138.1046         estimate D2E/DX2                !
 ! D338  D(49,50,63,62)       -147.0213         estimate D2E/DX2                !
 ! D339  D(49,50,63,64)         -5.021          estimate D2E/DX2                !
 ! D340  D(34,51,52,36)         -1.7913         estimate D2E/DX2                !
 ! D341  D(34,51,52,53)       -137.2578         estimate D2E/DX2                !
 ! D342  D(54,51,52,36)        135.5752         estimate D2E/DX2                !
 ! D343  D(54,51,52,53)          0.1086         estimate D2E/DX2                !
 ! D344  D(34,51,54,49)          4.3848         estimate D2E/DX2                !
 ! D345  D(34,51,54,56)        145.5015         estimate D2E/DX2                !
 ! D346  D(52,51,54,49)       -137.7821         estimate D2E/DX2                !
 ! D347  D(52,51,54,56)          3.3346         estimate D2E/DX2                !
 ! D348  D(36,52,53,37)         -2.5389         estimate D2E/DX2                !
 ! D349  D(36,52,53,55)       -143.6728         estimate D2E/DX2                !
 ! D350  D(51,52,53,37)        137.3815         estimate D2E/DX2                !
 ! D351  D(51,52,53,55)         -3.7525         estimate D2E/DX2                !
 ! D352  D(37,53,55,56)       -132.8571         estimate D2E/DX2                !
 ! D353  D(37,53,55,60)          5.0938         estimate D2E/DX2                !
 ! D354  D(52,53,55,56)          3.9386         estimate D2E/DX2                !
 ! D355  D(52,53,55,60)        141.8895         estimate D2E/DX2                !
 ! D356  D(49,54,56,55)        133.4832         estimate D2E/DX2                !
 ! D357  D(49,54,56,64)         -5.1474         estimate D2E/DX2                !
 ! D358  D(51,54,56,55)         -3.1417         estimate D2E/DX2                !
 ! D359  D(51,54,56,64)       -141.7723         estimate D2E/DX2                !
 ! D360  D(53,55,56,54)         -0.5318         estimate D2E/DX2                !
 ! D361  D(53,55,56,64)        142.8939         estimate D2E/DX2                !
 ! D362  D(60,55,56,54)       -142.9724         estimate D2E/DX2                !
 ! D363  D(60,55,56,64)          0.4534         estimate D2E/DX2                !
 ! D364  D(53,55,60,57)         -1.3204         estimate D2E/DX2                !
 ! D365  D(53,55,60,66)       -143.9924         estimate D2E/DX2                !
 ! D366  D(56,55,60,57)        140.9905         estimate D2E/DX2                !
 ! D367  D(56,55,60,66)         -1.6815         estimate D2E/DX2                !
 ! D368  D(54,56,64,63)          1.6894         estimate D2E/DX2                !
 ! D369  D(54,56,64,66)        144.0396         estimate D2E/DX2                !
 ! D370  D(55,56,64,63)       -141.4023         estimate D2E/DX2                !
 ! D371  D(55,56,64,66)          0.9479         estimate D2E/DX2                !
 ! D372  D(39,57,58,42)          0.1887         estimate D2E/DX2                !
 ! D373  D(39,57,58,59)       -141.7533         estimate D2E/DX2                !
 ! D374  D(60,57,58,42)        141.5844         estimate D2E/DX2                !
 ! D375  D(60,57,58,59)         -0.3575         estimate D2E/DX2                !
 ! D376  D(39,57,60,55)         -3.7245         estimate D2E/DX2                !
 ! D377  D(39,57,60,66)        134.7559         estimate D2E/DX2                !
 ! D378  D(58,57,60,55)       -140.6855         estimate D2E/DX2                !
 ! D379  D(58,57,60,66)         -2.2051         estimate D2E/DX2                !
 ! D380  D(42,58,59,43)          3.1475         estimate D2E/DX2                !
 ! D381  D(42,58,59,65)       -134.9796         estimate D2E/DX2                !
 ! D382  D(57,58,59,43)        140.666          estimate D2E/DX2                !
 ! D383  D(57,58,59,65)          2.5389         estimate D2E/DX2                !
 ! D384  D(43,59,65,61)         -2.5304         estimate D2E/DX2                !
 ! D385  D(43,59,65,66)       -144.8565         estimate D2E/DX2                !
 ! D386  D(58,59,65,61)        140.1725         estimate D2E/DX2                !
 ! D387  D(58,59,65,66)         -2.1536         estimate D2E/DX2                !
 ! D388  D(55,60,66,64)          2.2614         estimate D2E/DX2                !
 ! D389  D(55,60,66,65)        145.52           estimate D2E/DX2                !
 ! D390  D(57,60,66,64)       -140.6711         estimate D2E/DX2                !
 ! D391  D(57,60,66,65)          2.5875         estimate D2E/DX2                !
 ! D392  D(46,61,62,48)         -3.6384         estimate D2E/DX2                !
 ! D393  D(46,61,62,63)       -140.4627         estimate D2E/DX2                !
 ! D394  D(65,61,62,48)        134.4673         estimate D2E/DX2                !
 ! D395  D(65,61,62,63)         -2.357          estimate D2E/DX2                !
 ! D396  D(46,61,65,59)          2.5539         estimate D2E/DX2                !
 ! D397  D(46,61,65,66)        144.9327         estimate D2E/DX2                !
 ! D398  D(62,61,65,59)       -140.1528         estimate D2E/DX2                !
 ! D399  D(62,61,65,66)          2.2261         estimate D2E/DX2                !
 ! D400  D(48,62,63,50)          0.3623         estimate D2E/DX2                !
 ! D401  D(48,62,63,64)       -141.4777         estimate D2E/DX2                !
 ! D402  D(61,62,63,50)        141.7055         estimate D2E/DX2                !
 ! D403  D(61,62,63,64)         -0.1346         estimate D2E/DX2                !
 ! D404  D(50,63,64,56)          3.3954         estimate D2E/DX2                !
 ! D405  D(50,63,64,66)       -134.7045         estimate D2E/DX2                !
 ! D406  D(62,63,64,56)        140.8443         estimate D2E/DX2                !
 ! D407  D(62,63,64,66)          2.7444         estimate D2E/DX2                !
 ! D408  D(56,64,66,60)         -1.9822         estimate D2E/DX2                !
 ! D409  D(56,64,66,65)       -145.1982         estimate D2E/DX2                !
 ! D410  D(63,64,66,60)        140.3399         estimate D2E/DX2                !
 ! D411  D(63,64,66,65)         -2.8761         estimate D2E/DX2                !
 ! D412  D(59,65,66,60)         -0.4036         estimate D2E/DX2                !
 ! D413  D(59,65,66,64)        138.2648         estimate D2E/DX2                !
 ! D414  D(61,65,66,60)       -138.29           estimate D2E/DX2                !
 ! D415  D(61,65,66,64)          0.3784         estimate D2E/DX2                !
 --------------------------------------------------------------------------------
 Trust Radius=3.00D-01 FncErr=1.00D-07 GrdErr=1.00D-06 EigMax=2.50D+02 EigMin=1.00D-04
 Number of steps in this run=    414 maximum allowed number of steps=    414.
 GradGradGradGradGradGradGradGradGradGradGradGradGradGradGradGradGradGrad

 Leave Link  103 at Sat Jul 16 16:58:27 2022, MaxMem=  1342177280 cpu:               1.4 elap:               0.0
 (Enter /home/mkliu/g16/l202.exe)
 Stoichiometry    C66Cl3(2)
 Framework group  C1[X(C66Cl3)]
 Deg. of freedom   201
 Full point group                 C1      NOp   1
 Largest Abelian subgroup         C1      NOp   1
 Largest concise Abelian subgroup C1      NOp   1
                         Standard orientation:                         
 ---------------------------------------------------------------------
 Center     Atomic      Atomic             Coordinates (Angstroms)
 Number     Number       Type             X           Y           Z
 ---------------------------------------------------------------------
      1          6           0        3.771161   -1.042700    0.831374
      2          6           0        3.860799   -0.603781   -0.649578
      3          6           0        3.540024    0.871821   -0.638490
      4          6           0        3.372968    0.230904    1.537661
      5          6           0        3.345601    1.339762    0.673144
      6          6           0        2.294218   -0.010473    2.371465
      7          6           0        2.601111   -1.924309    1.146603
      8          6           0        1.874098   -1.383225    2.208076
      9          6           0        1.943597   -2.720395    0.195003
     10          6           0        2.740340   -1.130805   -1.485805
     11          6           0        2.024094   -2.302348   -1.198490
     12          6           0        2.515688    1.162173   -1.559911
     13          6           0        2.116126   -0.088262   -2.169650
     14          6           0        1.573125    2.184481   -1.422129
     15          6           0        2.407230    2.342728    0.895200
     16          6           0        1.775761    3.118810   -0.241010
     17          6           0        1.329055    0.983274    2.670160
     18          6           0        1.489787    2.197122    1.939506
     19          6           0        0.016896    0.590381    3.108230
     20          6           0        0.570241   -1.784895    2.552190
     21          6           0       -0.359931   -0.815489    3.093257
     22          6           0        0.741128   -3.291591    0.629669
     23          6           0        0.100300   -2.895167    1.837255
     24          6           0       -0.287431   -3.721554   -0.274326
     25          6           0        0.903969   -2.533020   -2.010678
     26          6           0       -0.206460   -3.342047   -1.596200
     27          6           0        0.883135   -0.214431   -2.819615
     28          6           0        0.387058   -1.527039   -2.875366
     29          6           0        0.334357    2.119434   -2.114876
     30          6           0       -0.007185    0.917918   -2.874836
     31          6           0       -0.737929    2.944775   -1.684736
     32          6           0        0.466416    3.523044    0.355625
     33          6           0        0.369388    3.047948    1.686777
     34          6           0       -0.676374    3.599752   -0.390077
     35          6           0       -1.009589    1.552026    3.026907
     36          6           0       -0.843089    2.768515    2.285180
     37          6           0       -2.387280    1.178937    2.905198
     38          6           0       -1.718176   -1.151805    3.043730
[...]
     6 C(13)  Bbb     0.0313     4.194     1.497     1.399  0.1255  0.9906 -0.0549
              Bcc     0.0371     4.978     1.776     1.661  0.8636 -0.1363 -0.4854
 
              Baa    -0.0255    -3.421    -1.221    -1.141 -0.6103  0.6528 -0.4487
     7 C(13)  Bbb     0.0082     1.096     0.391     0.366 -0.3046  0.3295  0.8937
              Bcc     0.0173     2.325     0.829     0.775  0.7313  0.6821 -0.0023
 
              Baa    -0.0161    -2.158    -0.770    -0.720 -0.2641  0.7519  0.6041
     8 C(13)  Bbb    -0.0118    -1.583    -0.565    -0.528  0.8642  0.4626 -0.1980
              Bcc     0.0279     3.740     1.335     1.248  0.4283 -0.4697  0.7719
 
              Baa    -0.0024    -0.324    -0.116    -0.108 -0.1481 -0.0254  0.9886
     9 C(13)  Bbb    -0.0011    -0.145    -0.052    -0.049  0.9399  0.3073  0.1487
              Bcc     0.0035     0.469     0.167     0.156 -0.3076  0.9513 -0.0216
 
              Baa    -0.0527    -7.078    -2.526    -2.361 -0.6681  0.3126  0.6752
    10 C(13)  Bbb     0.0149     2.002     0.714     0.668  0.3759 -0.6413  0.6689
              Bcc     0.0378     5.076     1.811     1.693  0.6421  0.7007  0.3109
 
              Baa    -0.0085    -1.135    -0.405    -0.379  0.4246 -0.1403  0.8945
    11 C(13)  Bbb    -0.0024    -0.319    -0.114    -0.106  0.7203  0.6509 -0.2398
              Bcc     0.0108     1.454     0.519     0.485 -0.5485  0.7461  0.3774
 
              Baa    -0.1402   -18.815    -6.714    -6.276 -0.6108 -0.4045  0.6807
    12 C(13)  Bbb     0.0529     7.104     2.535     2.370  0.0776  0.8250  0.5598
              Bcc     0.0873    11.711     4.179     3.906  0.7880 -0.3947  0.4725
 
              Baa    -0.0351    -4.712    -1.681    -1.572 -0.2825  0.9358 -0.2111
    13 C(13)  Bbb    -0.0260    -3.492    -1.246    -1.165  0.8146  0.3502  0.4624
              Bcc     0.0611     8.204     2.927     2.736 -0.5067  0.0414  0.8612
 
              Baa    -0.1404   -18.834    -6.720    -6.282 -0.6380  0.6828  0.3560
    14 C(13)  Bbb    -0.1361   -18.259    -6.515    -6.091  0.6321  0.2004  0.7485
              Bcc     0.2764    37.093    13.236    12.373  0.4398  0.7026 -0.5595
 
              Baa    -0.0834   -11.188    -3.992    -3.732  0.8285 -0.4332 -0.3547
    15 C(13)  Bbb    -0.0797   -10.700    -3.818    -3.569  0.1571 -0.4281  0.8900
              Bcc     0.1631    21.888     7.810     7.301  0.5374  0.7931  0.2866
 
              Baa    -0.0059    -0.791    -0.282    -0.264  0.9149  0.3867 -0.1159
    16 C(13)  Bbb     0.0002     0.024     0.008     0.008  0.0569  0.1608  0.9853
              Bcc     0.0057     0.768     0.274     0.256 -0.3997  0.9081 -0.1251
 
              Baa    -0.0571    -7.661    -2.734    -2.555 -0.4599  0.8875 -0.0283
    17 C(13)  Bbb    -0.0532    -7.140    -2.548    -2.381  0.8313  0.4191 -0.3651
              Bcc     0.1103    14.801     5.281     4.937  0.3122  0.1914  0.9305
 
              Baa    -0.0343    -4.609    -1.645    -1.537  0.4596  0.4500  0.7657
    18 C(13)  Bbb     0.0133     1.789     0.638     0.597  0.7100 -0.7041 -0.0123
              Bcc     0.0210     2.820     1.006     0.941 -0.5336 -0.5493  0.6431
 
              Baa    -0.0193    -2.584    -0.922    -0.862  0.1988  0.1542  0.9678
    19 C(13)  Bbb     0.0082     1.099     0.392     0.367 -0.3119  0.9461 -0.0867
              Bcc     0.0111     1.484     0.530     0.495  0.9291  0.2846 -0.2362
 
              Baa    -0.0077    -1.031    -0.368    -0.344  0.3540 -0.3911  0.8495
    20 C(13)  Bbb     0.0031     0.414     0.148     0.138 -0.2661  0.8287  0.4924
              Bcc     0.0046     0.617     0.220     0.206  0.8966  0.4004 -0.1892
 
              Baa    -0.0112    -1.508    -0.538    -0.503 -0.6520  0.7216  0.2328
    21 C(13)  Bbb    -0.0107    -1.437    -0.513    -0.479  0.7484  0.6617  0.0449
              Bcc     0.0219     2.945     1.051     0.982  0.1216 -0.2035  0.9715
 
              Baa    -0.0136    -1.824    -0.651    -0.608 -0.4606  0.8432 -0.2772
    22 C(13)  Bbb     0.0059     0.789     0.282     0.263  0.1364  0.3758  0.9166
              Bcc     0.0077     1.035     0.369     0.345  0.8771  0.3843 -0.2881
 
              Baa    -0.0046    -0.617    -0.220    -0.206 -0.3842  0.4822  0.7873
    23 C(13)  Bbb    -0.0029    -0.386    -0.138    -0.129  0.8962  0.3998  0.1925
              Bcc     0.0075     1.004     0.358     0.335 -0.2219  0.7795 -0.5857
 
              Baa    -0.0082    -1.097    -0.391    -0.366 -0.1839  0.9816  0.0520
    24 C(13)  Bbb     0.0037     0.502     0.179     0.167  0.2224 -0.0100  0.9749
              Bcc     0.0044     0.595     0.212     0.198  0.9575  0.1908 -0.2164
 
              Baa    -0.0268    -3.590    -1.281    -1.198 -0.4589  0.6135  0.6427
    25 C(13)  Bbb     0.0124     1.663     0.593     0.555  0.0511  0.7404 -0.6702
              Bcc     0.0144     1.928     0.688     0.643  0.8870  0.2747  0.3712
 
              Baa    -0.0021    -0.278    -0.099    -0.093 -0.2621  0.7783  0.5706
    26 C(13)  Bbb     0.0006     0.075     0.027     0.025 -0.0234 -0.5963  0.8025
              Bcc     0.0015     0.203     0.072     0.068  0.9648  0.1969  0.1745
 
              Baa    -0.0246    -3.299    -1.177    -1.101 -0.3407 -0.0882  0.9360
    27 C(13)  Bbb     0.0110     1.476     0.527     0.492 -0.5204  0.8468 -0.1097
              Bcc     0.0136     1.824     0.651     0.608  0.7830  0.5245  0.3345
 
              Baa    -0.0108    -1.456    -0.520    -0.486 -0.4911  0.7287 -0.4773
    28 C(13)  Bbb    -0.0077    -1.035    -0.369    -0.345  0.7921  0.6016  0.1035
              Bcc     0.0186     2.491     0.889     0.831 -0.3626  0.3272  0.8726
 
              Baa    -0.0609    -8.168    -2.914    -2.724 -0.2596 -0.5649  0.7832
    29 C(13)  Bbb     0.0255     3.427     1.223     1.143 -0.1964  0.8250  0.5299
              Bcc     0.0353     4.741     1.692     1.581  0.9455  0.0163  0.3251
 
              Baa    -0.0293    -3.927    -1.401    -1.310 -0.5208  0.8459  0.1150
    30 C(13)  Bbb    -0.0278    -3.728    -1.330    -1.243  0.8209  0.4592  0.3395
              Bcc     0.0570     7.655     2.731     2.553 -0.2343 -0.2712  0.9336
 
              Baa    -0.0661    -8.874    -3.166    -2.960 -0.3183  0.6844  0.6560
    31 C(13)  Bbb    -0.0618    -8.299    -2.961    -2.768  0.9360  0.1171  0.3321
              Bcc     0.1280    17.173     6.128     5.728  0.1504  0.7197 -0.6778
 
              Baa    -0.0193    -2.597    -0.927    -0.866  0.3555 -0.1808  0.9170
    32 C(13)  Bbb    -0.0150    -2.013    -0.718    -0.671  0.8701 -0.2945 -0.3953
              Bcc     0.0343     4.609     1.645     1.538  0.3415  0.9384  0.0527
 
              Baa    -0.0142    -1.904    -0.679    -0.635  0.6389 -0.5941  0.4887
    33 C(13)  Bbb    -0.0113    -1.522    -0.543    -0.508  0.6965  0.1769 -0.6954
              Bcc     0.0255     3.426     1.223     1.143  0.3267  0.7847  0.5268
 
              Baa    -0.0162    -2.174    -0.776    -0.725  0.1635  0.9288 -0.3325
    34 C(13)  Bbb     0.0071     0.950     0.339     0.317  0.9296 -0.2579 -0.2633
              Bcc     0.0091     1.224     0.437     0.408  0.3303  0.2660  0.9056
 
              Baa    -0.0285    -3.819    -1.363    -1.274 -0.2929  0.9109 -0.2907
    35 C(13)  Bbb    -0.0261    -3.501    -1.249    -1.168  0.9557  0.2692 -0.1193
              Bcc     0.0546     7.321     2.612     2.442  0.0304  0.3127  0.9494
 
              Baa    -0.0177    -2.370    -0.846    -0.791  0.1257  0.7168  0.6858
    36 C(13)  Bbb     0.0073     0.974     0.348     0.325  0.6436 -0.5850  0.4935
              Bcc     0.0104     1.396     0.498     0.466  0.7549  0.3794 -0.5349
 
              Baa    -0.0148    -1.991    -0.711    -0.664 -0.2991  0.2941  0.9078
    37 C(13)  Bbb     0.0058     0.783     0.279     0.261 -0.3671  0.8427 -0.3939
              Bcc     0.0090     1.208     0.431     0.403  0.8808  0.4510  0.1441
 
              Baa    -0.0169    -2.261    -0.807    -0.754 -0.1191 -0.2272  0.9665
    38 C(13)  Bbb     0.0078     1.050     0.375     0.350 -0.1778  0.9626  0.2044
              Bcc     0.0090     1.211     0.432     0.404  0.9768  0.1475  0.1550
 
              Baa    -0.0147    -1.975    -0.705    -0.659 -0.2949  0.9516 -0.0865
    39 C(13)  Bbb    -0.0130    -1.747    -0.623    -0.583  0.8474  0.3023  0.4364
              Bcc     0.0277     3.721     1.328     1.241 -0.4415 -0.0554  0.8956
 
              Baa    -0.0038    -0.509    -0.182    -0.170  0.1202  0.7491 -0.6514
    40 C(13)  Bbb     0.0015     0.201     0.072     0.067 -0.2627  0.6568  0.7068
              Bcc     0.0023     0.308     0.110     0.103  0.9574  0.0862  0.2757
 
              Baa    -0.0017    -0.222    -0.079    -0.074  0.1850  0.9717 -0.1468
    41 C(13)  Bbb     0.0007     0.096     0.034     0.032  0.8223 -0.2348 -0.5183
              Bcc     0.0009     0.126     0.045     0.042  0.5381  0.0248  0.8425
 
              Baa    -0.0025    -0.340    -0.121    -0.113 -0.1342  0.8099  0.5709
    42 C(13)  Bbb    -0.0020    -0.273    -0.098    -0.091  0.9285 -0.0986  0.3581
              Bcc     0.0046     0.613     0.219     0.205 -0.3463 -0.5782  0.7388
 
              Baa    -0.0012    -0.161    -0.057    -0.054  0.4803  0.8663 -0.1373
    43 C(13)  Bbb     0.0005     0.067     0.024     0.022  0.1847  0.0531  0.9814
              Bcc     0.0007     0.093     0.033     0.031  0.8575 -0.4967 -0.1345
 
              Baa    -0.0007    -0.094    -0.033    -0.031 -0.4501  0.7944 -0.4078
    44 C(13)  Bbb    -0.0006    -0.076    -0.027    -0.025  0.7806  0.1283 -0.6117
              Bcc     0.0013     0.170     0.061     0.057  0.4336  0.5936  0.6779
 
              Baa    -0.0145    -1.950    -0.696    -0.651  0.0001  0.3391  0.9408
    45 C(13)  Bbb     0.0067     0.893     0.319     0.298 -0.2523  0.9103 -0.3281
              Bcc     0.0079     1.057     0.377     0.353  0.9677  0.2373 -0.0856
 
              Baa    -0.0053    -0.705    -0.252    -0.235  0.4812  0.7057  0.5200
    46 C(13)  Bbb     0.0025     0.342     0.122     0.114  0.2601 -0.6815  0.6841
              Bcc     0.0027     0.363     0.129     0.121  0.8371 -0.1939 -0.5115
 
              Baa    -0.0421    -5.647    -2.015    -1.884 -0.0144 -0.2852  0.9584
    47 C(13)  Bbb     0.0197     2.647     0.944     0.883 -0.1784  0.9438  0.2782
              Bcc     0.0224     3.001     1.071     1.001  0.9839  0.1669  0.0644
 
              Baa    -0.0070    -0.936    -0.334    -0.312 -0.1641  0.9839 -0.0703
    48 C(13)  Bbb    -0.0058    -0.779    -0.278    -0.260  0.9620  0.1439 -0.2322
              Bcc     0.0128     1.716     0.612     0.572  0.2184  0.1058  0.9701
 
              Baa    -0.0322    -4.326    -1.544    -1.443 -0.2602  0.7139 -0.6502
    49 C(13)  Bbb     0.0126     1.693     0.604     0.565 -0.4169  0.5243  0.7425
              Bcc     0.0196     2.633     0.939     0.878  0.8709  0.4642  0.1612
 
              Baa    -0.0347    -4.658    -1.662    -1.554 -0.3498  0.7720  0.5307
    50 C(13)  Bbb    -0.0314    -4.209    -1.502    -1.404  0.8738  0.4731 -0.1123
              Bcc     0.0661     8.867     3.164     2.958  0.3378 -0.4245  0.8401
 
              Baa    -0.0060    -0.807    -0.288    -0.269 -0.0857  0.9551 -0.2836
    51 C(13)  Bbb     0.0021     0.278     0.099     0.093  0.6639  0.2670  0.6985
              Bcc     0.0039     0.529     0.189     0.176  0.7429 -0.1284 -0.6570
 
              Baa    -0.0015    -0.201    -0.072    -0.067  0.4569  0.2971  0.8384
    52 C(13)  Bbb    -0.0004    -0.049    -0.018    -0.016  0.3608  0.7996 -0.4800
              Bcc     0.0019     0.250     0.089     0.083  0.8130 -0.5219 -0.2582
 
              Baa    -0.0012    -0.166    -0.059    -0.055  0.1267  0.9427  0.3087
    53 C(13)  Bbb    -0.0006    -0.084    -0.030    -0.028  0.3608 -0.3337  0.8709
              Bcc     0.0019     0.250     0.089     0.083  0.9240  0.0010 -0.3824
 
              Baa    -0.0094    -1.258    -0.449    -0.420 -0.0861  0.2400  0.9669
    54 C(13)  Bbb    -0.0086    -1.150    -0.410    -0.384  0.7702  0.6316 -0.0882
              Bcc     0.0179     2.408     0.859     0.803 -0.6319  0.7372 -0.2393
 
              Baa    -0.0041    -0.551    -0.197    -0.184  0.8745 -0.3683 -0.3157
    55 C(13)  Bbb     0.0015     0.195     0.070     0.065  0.2619 -0.1893  0.9464
              Bcc     0.0026     0.356     0.127     0.119  0.4083  0.9102  0.0691
 
              Baa    -0.0141    -1.886    -0.673    -0.629  0.8082 -0.5534  0.2014
    56 C(13)  Bbb     0.0064     0.861     0.307     0.287 -0.2942 -0.0831  0.9521
              Bcc     0.0076     1.025     0.366     0.342  0.5102  0.8288  0.2300
 
              Baa    -0.0069    -0.921    -0.329    -0.307  0.7609  0.0169 -0.6486
    57 C(13)  Bbb     0.0027     0.364     0.130     0.122  0.0633  0.9930  0.1001
              Bcc     0.0041     0.557     0.199     0.186  0.6457 -0.1173  0.7545
 
              Baa    -0.0006    -0.084    -0.030    -0.028 -0.2763  0.8525  0.4437
    58 C(13)  Bbb    -0.0002    -0.024    -0.008    -0.008  0.6450 -0.1778  0.7432
              Bcc     0.0008     0.107     0.038     0.036  0.7125  0.4915 -0.5007
 
              Baa    -0.0005    -0.063    -0.022    -0.021  0.9050  0.1435 -0.4005
    59 C(13)  Bbb     0.0000     0.003     0.001     0.001  0.2058  0.6763  0.7073
              Bcc     0.0004     0.060     0.022     0.020 -0.3724  0.7225 -0.5825
 
              Baa    -0.0114    -1.529    -0.546    -0.510  0.0183  0.9922 -0.1237
    60 C(13)  Bbb    -0.0108    -1.448    -0.517    -0.483  0.3394  0.1102  0.9341
              Bcc     0.0222     2.977     1.062     0.993  0.9404 -0.0590 -0.3348
 
              Baa    -0.0010    -0.140    -0.050    -0.047  0.7927 -0.1482  0.5914
    61 C(13)  Bbb     0.0004     0.058     0.021     0.019 -0.2546  0.8009  0.5420
              Bcc     0.0006     0.082     0.029     0.027 -0.5539 -0.5801  0.5971
 
              Baa    -0.0012    -0.155    -0.055    -0.052 -0.3099  0.9072  0.2844
    62 C(13)  Bbb    -0.0003    -0.036    -0.013    -0.012 -0.5533 -0.4154  0.7220
              Bcc     0.0014     0.191     0.068     0.064  0.7732  0.0664  0.6307
 
              Baa    -0.0172    -2.305    -0.823    -0.769  0.6779 -0.3202  0.6617
    63 C(13)  Bbb     0.0072     0.960     0.343     0.320 -0.0726  0.8666  0.4937
              Bcc     0.0100     1.346     0.480     0.449  0.7315  0.3828 -0.5642
 
              Baa    -0.0200    -2.680    -0.956    -0.894 -0.1030  0.6504  0.7526
    64 C(13)  Bbb    -0.0185    -2.481    -0.885    -0.828  0.4030  0.7191 -0.5662
              Bcc     0.0385     5.161     1.842     1.722  0.9094 -0.2449  0.3361
 
              Baa    -0.0049    -0.653    -0.233    -0.218 -0.4134  0.7025  0.5793
    65 C(13)  Bbb    -0.0046    -0.618    -0.221    -0.206  0.1222 -0.5877  0.7998
              Bcc     0.0095     1.271     0.454     0.424  0.9023  0.4014  0.1571
 
              Baa    -0.0043    -0.581    -0.207    -0.194  0.9948 -0.0785  0.0646
    66 C(13)  Bbb     0.0017     0.235     0.084     0.078  0.0049  0.6719  0.7407
              Bcc     0.0026     0.346     0.123     0.115  0.1016  0.7365 -0.6688
 
              Baa    -0.0271    -1.416    -0.505    -0.472  0.7782  0.4123  0.4737
    67 Cl(35) Bbb    -0.0070    -0.367    -0.131    -0.122 -0.1737 -0.5835  0.7933
              Bcc     0.0341     1.782     0.636     0.595 -0.6035  0.6996  0.3825
 
              Baa    -0.1384    -7.244    -2.585    -2.416  0.7071  0.6902 -0.1538
    68 Cl(35) Bbb    -0.1126    -5.894    -2.103    -1.966  0.2706 -0.0631  0.9606
              Bcc     0.2510    13.138     4.688     4.382 -0.6533  0.7209  0.2314
 
              Baa    -0.1913   -10.012    -3.573    -3.340  0.6766 -0.5773 -0.4571
    69 Cl(35) Bbb    -0.1830    -9.579    -3.418    -3.195  0.4686 -0.1413  0.8721
              Bcc     0.3743    19.591     6.991     6.535  0.5680  0.8042 -0.1749
 

 ---------------------------------------------------------------------------------

 No NMR shielding tensors so no spin-rotation constants.
 Leave Link  601 at Sat Jul 16 18:51:40 2022, MaxMem=  1342177280 cpu:              94.7 elap:               2.2
 (Enter /home/mkliu/g16/l9999.exe)
 1\1\GINC-NODE04\FOpt\UB3LYP\6-311G(d,p)\C66Cl3(2)\MKLIU\16-Jul-2022\0\
 \#P opt b3lyp/6-311G(d, p) empiricaldispersion=GD3\\force\\0,2\C,-1.33
 03552115,1.8607634326,-3.910603107\C,0.2069169138,2.1882482184,-3.9644
 949235\C,0.8744075827,0.8341823736,-4.1253684735\C,-1.3728218538,0.349
 0500434,-4.003744021\C,-0.0999740411,-0.206342137,-4.2311266731\C,-2.2
 154058561,-0.1775218091,-3.0262264829\C,-1.97018189,2.0924182076,-2.55
 79641525\C,-2.6678068274,0.9311522702,-2.1775520168\C,-1.4612759771,2.
 9732215899,-1.5826380956\C,0.759186914,2.6533505629,-2.6396913291\C,-0
 .0048573384,3.2745159976,-1.6275910715\C,1.8894499145,0.6803039635,-3.
 1351500141\C,1.8883816852,1.8841487011,-2.310105452\C,2.2486480726,-0.
 5429309115,-2.5813281605\C,0.1853924259,-1.4568869939,-3.688079134\C,1
 .5862137332,-1.79407776,-3.1857879115\C,-1.9740997575,-1.4485714788,-2
 .4487591602\C,-0.7803081046,-2.1121276826,-2.9015495623\C,-2.483072018
 8,-1.7388740994,-1.1103800821\C,-3.0902266459,0.7041231618,-0.84888605
 86\C,-3.093974986,-0.6597281417,-0.3152591879\C,-2.0747899524,2.897544
 1336,-0.3138223857\C,-2.9446788024,1.806878533,0.029247669\C,-1.399659
 2,3.3094173522,0.902975096\C,0.6629674535,3.4778518374,-0.4024166838\C
 ,-0.0447678578,3.6008656314,0.8601062574\C,2.4513040904,1.8847492209,-
 1.015802331\C,1.92521072,2.8499233226,-0.1240690457\C,2.8874917737,-0.
 5853838407,-1.278707044\C,3.0453995388,0.6566336312,-0.5039759017\C,2.
 9224213263,-1.8138361062,-0.576613922\C,1.2951172061,-2.8292236455,-2.
 1280244422\C,-0.1133135004,-3.0681351968,-2.0539125182\C,2.0405201196,
 -2.9204072287,-0.9844714023\C,-1.9337231392,-2.8436787891,-0.420805491
 3\C,-0.7097278531,-3.4880776537,-0.883029091\C,-1.9249087535,-2.917687
 0832,1.0108272366\C,-3.1415216528,-0.8016380772,1.0873718638\C,-2.5299
 433737,-1.9188336066,1.7560407516\C,-2.8941500622,1.618638463,1.456126
 6878\C,-1.9341511966,2.5509049432,2.0114100366\C,-3.0136393911,0.34615
 60259,1.9753976859\C,-1.1130925948,2.1508115432,3.0622784822\C,0.82067
 01229,3.1449885421,1.9234966334\C,2.0439657108,2.6810241271,1.30001726
 31\C,0.3035667969,2.4567958422,3.0183359691\C,3.2429719651,0.570869814
 4,0.8909575305\C,2.7098278561,1.5789681029,1.7972589972\C,3.0087950863
 ,-1.85559284,0.8481406954\C,3.1911605455,-0.6863666514,1.5772452773\C,
 1.4728226733,-3.4965915582,0.2110379225\C,0.1045396193,-3.79795273,0.2
 594622481\C,-0.6566129519,-3.484187157,1.4454959281\C,2.1063771763,-2.
 8836232869,1.3518076274\C,-0.0262662231,-2.9692168407,2.5733299934\C,1
 .3934153383,-2.6624507153,2.5256161261\C,-1.9220986784,-1.4539383423,2
 .9875387556\C,-2.22368796,-0.0473603555,3.1250473469\C,-1.2678744462,0
 .8293504473,3.6399595326\C,-0.6760571916,-1.9472908949,3.3705299348\C,
 1.0233735675,1.3247070741,3.5687654647\C,2.2223132935,0.9112394374,2.9
 869316022\C,2.5191202294,-0.4974779458,2.8483051909\C,1.6131391514,-1.
 4538165849,3.2994437866\C,0.0506328383,0.3293912684,3.9831513008\C,0.3
 400278135,-1.0276543372,3.8495344949\Cl,-2.3548034726,2.6614527356,-5.
 1876146928\Cl,0.7192107821,3.3702865041,-5.2598642389\Cl,2.6710129734,
 -2.4924754947,-4.5317399514\\Version=ES64L-G16RevA.03\State=2-A\HF=-38
 96.0484982\S2=0.797538\S2-1=0.\S2A=0.751883\RMSD=7.811e-09\RMSF=4.819e
 -05\Dipole=-0.3018188,-0.2144037,1.3398315\Quadrupole=3.4395939,1.8019
 174,-5.2415112,3.3186681,2.665801,1.8150023\PG=C01 [X(C66Cl3)]\\@


 ABALONE: AN EXPRESSION OF DISBELIEF.
 Job cpu time:       3 days 18 hours 11 minutes 11.6 seconds.
 Elapsed time:       0 days  1 hours 52 minutes 54.7 seconds.
 File lengths (MBytes):  RWF=   1742 Int=      0 D2E=      0 Chk=    158 Scr=      1
 Normal termination of Gaussian 16 at Sat Jul 16 18:51:42 2022.
