 Entering Gaussian System, Link 0=g16
 Input=dmj66ponobtvk_addon_5.gjf
 Output=dmj66ponobtvk_addon_5.log
 Initial command:
 /home/mkliu/g16/l1.exe "/data/scratch/Gau-34423.inp" -scrdir="/data/scratch/"
 Entering Link 1 = /home/mkliu/g16/l1.exe PID=     34424.
  
 Copyright (c) 1988,1990,1992,1993,1995,1998,2003,2009,2016,
            Gaussian, Inc.  All Rights Reserved.
  
 This is part of the Gaussian(R) 16 program.  It is based on
 the Gaussian(R) 09 system (copyright 2009, Gaussian, Inc.),
 the Gaussian(R) 03 system (copyright 2003, Gaussian, Inc.),
 the Gaussian(R) 98 system (copyright 1998, Gaussian, Inc.),
 the Gaussian(R) 94 system (copyright 1995, Gaussian, Inc.),
 the Gaussian 92(TM) system (copyright 1992, Gaussian, Inc.),
 the Gaussian 90(TM) system (copyright 1990, Gaussian, Inc.),
 the Gaussian 88(TM) system (copyright 1988, Gaussian, Inc.),
 the Gaussian 86(TM) system (copyright 1986, Carnegie Mellon
 University), and the Gaussian 82(TM) system (copyright 1983,
 Carnegie Mellon University). Gaussian is a federally registered
 trademark of Gaussian, Inc.
  
 This software contains proprietary and confidential information,
 including trade secrets, belonging to Gaussian, Inc.
  
 This software is provided under written license and may be
 used, copied, transmitted, or stored only in accord with that
 written license.
  
 The following legend is applicable only to US Government
 contracts under FAR:
  
                    RESTRICTED RIGHTS LEGEND
  
 Use, reproduction and disclosure by the US Government is
 subject to restrictions as set forth in subparagraphs (a)
 and (c) of the Commercial Computer Software - Restricted
 Rights clause in FAR 52.227-19.
  
 Gaussian, Inc.
 340 Quinnipiac St., Bldg. 40, Wallingford CT 06492
  
  
 ---------------------------------------------------------------
 Warning -- This program may not be used in any manner that
 competes with the business of Gaussian, Inc. or will provide
 assistance to any competitor of Gaussian, Inc.  The licensee
 of this program is prohibited from giving any competitor of
 Gaussian, Inc. access to this program.  By using this program,
 the user acknowledges that Gaussian, Inc. is engaged in the
 business of creating and licensing software in the field of
 computational chemistry and represents and warrants to the
 licensee that it is not a competitor of Gaussian, Inc. and that
 it will not use this program in any manner prohibited above.
 ---------------------------------------------------------------
  

 Cite this work as:
 Gaussian 16, Revision A.03,
 M. J. Frisch, G. W. Trucks, H. B. Schlegel, G. E. Scuseria, 
 M. A. Robb, J. R. Cheeseman, G. Scalmani, V. Barone, 
 G. A. Petersson, H. Nakatsuji, X. Li, M. Caricato, A. V. Marenich, 
 J. Bloino, B. G. Janesko, R. Gomperts, B. Mennucci, H. P. Hratchian, 
 J. V. Ortiz, A. F. Izmaylov, J. L. Sonnenberg, D. Williams-Young, 
 F. Ding, F. Lipparini, F. Egidi, J. Goings, B. Peng, A. Petrone, 
 T. Henderson, D. Ranasinghe, V. G. Zakrzewski, J. Gao, N. Rega, 
 G. Zheng, W. Liang, M. Hada, M. Ehara, K. Toyota, R. Fukuda, 
 J. Hasegawa, M. Ishida, T. Nakajima, Y. Honda, O. Kitao, H. Nakai, 
 T. Vreven, K. Throssell, J. A. Montgomery, Jr., J. E. Peralta, 
 F. Ogliaro, M. J. Bearpark, J. J. Heyd, E. N. Brothers, K. N. Kudin, 
 V. N. Staroverov, T. A. Keith, R. Kobayashi, J. Normand, 
 K. Raghavachari, A. P. Rendell, J. C. Burant, S. S. Iyengar, 
 J. Tomasi, M. Cossi, J. M. Millam, M. Klene, C. Adamo, R. Cammi, 
 J. W. Ochterski, R. L. Martin, K. Morokuma, O. Farkas, 
 J. B. Foresman, and D. J. Fox, Gaussian, Inc., Wallingford CT, 2016.
 
 ******************************************
 Gaussian 16:  ES64L-G16RevA.03 25-Dec-2016
                15-Jul-2022 
 ******************************************
 %mem=10GB
 %chk=dmj66ponobtvk_addon_5.chk
 %nprocshared=48
 Will use up to   48 processors via shared memory.
 -------------------------------------------------
 #P opt b3lyp/6-311G(d, p) empiricaldispersion=GD3
 -------------------------------------------------
 1/18=20,19=15,26=3,38=1/1,3;
 2/9=110,12=2,17=6,18=5,40=1/2;
 3/5=4,6=6,7=101,11=2,25=1,30=1,71=1,74=-5,124=31/1,2,3;
 4//1;
 5/5=2,38=5/2;
 6/7=2,8=2,9=2,10=2,28=1/1;
 7//1,2,3,16;
 1/18=20,19=15,26=3/3(2);
 2/9=110/2;
 99//99;
 2/9=110/2;
 3/5=4,6=6,7=101,11=2,25=1,30=1,71=1,74=-5,124=31/1,2,3;
 4/5=5,16=3,69=1/1;
 5/5=2,38=5/2;
 7//1,2,3,16;
 1/18=20,19=15,26=3/3(-5);
 2/9=110/2;
 6/7=2,8=2,9=2,10=2,19=2,28=1/1;
 99/9=1/99;
 Leave Link    1 at Fri Jul 15 04:48:19 2022, MaxMem=  1342177280 cpu:               2.1 elap:               0.1
 (Enter /home/mkliu/g16/l101.exe)
 -----
 force
 -----
 Symbolic Z-matrix:
 Charge =  0 Multiplicity = 2
 C                    -1.32285   1.88265  -3.88216 
 C                     0.18906   2.20902  -3.99497 
 C                     0.97644   0.89589  -4.30901 
 C                    -1.26592   0.39769  -3.85782 
 C                    -0.0477   -0.16759  -4.13746 
 C                    -2.14216  -0.13551  -2.92256 
 C                    -2.01628   2.12238  -2.56704 
 C                    -2.66104   0.94911  -2.14047 
 C                    -1.49085   2.96571  -1.59042 
 C                     0.67125   2.57021  -2.64315 
 C                    -0.05604   3.2146   -1.65681 
 C                     1.86705   0.67458  -3.10963 
 C                     1.80338   1.80327  -2.28219 
 C                     2.22237  -0.56014  -2.57068 
 C                     0.23111  -1.4      -3.60042 
 C                     1.62593  -1.8179   -3.18509 
 C                    -1.91825  -1.40212  -2.36714 
 C                    -0.73711  -2.04736  -2.81322 
 C                    -2.47803  -1.70861  -1.06903 
 C                    -3.10007   0.70993  -0.82148 
 C                    -3.09356  -0.64333  -0.29562 
 C                    -2.07949   2.86976  -0.31974 
 C                    -2.94985   1.80406   0.04087 
 C                    -1.40688   3.28197   0.87873 
 C                     0.62012   3.39918  -0.42624 
 C                    -0.05886   3.55502   0.8211 
 C                     2.36119   1.77947  -1.00692 
 C                     1.85743   2.7585   -0.14564 
 C                     2.8574   -0.59107  -1.30527 
 C                     2.98393   0.58341  -0.52095 
 C                     3.13891  -1.92901  -0.6385 
 C                     1.30973  -2.8079   -2.10475 
 C                    -0.09834  -3.02458  -2.00929 
 C                     2.04655  -2.91027  -0.97399 
 C                    -1.93278  -2.80751  -0.39509 
 C                    -0.71613  -3.43122  -0.85299 
 C                    -1.93741  -2.88601   1.03471 
 C                    -3.14505  -0.78092   1.09862 
 C                    -2.54745  -1.89699   1.7707 
 C                    -2.89331   1.6244    1.45945 
 C                    -1.94065   2.5498    2.00009 
 C                    -3.01851   0.35418   1.98066 
 C                    -1.11322   2.14234   3.02943 
 C                     0.81094   3.11038   1.88894 
 C                     2.00351   2.62413   1.26515 
 C                     0.29667   2.43325   2.9731 
 C                     3.22562   0.53167   0.89142 
 C                     2.69417   1.52326   1.75601 
 C                     3.02326  -1.8902    0.86022 
 C                     3.18773  -0.73615   1.57778 
 C                     1.44993  -3.44317   0.21008 
 C                     0.0991   -3.73858   0.27446 
 C                    -0.67193  -3.4368    1.44328 
 C                     2.08972  -2.84951   1.34259 
 C                    -0.04127  -2.92637   2.56216 
 C                     1.36153  -2.63208   2.51207 
 C                    -1.93954  -1.4341    2.99006 
 C                    -2.23043  -0.03369   3.11506 
 C                    -1.26863   0.83663   3.60925 
 C                    -0.69869  -1.91918   3.35758 
 C                     1.01371   1.30541   3.51509 
 C                     2.20354   0.87732   2.95043 
 C                     2.49504  -0.52191   2.82316 
 C                     1.57716  -1.44673   3.27836 
 C                     0.03779   0.33548   3.94722 
 C                     0.31474  -1.01534   3.82382 
 Cl                   -2.28035   2.64242  -5.18963 
 Cl                    0.54229   3.57561  -5.10126 
 Cl                    1.84992   0.80364  -5.84534 
 Cl                    2.68767  -2.45988  -4.47504 
 Cl                    4.77247  -2.46626  -1.23388 
 
 ITRead=  0  0  0  0  0  0  0  0  0  0  0  0  0  0  0  0  0  0  0  0
 ITRead=  0  0  0  0  0  0  0  0  0  0  0  0  0  0  0  0  0  0  0  0
 ITRead=  0  0  0  0  0  0  0  0  0  0  0  0  0  0  0  0  0  0  0  0
 ITRead=  0  0  0  0  0  0  0  0  0  0  0
 MicOpt= -1 -1 -1 -1 -1 -1 -1 -1 -1 -1 -1 -1 -1 -1 -1 -1 -1 -1 -1 -1
 MicOpt= -1 -1 -1 -1 -1 -1 -1 -1 -1 -1 -1 -1 -1 -1 -1 -1 -1 -1 -1 -1
 MicOpt= -1 -1 -1 -1 -1 -1 -1 -1 -1 -1 -1 -1 -1 -1 -1 -1 -1 -1 -1 -1
 MicOpt= -1 -1 -1 -1 -1 -1 -1 -1 -1 -1 -1
 NAtoms=     71 NQM=       71 NQMF=       0 NMMI=      0 NMMIF=      0
                NMic=       0 NMicF=      0.
                    Isotopes and Nuclear Properties:
 (Nuclear quadrupole moments (NQMom) in fm**2, nuclear magnetic moments (NMagM)
  in nuclear magnetons)

  Atom         1           2           3           4           5           6           7           8           9          10
 IAtWgt=          12          12          12          12          12          12          12          12          12          12
 AtmWgt=  12.0000000  12.0000000  12.0000000  12.0000000  12.0000000  12.0000000  12.0000000  12.0000000  12.0000000  12.0000000
 NucSpn=           0           0           0           0           0           0           0           0           0           0
 AtZEff=  -0.0000000  -0.0000000  -0.0000000  -0.0000000  -0.0000000  -0.0000000  -0.0000000  -0.0000000  -0.0000000  -0.0000000
 NQMom=    0.0000000   0.0000000   0.0000000   0.0000000   0.0000000   0.0000000   0.0000000   0.0000000   0.0000000   0.0000000
 NMagM=    0.0000000   0.0000000   0.0000000   0.0000000   0.0000000   0.0000000   0.0000000   0.0000000   0.0000000   0.0000000
 AtZNuc=   6.0000000   6.0000000   6.0000000   6.0000000   6.0000000   6.0000000   6.0000000   6.0000000   6.0000000   6.0000000

  Atom        11          12          13          14          15          16          17          18          19          20
 IAtWgt=          12          12          12          12          12          12          12          12          12          12
 AtmWgt=  12.0000000  12.0000000  12.0000000  12.0000000  12.0000000  12.0000000  12.0000000  12.0000000  12.0000000  12.0000000
 NucSpn=           0           0           0           0           0           0           0           0           0           0
 AtZEff=  -0.0000000  -0.0000000  -0.0000000  -0.0000000  -0.0000000  -0.0000000  -0.0000000  -0.0000000  -0.0000000  -0.0000000
 NQMom=    0.0000000   0.0000000   0.0000000   0.0000000   0.0000000   0.0000000   0.0000000   0.0000000   0.0000000   0.0000000
 NMagM=    0.0000000   0.0000000   0.0000000   0.0000000   0.0000000   0.0000000   0.0000000   0.0000000   0.0000000   0.0000000
 AtZNuc=   6.0000000   6.0000000   6.0000000   6.0000000   6.0000000   6.0000000   6.0000000   6.0000000   6.0000000   6.0000000

  Atom        21          22          23          24          25          26          27          28          29          30
 IAtWgt=          12          12          12          12          12          12          12          12          12          12
 AtmWgt=  12.0000000  12.0000000  12.0000000  12.0000000  12.0000000  12.0000000  12.0000000  12.0000000  12.0000000  12.0000000
 NucSpn=           0           0           0           0           0           0           0           0           0           0
 AtZEff=  -0.0000000  -0.0000000  -0.0000000  -0.0000000  -0.0000000  -0.0000000  -0.0000000  -0.0000000  -0.0000000  -0.0000000
 NQMom=    0.0000000   0.0000000   0.0000000   0.0000000   0.0000000   0.0000000   0.0000000   0.0000000   0.0000000   0.0000000
 NMagM=    0.0000000   0.0000000   0.0000000   0.0000000   0.0000000   0.0000000   0.0000000   0.0000000   0.0000000   0.0000000
 AtZNuc=   6.0000000   6.0000000   6.0000000   6.0000000   6.0000000   6.0000000   6.0000000   6.0000000   6.0000000   6.0000000

  Atom        31          32          33          34          35          36          37          38          39          40
 IAtWgt=          12          12          12          12          12          12          12          12          12          12
 AtmWgt=  12.0000000  12.0000000  12.0000000  12.0000000  12.0000000  12.0000000  12.0000000  12.0000000  12.0000000  12.0000000
 NucSpn=           0           0           0           0           0           0           0           0           0           0
 AtZEff=  -0.0000000  -0.0000000  -0.0000000  -0.0000000  -0.0000000  -0.0000000  -0.0000000  -0.0000000  -0.0000000  -0.0000000
 NQMom=    0.0000000   0.0000000   0.0000000   0.0000000   0.0000000   0.0000000   0.0000000   0.0000000   0.0000000   0.0000000
 NMagM=    0.0000000   0.0000000   0.0000000   0.0000000   0.0000000   0.0000000   0.0000000   0.0000000   0.0000000   0.0000000
 AtZNuc=   6.0000000   6.0000000   6.0000000   6.0000000   6.0000000   6.0000000   6.0000000   6.0000000   6.0000000   6.0000000

  Atom        41          42          43          44          45          46          47          48          49          50
 IAtWgt=          12          12          12          12          12          12          12          12          12          12
 AtmWgt=  12.0000000  12.0000000  12.0000000  12.0000000  12.0000000  12.0000000  12.0000000  12.0000000  12.0000000  12.0000000
 NucSpn=           0           0           0           0           0           0           0           0           0           0
 AtZEff=  -0.0000000  -0.0000000  -0.0000000  -0.0000000  -0.0000000  -0.0000000  -0.0000000  -0.0000000  -0.0000000  -0.0000000
 NQMom=    0.0000000   0.0000000   0.0000000   0.0000000   0.0000000   0.0000000   0.0000000   0.0000000   0.0000000   0.0000000
 NMagM=    0.0000000   0.0000000   0.0000000   0.0000000   0.0000000   0.0000000   0.0000000   0.0000000   0.0000000   0.0000000
 AtZNuc=   6.0000000   6.0000000   6.0000000   6.0000000   6.0000000   6.0000000   6.0000000   6.0000000   6.0000000   6.0000000

  Atom        51          52          53          54          55          56          57          58          59          60
 IAtWgt=          12          12          12          12          12          12          12          12          12          12
 AtmWgt=  12.0000000  12.0000000  12.0000000  12.0000000  12.0000000  12.0000000  12.0000000  12.0000000  12.0000000  12.0000000
 NucSpn=           0           0           0           0           0           0           0           0           0           0
 AtZEff=  -0.0000000  -0.0000000  -0.0000000  -0.0000000  -0.0000000  -0.0000000  -0.0000000  -0.0000000  -0.0000000  -0.0000000
 NQMom=    0.0000000   0.0000000   0.0000000   0.0000000   0.0000000   0.0000000   0.0000000   0.0000000   0.0000000   0.0000000
 NMagM=    0.0000000   0.0000000   0.0000000   0.0000000   0.0000000   0.0000000   0.0000000   0.0000000   0.0000000   0.0000000
 AtZNuc=   6.0000000   6.0000000   6.0000000   6.0000000   6.0000000   6.0000000   6.0000000   6.0000000   6.0000000   6.0000000

  Atom        61          62          63          64          65          66          67          68          69          70
 IAtWgt=          12          12          12          12          12          12          35          35          35          35
 AtmWgt=  12.0000000  12.0000000  12.0000000  12.0000000  12.0000000  12.0000000  34.9688527  34.9688527  34.9688527  34.9688527
 NucSpn=           0           0           0           0           0           0           3           3           3           3
 AtZEff=  -0.0000000  -0.0000000  -0.0000000  -0.0000000  -0.0000000  -0.0000000  -0.0000000  -0.0000000  -0.0000000  -0.0000000
 NQMom=    0.0000000   0.0000000   0.0000000   0.0000000   0.0000000   0.0000000  -8.1650000  -8.1650000  -8.1650000  -8.1650000
 NMagM=    0.0000000   0.0000000   0.0000000   0.0000000   0.0000000   0.0000000   0.8218740   0.8218740   0.8218740   0.8218740
 AtZNuc=   6.0000000   6.0000000   6.0000000   6.0000000   6.0000000   6.0000000  17.0000000  17.0000000  17.0000000  17.0000000

  Atom        71
 IAtWgt=          35
 AtmWgt=  34.9688527
 NucSpn=           3
 AtZEff=  -0.0000000
 NQMom=   -8.1650000
 NMagM=    0.8218740
 AtZNuc=  17.0000000
 Leave Link  101 at Fri Jul 15 04:48:19 2022, MaxMem=  1342177280 cpu:              12.8 elap:               0.3
 (Enter /home/mkliu/g16/l103.exe)

 GradGradGradGradGradGradGradGradGradGradGradGradGradGradGradGradGradGrad
 Berny optimization.
 Initialization pass.
                           ----------------------------
                           !    Initial Parameters    !
                           ! (Angstroms and Degrees)  !
 --------------------------                            --------------------------
 ! Name  Definition              Value          Derivative Info.                !
 --------------------------------------------------------------------------------
 ! R1    R(1,2)                  1.5508         estimate D2E/DX2                !
 ! R2    R(1,4)                  1.4862         estimate D2E/DX2                !
 ! R3    R(1,7)                  1.5059         estimate D2E/DX2                !
 ! R4    R(1,67)                 1.7898         estimate D2E/DX2                !
 ! R5    R(2,3)                  1.563          estimate D2E/DX2                !
 ! R6    R(2,10)                 1.48           estimate D2E/DX2                !
 ! R7    R(2,68)                 1.7934         estimate D2E/DX2                !
 ! R8    R(3,5)                  1.4864         estimate D2E/DX2                !
 ! R9    R(3,12)                 1.5102         estimate D2E/DX2                !
 ! R10   R(3,69)                 1.7697         estimate D2E/DX2                !
 ! R11   R(4,5)                  1.3718         estimate D2E/DX2                !
 ! R12   R(4,6)                  1.3881         estimate D2E/DX2                !
 ! R13   R(5,15)                 1.3729         estimate D2E/DX2                !
 ! R14   R(6,8)                  1.4343         estimate D2E/DX2                !
 ! R15   R(6,17)                 1.401          estimate D2E/DX2                !
 ! R16   R(7,8)                  1.4051         estimate D2E/DX2                !
 ! R17   R(7,9)                  1.3932         estimate D2E/DX2                !
 ! R18   R(8,20)                 1.4106         estimate D2E/DX2                !
 ! R19   R(9,11)                 1.4577         estimate D2E/DX2                !
 ! R20   R(9,22)                 1.4037         estimate D2E/DX2                !
 ! R21   R(10,11)                1.3846         estimate D2E/DX2                !
 ! R22   R(10,13)                1.4143         estimate D2E/DX2                !
 ! R23   R(11,25)                1.4162         estimate D2E/DX2                !
 ! R24   R(12,13)                1.4009         estimate D2E/DX2                !
 ! R25   R(12,14)                1.3933         estimate D2E/DX2                !
 ! R26   R(13,27)                1.3921         estimate D2E/DX2                !
 ! R27   R(14,16)                1.5216         estimate D2E/DX2                !
 ! R28   R(14,29)                1.4162         estimate D2E/DX2                !
 ! R29   R(15,16)                1.5142         estimate D2E/DX2                !
 ! R30   R(15,18)                1.4058         estimate D2E/DX2                !
 ! R31   R(16,32)                1.4991         estimate D2E/DX2                !
 ! R32   R(16,70)                1.7898         estimate D2E/DX2                !
 ! R33   R(17,18)                1.4179         estimate D2E/DX2                !
 ! R34   R(17,19)                1.4465         estimate D2E/DX2                !
 ! R35   R(18,33)                1.4175         estimate D2E/DX2                !
 ! R36   R(19,21)                1.4532         estimate D2E/DX2                !
 ! R37   R(19,35)                1.3997         estimate D2E/DX2                !
 ! R38   R(20,21)                1.4518         estimate D2E/DX2                !
 ! R39   R(20,23)                1.4012         estimate D2E/DX2                !
 ! R40   R(21,38)                1.402          estimate D2E/DX2                !
 ! R41   R(22,23)                1.4224         estimate D2E/DX2                !
 ! R42   R(22,24)                1.4348         estimate D2E/DX2                !
 ! R43   R(23,40)                1.431          estimate D2E/DX2                !
 ! R44   R(24,26)                1.3766         estimate D2E/DX2                !
 ! R45   R(24,41)                1.4417         estimate D2E/DX2                !
 ! R46   R(25,26)                1.4287         estimate D2E/DX2                !
 ! R47   R(25,28)                1.4213         estimate D2E/DX2                !
 ! R48   R(26,44)                1.4472         estimate D2E/DX2                !
 ! R49   R(27,28)                1.3979         estimate D2E/DX2                !
 ! R50   R(27,30)                1.4334         estimate D2E/DX2                !
 ! R51   R(28,45)                1.4247         estimate D2E/DX2                !
 ! R52   R(29,30)                1.4179         estimate D2E/DX2                !
 ! R53   R(29,31)                1.5211         estimate D2E/DX2                !
 ! R54   R(30,47)                1.4338         estimate D2E/DX2                !
 ! R55   R(31,34)                1.5062         estimate D2E/DX2                !
 ! R56   R(31,49)                1.5037         estimate D2E/DX2                !
 ! R57   R(31,71)                1.8198         estimate D2E/DX2                !
 ! R58   R(32,33)                1.4278         estimate D2E/DX2                !
 ! R59   R(32,34)                1.3535         estimate D2E/DX2                !
 ! R60   R(33,36)                1.3726         estimate D2E/DX2                !
 ! R61   R(34,51)                1.429          estimate D2E/DX2                !
 ! R62   R(35,36)                1.4419         estimate D2E/DX2                !
 ! R63   R(35,37)                1.432          estimate D2E/DX2                !
 ! R64   R(36,52)                1.4249         estimate D2E/DX2                !
 ! R65   R(37,39)                1.3755         estimate D2E/DX2                !
 ! R66   R(37,53)                1.4394         estimate D2E/DX2                !
 ! R67   R(38,39)                1.4333         estimate D2E/DX2                !
 ! R68   R(38,42)                1.4431         estimate D2E/DX2                !
 ! R69   R(39,57)                1.439          estimate D2E/DX2                !
 ! R70   R(40,41)                1.434          estimate D2E/DX2                !
 ! R71   R(40,42)                1.3787         estimate D2E/DX2                !
 ! R72   R(41,43)                1.3821         estimate D2E/DX2                !
 ! R73   R(42,58)                1.4347         estimate D2E/DX2                !
 ! R74   R(43,46)                1.4407         estimate D2E/DX2                !
 ! R75   R(43,59)                1.4371         estimate D2E/DX2                !
 ! R76   R(44,45)                1.431          estimate D2E/DX2                !
 ! R77   R(44,46)                1.3778         estimate D2E/DX2                !
 ! R78   R(45,48)                1.3892         estimate D2E/DX2                !
 ! R79   R(46,61)                1.4422         estimate D2E/DX2                !
 ! R80   R(47,48)                1.4189         estimate D2E/DX2                !
 ! R81   R(47,50)                1.4422         estimate D2E/DX2                !
 ! R82   R(48,62)                1.4438         estimate D2E/DX2                !
 ! R83   R(49,50)                1.3689         estimate D2E/DX2                !
 ! R84   R(49,54)                1.4228         estimate D2E/DX2                !
 ! R85   R(50,63)                1.4411         estimate D2E/DX2                !
 ! R86   R(51,52)                1.3843         estimate D2E/DX2                !
 ! R87   R(51,54)                1.4298         estimate D2E/DX2                !
 ! R88   R(52,53)                1.4324         estimate D2E/DX2                !
 ! R89   R(53,55)                1.3821         estimate D2E/DX2                !
 ! R90   R(54,56)                1.3947         estimate D2E/DX2                !
 ! R91   R(55,56)                1.4342         estimate D2E/DX2                !
 ! R92   R(55,60)                1.442          estimate D2E/DX2                !
 ! R93   R(56,64)                1.4278         estimate D2E/DX2                !
 ! R94   R(57,58)                1.4358         estimate D2E/DX2                !
 ! R95   R(57,60)                1.3821         estimate D2E/DX2                !
 ! R96   R(58,59)                1.3881         estimate D2E/DX2                !
 ! R97   R(59,65)                1.4395         estimate D2E/DX2                !
 ! R98   R(60,66)                1.4357         estimate D2E/DX2                !
 ! R99   R(61,62)                1.3848         estimate D2E/DX2                !
 ! R100  R(61,65)                1.4422         estimate D2E/DX2                !
 ! R101  R(62,63)                1.4349         estimate D2E/DX2                !
 ! R102  R(63,64)                1.3802         estimate D2E/DX2                !
 ! R103  R(64,66)                1.4413         estimate D2E/DX2                !
 ! R104  R(65,66)                1.3844         estimate D2E/DX2                !
 ! A1    A(2,1,4)              100.0273         estimate D2E/DX2                !
 ! A2    A(2,1,7)              118.615          estimate D2E/DX2                !
 ! A3    A(2,1,67)             112.2758         estimate D2E/DX2                !
 ! A4    A(4,1,7)               99.3454         estimate D2E/DX2                !
 ! A5    A(4,1,67)             117.1666         estimate D2E/DX2                !
 ! A6    A(7,1,67)             108.9065         estimate D2E/DX2                !
 ! A7    A(1,2,3)              109.2037         estimate D2E/DX2                !
 ! A8    A(1,2,10)             107.6107         estimate D2E/DX2                !
 ! A9    A(1,2,68)             113.4065         estimate D2E/DX2                !
 ! A10   A(3,2,10)             102.9695         estimate D2E/DX2                !
 ! A11   A(3,2,68)             114.6476         estimate D2E/DX2                !
 ! A12   A(10,2,68)            108.2589         estimate D2E/DX2                !
 ! A13   A(2,3,5)              103.3456         estimate D2E/DX2                !
 ! A14   A(2,3,12)             105.1077         estimate D2E/DX2                !
 ! A15   A(2,3,69)             117.8319         estimate D2E/DX2                !
 ! A16   A(5,3,12)             102.112          estimate D2E/DX2                !
 ! A17   A(5,3,69)             113.7648         estimate D2E/DX2                !
 ! A18   A(12,3,69)            113.0008         estimate D2E/DX2                !
 ! A19   A(1,4,5)              116.2567         estimate D2E/DX2                !
 ! A20   A(1,4,6)              111.7555         estimate D2E/DX2                !
 ! A21   A(5,4,6)              122.6599         estimate D2E/DX2                !
 ! A22   A(3,5,4)              109.9119         estimate D2E/DX2                !
 ! A23   A(3,5,15)             123.1941         estimate D2E/DX2                !
 ! A24   A(4,5,15)             118.0665         estimate D2E/DX2                !
 ! A25   A(4,6,8)              107.7747         estimate D2E/DX2                !
 ! A26   A(4,6,17)             120.8961         estimate D2E/DX2                !
 ! A27   A(8,6,17)             121.6874         estimate D2E/DX2                !
 ! A28   A(1,7,8)              110.0897         estimate D2E/DX2                !
 ! A29   A(1,7,9)              122.3343         estimate D2E/DX2                !
 ! A30   A(8,7,9)              117.7552         estimate D2E/DX2                !
 ! A31   A(6,8,7)              107.4513         estimate D2E/DX2                !
 ! A32   A(6,8,20)             119.6193         estimate D2E/DX2                !
 ! A33   A(7,8,20)             124.6318         estimate D2E/DX2                !
 ! A34   A(7,9,11)             116.2714         estimate D2E/DX2                !
 ! A35   A(7,9,22)             115.7872         estimate D2E/DX2                !
 ! A36   A(11,9,22)            117.7526         estimate D2E/DX2                !
 ! A37   A(2,10,11)            126.3788         estimate D2E/DX2                !
 ! A38   A(2,10,13)            111.1975         estimate D2E/DX2                !
 ! A39   A(11,10,13)           119.4098         estimate D2E/DX2                !
 ! A40   A(9,11,10)            118.034          estimate D2E/DX2                !
 ! A41   A(9,11,25)            116.9118         estimate D2E/DX2                !
 ! A42   A(10,11,25)           115.3957         estimate D2E/DX2                !
 ! A43   A(3,12,13)            108.9171         estimate D2E/DX2                !
 ! A44   A(3,12,14)            125.9777         estimate D2E/DX2                !
 ! A45   A(13,12,14)           119.8079         estimate D2E/DX2                !
 ! A46   A(10,13,12)           108.8164         estimate D2E/DX2                !
 ! A47   A(10,13,27)           124.3202         estimate D2E/DX2                !
 ! A48   A(12,13,27)           120.6016         estimate D2E/DX2                !
 ! A49   A(12,14,16)           118.4492         estimate D2E/DX2                !
 ! A50   A(12,14,29)           118.6435         estimate D2E/DX2                !
 ! A51   A(16,14,29)           121.2339         estimate D2E/DX2                !
 ! A52   A(5,15,16)            122.8278         estimate D2E/DX2                !
 ! A53   A(5,15,18)            119.5075         estimate D2E/DX2                !
 ! A54   A(16,15,18)           110.7172         estimate D2E/DX2                !
 ! A55   A(14,16,15)           104.1054         estimate D2E/DX2                !
 ! A56   A(14,16,32)           109.7295         estimate D2E/DX2                !
 ! A57   A(14,16,70)           110.7928         estimate D2E/DX2                !
 ! A58   A(15,16,32)           100.6988         estimate D2E/DX2                !
 ! A59   A(15,16,70)           116.6001         estimate D2E/DX2                !
 ! A60   A(32,16,70)           114.0577         estimate D2E/DX2                !
 ! A61   A(6,17,18)            114.8231         estimate D2E/DX2                !
 ! A62   A(6,17,19)            119.0431         estimate D2E/DX2                !
 ! A63   A(18,17,19)           120.5491         estimate D2E/DX2                !
 ! A64   A(15,18,17)           122.7075         estimate D2E/DX2                !
 ! A65   A(15,18,33)           108.9471         estimate D2E/DX2                !
 ! A66   A(17,18,33)           120.7095         estimate D2E/DX2                !
 ! A67   A(17,19,21)           119.0906         estimate D2E/DX2                !
 ! A68   A(17,19,35)           116.5965         estimate D2E/DX2                !
 ! A69   A(21,19,35)           118.9646         estimate D2E/DX2                !
 ! A70   A(8,20,21)            119.6922         estimate D2E/DX2                !
 ! A71   A(8,20,23)            114.1863         estimate D2E/DX2                !
 ! A72   A(21,20,23)           120.2942         estimate D2E/DX2                !
 ! A73   A(19,21,20)           119.4987         estimate D2E/DX2                !
 ! A74   A(19,21,38)           118.2217         estimate D2E/DX2                !
 ! A75   A(20,21,38)           116.8409         estimate D2E/DX2                !
 ! A76   A(9,22,23)            122.5            estimate D2E/DX2                !
 ! A77   A(9,22,24)            122.6779         estimate D2E/DX2                !
 ! A78   A(23,22,24)           106.8776         estimate D2E/DX2                !
 ! A79   A(20,23,22)           119.6442         estimate D2E/DX2                !
 ! A80   A(20,23,40)           121.0836         estimate D2E/DX2                !
 ! A81   A(22,23,40)           108.7354         estimate D2E/DX2                !
 ! A82   A(22,24,26)           118.7551         estimate D2E/DX2                !
 ! A83   A(22,24,41)           109.2826         estimate D2E/DX2                !
 ! A84   A(26,24,41)           119.7262         estimate D2E/DX2                !
 ! A85   A(11,25,26)           123.0892         estimate D2E/DX2                !
 ! A86   A(11,25,28)           121.9001         estimate D2E/DX2                !
 ! A87   A(26,25,28)           106.8897         estimate D2E/DX2                !
 ! A88   A(24,26,25)           118.7047         estimate D2E/DX2                !
 ! A89   A(24,26,44)           119.7811         estimate D2E/DX2                !
 ! A90   A(25,26,44)           108.9681         estimate D2E/DX2                !
 ! A91   A(13,27,28)           114.082          estimate D2E/DX2                !
 ! A92   A(13,27,30)           119.9292         estimate D2E/DX2                !
 ! A93   A(28,27,30)           122.1463         estimate D2E/DX2                !
 ! A94   A(25,28,27)           120.5161         estimate D2E/DX2                !
 ! A95   A(25,28,45)           109.1034         estimate D2E/DX2                !
 ! A96   A(27,28,45)           120.4722         estimate D2E/DX2                !
 ! A97   A(14,29,30)           121.0765         estimate D2E/DX2                !
 ! A98   A(14,29,31)           119.5952         estimate D2E/DX2                !
 ! A99   A(30,29,31)           118.0062         estimate D2E/DX2                !
 ! A100  A(27,30,29)           117.7012         estimate D2E/DX2                !
 ! A101  A(27,30,47)           115.9324         estimate D2E/DX2                !
 ! A102  A(29,30,47)           122.006          estimate D2E/DX2                !
 ! A103  A(29,31,34)           109.9477         estimate D2E/DX2                !
 ! A104  A(29,31,49)           113.5751         estimate D2E/DX2                !
 ! A105  A(29,31,71)           106.4029         estimate D2E/DX2                !
 ! A106  A(34,31,49)           100.5466         estimate D2E/DX2                !
 ! A107  A(34,31,71)           112.6946         estimate D2E/DX2                !
 ! A108  A(49,31,71)           113.7499         estimate D2E/DX2                !
 ! A109  A(16,32,33)           110.88           estimate D2E/DX2                !
 ! A110  A(16,32,34)           122.4926         estimate D2E/DX2                !
 ! A111  A(33,32,34)           118.0026         estimate D2E/DX2                !
 ! A112  A(18,33,32)           107.5689         estimate D2E/DX2                !
 ! A113  A(18,33,36)           118.6327         estimate D2E/DX2                !
 ! A114  A(32,33,36)           123.0331         estimate D2E/DX2                !
 ! A115  A(31,34,32)           122.1141         estimate D2E/DX2                !
 ! A116  A(31,34,51)           111.1735         estimate D2E/DX2                !
 ! A117  A(32,34,51)           119.549          estimate D2E/DX2                !
 ! A118  A(19,35,36)           121.0254         estimate D2E/DX2                !
 ! A119  A(19,35,37)           121.5037         estimate D2E/DX2                !
 ! A120  A(36,35,37)           107.2245         estimate D2E/DX2                !
 ! A121  A(33,36,35)           121.2764         estimate D2E/DX2                !
 ! A122  A(33,36,52)           118.2276         estimate D2E/DX2                !
 ! A123  A(35,36,52)           108.9536         estimate D2E/DX2                !
 ! A124  A(35,37,39)           119.7544         estimate D2E/DX2                !
 ! A125  A(35,37,53)           107.5515         estimate D2E/DX2                !
 ! A126  A(39,37,53)           120.877          estimate D2E/DX2                !
 ! A127  A(21,38,39)           121.8314         estimate D2E/DX2                !
 ! A128  A(21,38,42)           121.8331         estimate D2E/DX2                !
 ! A129  A(39,38,42)           106.8169         estimate D2E/DX2                !
 ! A130  A(37,39,38)           119.5968         estimate D2E/DX2                !
 ! A131  A(37,39,57)           119.8242         estimate D2E/DX2                !
 ! A132  A(38,39,57)           108.8442         estimate D2E/DX2                !
 ! A133  A(23,40,41)           108.6007         estimate D2E/DX2                !
 ! A134  A(23,40,42)           119.1327         estimate D2E/DX2                !
 ! A135  A(41,40,42)           120.8221         estimate D2E/DX2                !
 ! A136  A(24,41,40)           106.2882         estimate D2E/DX2                !
 ! A137  A(24,41,43)           120.488          estimate D2E/DX2                !
 ! A138  A(40,41,43)           119.2275         estimate D2E/DX2                !
 ! A139  A(38,42,40)           120.1052         estimate D2E/DX2                !
 ! A140  A(38,42,58)           108.5909         estimate D2E/DX2                !
 ! A141  A(40,42,58)           119.8746         estimate D2E/DX2                !
 ! A142  A(41,43,46)           119.8165         estimate D2E/DX2                !
 ! A143  A(41,43,59)           120.2385         estimate D2E/DX2                !
 ! A144  A(46,43,59)           107.7626         estimate D2E/DX2                !
 ! A145  A(26,44,45)           106.477          estimate D2E/DX2                !
 ! A146  A(26,44,46)           120.4808         estimate D2E/DX2                !
 ! A147  A(45,44,46)           119.1481         estimate D2E/DX2                !
 ! A148  A(28,45,44)           108.3098         estimate D2E/DX2                !
 ! A149  A(28,45,48)           118.3992         estimate D2E/DX2                !
 ! A150  A(44,45,48)           121.9768         estimate D2E/DX2                !
 ! A151  A(43,46,44)           119.6878         estimate D2E/DX2                !
 ! A152  A(43,46,61)           108.298          estimate D2E/DX2                !
 ! A153  A(44,46,61)           119.6343         estimate D2E/DX2                !
 ! A154  A(30,47,48)           120.7889         estimate D2E/DX2                !
 ! A155  A(30,47,50)           119.7414         estimate D2E/DX2                !
 ! A156  A(48,47,50)           108.3319         estimate D2E/DX2                !
 ! A157  A(45,48,47)           121.6492         estimate D2E/DX2                !
 ! A158  A(45,48,62)           118.5476         estimate D2E/DX2                !
 ! A159  A(47,48,62)           108.5856         estimate D2E/DX2                !
 ! A160  A(31,49,50)           122.3435         estimate D2E/DX2                !
 ! A161  A(31,49,54)           111.775          estimate D2E/DX2                !
 ! A162  A(50,49,54)           118.0041         estimate D2E/DX2                !
 ! A163  A(47,50,49)           119.6581         estimate D2E/DX2                !
 ! A164  A(47,50,63)           107.0508         estimate D2E/DX2                !
 ! A165  A(49,50,63)           121.3731         estimate D2E/DX2                !
 ! A166  A(34,51,52)           121.7059         estimate D2E/DX2                !
 ! A167  A(34,51,54)           108.3405         estimate D2E/DX2                !
 ! A168  A(52,51,54)           119.2372         estimate D2E/DX2                !
 ! A169  A(36,52,51)           118.3916         estimate D2E/DX2                !
 ! A170  A(36,52,53)           106.9933         estimate D2E/DX2                !
 ! A171  A(51,52,53)           121.217          estimate D2E/DX2                !
 ! A172  A(37,53,52)           108.7992         estimate D2E/DX2                !
 ! A173  A(37,53,55)           119.318          estimate D2E/DX2                !
 ! A174  A(52,53,55)           119.5239         estimate D2E/DX2                !
 ! A175  A(49,54,51)           107.758          estimate D2E/DX2                !
 ! A176  A(49,54,56)           121.4483         estimate D2E/DX2                !
 ! A177  A(51,54,56)           119.6874         estimate D2E/DX2                !
 ! A178  A(53,55,56)           119.5923         estimate D2E/DX2                !
 ! A179  A(53,55,60)           119.7681         estimate D2E/DX2                !
 ! A180  A(56,55,60)           108.776          estimate D2E/DX2                !
 ! A181  A(54,56,55)           120.5286         estimate D2E/DX2                !
 ! A182  A(54,56,64)           120.0379         estimate D2E/DX2                !
 ! A183  A(55,56,64)           107.4163         estimate D2E/DX2                !
 ! A184  A(39,57,58)           107.5741         estimate D2E/DX2                !
 ! A185  A(39,57,60)           119.4543         estimate D2E/DX2                !
 ! A186  A(58,57,60)           120.0723         estimate D2E/DX2                !
 ! A187  A(42,58,57)           107.8268         estimate D2E/DX2                !
 ! A188  A(42,58,59)           119.5127         estimate D2E/DX2                !
 ! A189  A(57,58,59)           120.1442         estimate D2E/DX2                !
 ! A190  A(43,59,58)           120.0641         estimate D2E/DX2                !
 ! A191  A(43,59,65)           108.2338         estimate D2E/DX2                !
 ! A192  A(58,59,65)           119.6143         estimate D2E/DX2                !
 ! A193  A(55,60,57)           120.5171         estimate D2E/DX2                !
 ! A194  A(55,60,66)           107.2793         estimate D2E/DX2                !
 ! A195  A(57,60,66)           119.9435         estimate D2E/DX2                !
 ! A196  A(46,61,62)           121.0435         estimate D2E/DX2                !
 ! A197  A(46,61,65)           107.5837         estimate D2E/DX2                !
 ! A198  A(62,61,65)           119.7144         estimate D2E/DX2                !
 ! A199  A(48,62,61)           119.405          estimate D2E/DX2                !
 ! A200  A(48,62,63)           107.0885         estimate D2E/DX2                !
 ! A201  A(61,62,63)           120.8064         estimate D2E/DX2                !
 ! A202  A(50,63,62)           108.6188         estimate D2E/DX2                !
 ! A203  A(50,63,64)           120.3352         estimate D2E/DX2                !
 ! A204  A(62,63,64)           119.2774         estimate D2E/DX2                !
 ! A205  A(56,64,63)           118.6655         estimate D2E/DX2                !
 ! A206  A(56,64,66)           108.6208         estimate D2E/DX2                !
 ! A207  A(63,64,66)           120.4478         estimate D2E/DX2                !
 ! A208  A(59,65,61)           108.0385         estimate D2E/DX2                !
 ! A209  A(59,65,66)           120.0212         estimate D2E/DX2                !
 ! A210  A(61,65,66)           119.6122         estimate D2E/DX2                !
 ! A211  A(60,66,64)           107.8748         estimate D2E/DX2                !
 ! A212  A(60,66,65)           120.1313         estimate D2E/DX2                !
 ! A213  A(64,66,65)           120.0659         estimate D2E/DX2                !
 ! D1    D(4,1,2,3)             11.0489         estimate D2E/DX2                !
 ! D2    D(4,1,2,10)          -100.0455         estimate D2E/DX2                !
 ! D3    D(4,1,2,68)           140.2454         estimate D2E/DX2                !
 ! D4    D(7,1,2,3)            117.5667         estimate D2E/DX2                !
 ! D5    D(7,1,2,10)             6.4723         estimate D2E/DX2                !
 ! D6    D(7,1,2,68)          -113.2368         estimate D2E/DX2                !
 ! D7    D(67,1,2,3)          -113.9448         estimate D2E/DX2                !
 ! D8    D(67,1,2,10)          134.9608         estimate D2E/DX2                !
 ! D9    D(67,1,2,68)           15.2517         estimate D2E/DX2                !
 ! D10   D(2,1,4,5)             -9.5462         estimate D2E/DX2                !
 ! D11   D(2,1,4,6)            138.0981         estimate D2E/DX2                !
 ! D12   D(7,1,4,5)           -131.0121         estimate D2E/DX2                !
 ! D13   D(7,1,4,6)             16.6321         estimate D2E/DX2                !
 ! D14   D(67,1,4,5)           112.0157         estimate D2E/DX2                !
 ! D15   D(67,1,4,6)          -100.3401         estimate D2E/DX2                !
 ! D16   D(2,1,7,8)           -125.6629         estimate D2E/DX2                !
 ! D17   D(2,1,7,9)             19.2604         estimate D2E/DX2                !
 ! D18   D(4,1,7,8)            -18.7575         estimate D2E/DX2                !
 ! D19   D(4,1,7,9)            126.1659         estimate D2E/DX2                !
 ! D20   D(67,1,7,8)           104.2996         estimate D2E/DX2                !
 ! D21   D(67,1,7,9)          -110.777          estimate D2E/DX2                !
 ! D22   D(1,2,3,5)             -9.3615         estimate D2E/DX2                !
 ! D23   D(1,2,3,12)          -116.0645         estimate D2E/DX2                !
 ! D24   D(1,2,3,69)           117.0509         estimate D2E/DX2                !
 ! D25   D(10,2,3,5)           104.7793         estimate D2E/DX2                !
 ! D26   D(10,2,3,12)           -1.9237         estimate D2E/DX2                !
 ! D27   D(10,2,3,69)         -128.8083         estimate D2E/DX2                !
 ! D28   D(68,2,3,5)          -137.8712         estimate D2E/DX2                !
 ! D29   D(68,2,3,12)          115.4258         estimate D2E/DX2                !
 ! D30   D(68,2,3,69)          -11.4588         estimate D2E/DX2                !
 ! D31   D(1,2,10,11)          -32.7481         estimate D2E/DX2                !
 ! D32   D(1,2,10,13)          127.2845         estimate D2E/DX2                !
 ! D33   D(3,2,10,11)         -148.0407         estimate D2E/DX2                !
 ! D34   D(3,2,10,13)           11.9919         estimate D2E/DX2                !
 ! D35   D(68,2,10,11)          90.1816         estimate D2E/DX2                !
 ! D36   D(68,2,10,13)        -109.7859         estimate D2E/DX2                !
 ! D37   D(2,3,5,4)              3.471          estimate D2E/DX2                !
 ! D38   D(2,3,5,15)          -143.1424         estimate D2E/DX2                !
 ! D39   D(12,3,5,4)           112.4291         estimate D2E/DX2                !
 ! D40   D(12,3,5,15)          -34.1843         estimate D2E/DX2                !
 ! D41   D(69,3,5,4)          -125.4871         estimate D2E/DX2                !
 ! D42   D(69,3,5,15)           87.8996         estimate D2E/DX2                !
 ! D43   D(2,3,12,13)           -8.6339         estimate D2E/DX2                !
 ! D44   D(2,3,12,14)          145.2795         estimate D2E/DX2                !
 ! D45   D(5,3,12,13)         -116.2397         estimate D2E/DX2                !
 ! D46   D(5,3,12,14)           37.6737         estimate D2E/DX2                !
 ! D47   D(69,3,12,13)         121.1548         estimate D2E/DX2                !
 ! D48   D(69,3,12,14)         -84.9318         estimate D2E/DX2                !
 ! D49   D(1,4,5,3)              4.1076         estimate D2E/DX2                !
 ! D50   D(1,4,5,15)           152.6505         estimate D2E/DX2                !
 ! D51   D(6,4,5,3)           -139.7066         estimate D2E/DX2                !
 ! D52   D(6,4,5,15)             8.8363         estimate D2E/DX2                !
 ! D53   D(1,4,6,8)             -8.9771         estimate D2E/DX2                !
 ! D54   D(1,4,6,17)          -155.5582         estimate D2E/DX2                !
 ! D55   D(5,4,6,8)            136.2662         estimate D2E/DX2                !
 ! D56   D(5,4,6,17)           -10.315          estimate D2E/DX2                !
 ! D57   D(3,5,15,16)           -2.7492         estimate D2E/DX2                !
 ! D58   D(3,5,15,18)          145.3373         estimate D2E/DX2                !
 ! D59   D(4,5,15,16)         -146.8514         estimate D2E/DX2                !
 ! D60   D(4,5,15,18)            1.2351         estimate D2E/DX2                !
 ! D61   D(4,6,8,7)             -3.7184         estimate D2E/DX2                !
 ! D62   D(4,6,8,20)          -153.4859         estimate D2E/DX2                !
 ! D63   D(17,6,8,7)           142.5435         estimate D2E/DX2                !
 ! D64   D(17,6,8,20)           -7.224          estimate D2E/DX2                !
 ! D65   D(4,6,17,18)            1.3854         estimate D2E/DX2                !
 ! D66   D(4,6,17,19)          155.2064         estimate D2E/DX2                !
 ! D67   D(8,6,17,18)         -140.5649         estimate D2E/DX2                !
 ! D68   D(8,6,17,19)           13.2561         estimate D2E/DX2                !
 ! D69   D(1,7,8,6)             14.8167         estimate D2E/DX2                !
 ! D70   D(1,7,8,20)           162.6781         estimate D2E/DX2                !
 ! D71   D(9,7,8,6)           -131.9058         estimate D2E/DX2                !
 ! D72   D(9,7,8,20)            15.9556         estimate D2E/DX2                !
 ! D73   D(1,7,9,11)           -21.9886         estimate D2E/DX2                !
 ! D74   D(1,7,9,22)          -166.5967         estimate D2E/DX2                !
 ! D75   D(8,7,9,11)           120.4309         estimate D2E/DX2                !
 ! D76   D(8,7,9,22)           -24.1772         estimate D2E/DX2                !
 ! D77   D(6,8,20,21)           -3.4968         estimate D2E/DX2                !
 ! D78   D(6,8,20,23)          149.713          estimate D2E/DX2                !
 ! D79   D(7,8,20,21)         -147.7809         estimate D2E/DX2                !
 ! D80   D(7,8,20,23)            5.4289         estimate D2E/DX2                !
 ! D81   D(7,9,11,10)           -2.0202         estimate D2E/DX2                !
 ! D82   D(7,9,11,25)         -146.6234         estimate D2E/DX2                !
 ! D83   D(22,9,11,10)         141.8742         estimate D2E/DX2                !
 ! D84   D(22,9,11,25)          -2.7291         estimate D2E/DX2                !
 ! D85   D(7,9,22,23)           12.8769         estimate D2E/DX2                !
 ! D86   D(7,9,22,24)          157.7239         estimate D2E/DX2                !
 ! D87   D(11,9,22,23)        -131.1894         estimate D2E/DX2                !
 ! D88   D(11,9,22,24)          13.6576         estimate D2E/DX2                !
 ! D89   D(2,10,11,9)           32.4767         estimate D2E/DX2                !
 ! D90   D(2,10,11,25)         177.6038         estimate D2E/DX2                !
 ! D91   D(13,10,11,9)        -126.0861         estimate D2E/DX2                !
 ! D92   D(13,10,11,25)         19.041          estimate D2E/DX2                !
 ! D93   D(2,10,13,12)         -18.2932         estimate D2E/DX2                !
 ! D94   D(2,10,13,27)        -170.3968         estimate D2E/DX2                !
 ! D95   D(11,10,13,12)        143.3093         estimate D2E/DX2                !
 ! D96   D(11,10,13,27)         -8.7944         estimate D2E/DX2                !
 ! D97   D(9,11,25,26)          -9.8784         estimate D2E/DX2                !
 ! D98   D(9,11,25,28)         134.6158         estimate D2E/DX2                !
 ! D99   D(10,11,25,26)       -155.4092         estimate D2E/DX2                !
 ! D100  D(10,11,25,28)        -10.915          estimate D2E/DX2                !
 ! D101  D(3,12,13,10)          16.4428         estimate D2E/DX2                !
 ! D102  D(3,12,13,27)         169.7671         estimate D2E/DX2                !
 ! D103  D(14,12,13,10)       -139.3456         estimate D2E/DX2                !
 ! D104  D(14,12,13,27)         13.9786         estimate D2E/DX2                !
 ! D105  D(3,12,14,16)          -2.9461         estimate D2E/DX2                !
 ! D106  D(3,12,14,29)        -168.3958         estimate D2E/DX2                !
 ! D107  D(13,12,14,16)        148.4074         estimate D2E/DX2                !
 ! D108  D(13,12,14,29)        -17.0424         estimate D2E/DX2                !
 ! D109  D(10,13,27,28)        -10.6274         estimate D2E/DX2                !
 ! D110  D(10,13,27,30)        147.776          estimate D2E/DX2                !
 ! D111  D(12,13,27,28)       -159.6615         estimate D2E/DX2                !
 ! D112  D(12,13,27,30)         -1.2581         estimate D2E/DX2                !
 ! D113  D(12,14,16,15)        -34.6236         estimate D2E/DX2                !
 ! D114  D(12,14,16,32)       -141.6897         estimate D2E/DX2                !
 ! D115  D(12,14,16,70)         91.4811         estimate D2E/DX2                !
 ! D116  D(29,14,16,15)        130.4334         estimate D2E/DX2                !
 ! D117  D(29,14,16,32)         23.3673         estimate D2E/DX2                !
 ! D118  D(29,14,16,70)       -103.4619         estimate D2E/DX2                !
 ! D119  D(12,14,29,30)          7.7792         estimate D2E/DX2                !
 ! D120  D(12,14,29,31)        174.3882         estimate D2E/DX2                !
 ! D121  D(16,14,29,30)       -157.2495         estimate D2E/DX2                !
 ! D122  D(16,14,29,31)          9.3595         estimate D2E/DX2                !
 ! D123  D(5,15,16,14)          38.639          estimate D2E/DX2                !
 ! D124  D(5,15,16,32)         152.324          estimate D2E/DX2                !
 ! D125  D(5,15,16,70)         -83.7177         estimate D2E/DX2                !
 ! D126  D(18,15,16,14)       -111.8971         estimate D2E/DX2                !
 ! D127  D(18,15,16,32)          1.7879         estimate D2E/DX2                !
 ! D128  D(18,15,16,70)        125.7462         estimate D2E/DX2                !
 ! D129  D(5,15,18,17)         -10.1936         estimate D2E/DX2                !
 ! D130  D(5,15,18,33)        -159.7515         estimate D2E/DX2                !
 ! D131  D(16,15,18,17)        141.4518         estimate D2E/DX2                !
 ! D132  D(16,15,18,33)         -8.1061         estimate D2E/DX2                !
 ! D133  D(14,16,32,33)        114.4984         estimate D2E/DX2                !
 ! D134  D(14,16,32,34)        -32.5071         estimate D2E/DX2                !
 ! D135  D(15,16,32,33)          5.1542         estimate D2E/DX2                !
 ! D136  D(15,16,32,34)       -141.8513         estimate D2E/DX2                !
 ! D137  D(70,16,32,33)       -120.5342         estimate D2E/DX2                !
 ! D138  D(70,16,32,34)         92.4603         estimate D2E/DX2                !
 ! D139  D(6,17,18,15)           8.6135         estimate D2E/DX2                !
 ! D140  D(6,17,18,33)         154.7388         estimate D2E/DX2                !
 ! D141  D(19,17,18,15)       -144.7795         estimate D2E/DX2                !
 ! D142  D(19,17,18,33)          1.3458         estimate D2E/DX2                !
 ! D143  D(6,17,19,21)          -8.563          estimate D2E/DX2                !
 ! D144  D(6,17,19,35)        -162.5025         estimate D2E/DX2                !
 ! D145  D(18,17,19,21)        143.7297         estimate D2E/DX2                !
 ! D146  D(18,17,19,35)        -10.2098         estimate D2E/DX2                !
 ! D147  D(15,18,33,32)         11.1977         estimate D2E/DX2                !
 ! D148  D(15,18,33,36)        156.7179         estimate D2E/DX2                !
 ! D149  D(17,18,33,32)       -139.0754         estimate D2E/DX2                !
 ! D150  D(17,18,33,36)          6.4448         estimate D2E/DX2                !
 ! D151  D(17,19,21,20)         -1.7793         estimate D2E/DX2                !
 ! D152  D(17,19,21,38)       -154.9528         estimate D2E/DX2                !
 ! D153  D(35,19,21,20)        151.5417         estimate D2E/DX2                !
 ! D154  D(35,19,21,38)         -1.6318         estimate D2E/DX2                !
 ! D155  D(17,19,35,36)         11.5864         estimate D2E/DX2                !
 ! D156  D(17,19,35,37)        152.2937         estimate D2E/DX2                !
 ! D157  D(21,19,35,36)       -142.3873         estimate D2E/DX2                !
 ! D158  D(21,19,35,37)         -1.68           estimate D2E/DX2                !
 ! D159  D(8,20,21,19)           7.802          estimate D2E/DX2                !
 ! D160  D(8,20,21,38)         161.3366         estimate D2E/DX2                !
 ! D161  D(23,20,21,19)       -143.7616         estimate D2E/DX2                !
 ! D162  D(23,20,21,38)          9.773          estimate D2E/DX2                !
 ! D163  D(8,20,23,22)         -17.242          estimate D2E/DX2                !
 ! D164  D(8,20,23,40)        -158.0118         estimate D2E/DX2                !
 ! D165  D(21,20,23,22)        135.7917         estimate D2E/DX2                !
 ! D166  D(21,20,23,40)         -4.9781         estimate D2E/DX2                !
 ! D167  D(19,21,38,39)          3.4514         estimate D2E/DX2                !
 ! D168  D(19,21,38,42)        145.2847         estimate D2E/DX2                !
 ! D169  D(20,21,38,39)       -150.4309         estimate D2E/DX2                !
 ! D170  D(20,21,38,42)         -8.5977         estimate D2E/DX2                !
 ! D171  D(9,22,23,20)           8.712          estimate D2E/DX2                !
 ! D172  D(9,22,23,40)         153.8267         estimate D2E/DX2                !
 ! D173  D(24,22,23,20)       -140.8607         estimate D2E/DX2                !
 ! D174  D(24,22,23,40)          4.254          estimate D2E/DX2                !
 ! D175  D(9,22,24,26)         -11.984          estimate D2E/DX2                !
 ! D176  D(9,22,24,41)        -154.2816         estimate D2E/DX2                !
 ! D177  D(23,22,24,26)        137.5218         estimate D2E/DX2                !
 ! D178  D(23,22,24,41)         -4.7757         estimate D2E/DX2                !
 ! D179  D(20,23,40,41)        142.3332         estimate D2E/DX2                !
 ! D180  D(20,23,40,42)         -1.4205         estimate D2E/DX2                !
 ! D181  D(22,23,40,41)         -2.187          estimate D2E/DX2                !
 ! D182  D(22,23,40,42)       -145.9407         estimate D2E/DX2                !
 ! D183  D(22,24,26,25)         -0.8485         estimate D2E/DX2                !
 ! D184  D(22,24,26,44)       -138.6092         estimate D2E/DX2                !
 ! D185  D(41,24,26,25)        137.49           estimate D2E/DX2                !
 ! D186  D(41,24,26,44)         -0.2707         estimate D2E/DX2                !
 ! D187  D(22,24,41,40)          3.4335         estimate D2E/DX2                !
 ! D188  D(22,24,41,43)        143.1054         estimate D2E/DX2                !
 ! D189  D(26,24,41,40)       -138.4406         estimate D2E/DX2                !
 ! D190  D(26,24,41,43)          1.2313         estimate D2E/DX2                !
 ! D191  D(11,25,26,24)         11.8386         estimate D2E/DX2                !
 ! D192  D(11,25,26,44)        153.7451         estimate D2E/DX2                !
 ! D193  D(28,25,26,24)       -137.144          estimate D2E/DX2                !
 ! D194  D(28,25,26,44)          4.7624         estimate D2E/DX2                !
 ! D195  D(11,25,28,27)         -8.7156         estimate D2E/DX2                !
 ! D196  D(11,25,28,45)       -154.5187         estimate D2E/DX2                !
 ! D197  D(26,25,28,27)        140.7185         estimate D2E/DX2                !
 ! D198  D(26,25,28,45)         -5.0846         estimate D2E/DX2                !
 ! D199  D(24,26,44,45)        138.7819         estimate D2E/DX2                !
 ! D200  D(24,26,44,46)         -0.9895         estimate D2E/DX2                !
 ! D201  D(25,26,44,45)         -2.6481         estimate D2E/DX2                !
 ! D202  D(25,26,44,46)       -142.4194         estimate D2E/DX2                !
 ! D203  D(13,27,28,25)         18.7949         estimate D2E/DX2                !
 ! D204  D(13,27,28,45)        160.7558         estimate D2E/DX2                !
 ! D205  D(30,27,28,25)       -139.0731         estimate D2E/DX2                !
 ! D206  D(30,27,28,45)          2.8877         estimate D2E/DX2                !
 ! D207  D(13,27,30,29)         -7.7889         estimate D2E/DX2                !
 ! D208  D(13,27,30,47)       -164.8552         estimate D2E/DX2                !
 ! D209  D(28,27,30,29)        148.828          estimate D2E/DX2                !
 ! D210  D(28,27,30,47)         -8.2382         estimate D2E/DX2                !
 ! D211  D(25,28,45,44)          3.5021         estimate D2E/DX2                !
 ! D212  D(25,28,45,48)        147.8968         estimate D2E/DX2                !
 ! D213  D(27,28,45,44)       -142.3186         estimate D2E/DX2                !
 ! D214  D(27,28,45,48)          2.0761         estimate D2E/DX2                !
 ! D215  D(14,29,30,27)          4.5217         estimate D2E/DX2                !
 ! D216  D(14,29,30,47)        160.1127         estimate D2E/DX2                !
 ! D217  D(31,29,30,27)       -162.2936         estimate D2E/DX2                !
 ! D218  D(31,29,30,47)         -6.7027         estimate D2E/DX2                !
 ! D219  D(14,29,31,34)        -33.8915         estimate D2E/DX2                !
 ! D220  D(14,29,31,49)       -145.6579         estimate D2E/DX2                !
 ! D221  D(14,29,31,71)         88.4318         estimate D2E/DX2                !
 ! D222  D(30,29,31,34)        133.1253         estimate D2E/DX2                !
 ! D223  D(30,29,31,49)         21.3589         estimate D2E/DX2                !
 ! D224  D(30,29,31,71)       -104.5514         estimate D2E/DX2                !
 ! D225  D(27,30,47,48)          8.9582         estimate D2E/DX2                !
 ! D226  D(27,30,47,50)        148.6087         estimate D2E/DX2                !
 ! D227  D(29,30,47,48)       -147.0348         estimate D2E/DX2                !
 ! D228  D(29,30,47,50)         -7.3843         estimate D2E/DX2                !
 ! D229  D(29,31,34,32)         26.1273         estimate D2E/DX2                !
 ! D230  D(29,31,34,51)       -124.0447         estimate D2E/DX2                !
 ! D231  D(49,31,34,32)        146.1511         estimate D2E/DX2                !
 ! D232  D(49,31,34,51)         -4.0209         estimate D2E/DX2                !
 ! D233  D(71,31,34,32)        -92.3887         estimate D2E/DX2                !
 ! D234  D(71,31,34,51)        117.4393         estimate D2E/DX2                !
 ! D235  D(29,31,49,50)        -24.7001         estimate D2E/DX2                !
 ! D236  D(29,31,49,54)        123.6658         estimate D2E/DX2                !
 ! D237  D(34,31,49,50)       -142.0788         estimate D2E/DX2                !
 ! D238  D(34,31,49,54)          6.2871         estimate D2E/DX2                !
 ! D239  D(71,31,49,50)         97.212          estimate D2E/DX2                !
 ! D240  D(71,31,49,54)       -114.4221         estimate D2E/DX2                !
 ! D241  D(16,32,33,18)        -10.2444         estimate D2E/DX2                !
 ! D242  D(16,32,33,36)       -153.8962         estimate D2E/DX2                !
 ! D243  D(34,32,33,18)        138.4087         estimate D2E/DX2                !
 ! D244  D(34,32,33,36)         -5.2431         estimate D2E/DX2                !
 ! D245  D(16,32,34,31)          7.5135         estimate D2E/DX2                !
 ! D246  D(16,32,34,51)        155.2939         estimate D2E/DX2                !
 ! D247  D(33,32,34,31)       -137.2985         estimate D2E/DX2                !
 ! D248  D(33,32,34,51)         10.4819         estimate D2E/DX2                !
 ! D249  D(18,33,36,35)         -5.1466         estimate D2E/DX2                !
 ! D250  D(18,33,36,52)       -144.3832         estimate D2E/DX2                !
 ! D251  D(32,33,36,35)        134.7797         estimate D2E/DX2                !
 ! D252  D(32,33,36,52)         -4.4569         estimate D2E/DX2                !
 ! D253  D(31,34,51,52)        144.5888         estimate D2E/DX2                !
 ! D254  D(31,34,51,54)          0.5302         estimate D2E/DX2                !
 ! D255  D(32,34,51,52)         -6.4459         estimate D2E/DX2                !
 ! D256  D(32,34,51,54)       -150.5045         estimate D2E/DX2                !
 ! D257  D(19,35,36,33)         -4.1612         estimate D2E/DX2                !
 ! D258  D(19,35,36,52)        138.3746         estimate D2E/DX2                !
 ! D259  D(37,35,36,33)       -149.7385         estimate D2E/DX2                !
 ! D260  D(37,35,36,52)         -7.2027         estimate D2E/DX2                !
 ! D261  D(19,35,37,39)          3.2828         estimate D2E/DX2                !
 ! D262  D(19,35,37,53)       -139.9237         estimate D2E/DX2                !
 ! D263  D(36,35,37,39)        148.6604         estimate D2E/DX2                !
 ! D264  D(36,35,37,53)          5.4539         estimate D2E/DX2                !
 ! D265  D(33,36,52,51)          8.535          estimate D2E/DX2                !
 ! D266  D(33,36,52,53)        149.9075         estimate D2E/DX2                !
 ! D267  D(35,36,52,51)       -135.3053         estimate D2E/DX2                !
 ! D268  D(35,36,52,53)          6.0672         estimate D2E/DX2                !
 ! D269  D(35,37,39,38)         -1.4741         estimate D2E/DX2                !
 ! D270  D(35,37,39,57)       -140.3939         estimate D2E/DX2                !
 ! D271  D(53,37,39,38)        136.8167         estimate D2E/DX2                !
 ! D272  D(53,37,39,57)         -2.1031         estimate D2E/DX2                !
 ! D273  D(35,37,53,52)         -1.7893         estimate D2E/DX2                !
 ! D274  D(35,37,53,55)        140.2281         estimate D2E/DX2                !
 ! D275  D(39,37,53,52)       -144.5004         estimate D2E/DX2                !
 ! D276  D(39,37,53,55)         -2.4829         estimate D2E/DX2                !
 ! D277  D(21,38,39,37)         -1.9148         estimate D2E/DX2                !
 ! D278  D(21,38,39,57)        141.0454         estimate D2E/DX2                !
 ! D279  D(42,38,39,37)       -148.6534         estimate D2E/DX2                !
 ! D280  D(42,38,39,57)         -5.6932         estimate D2E/DX2                !
 ! D281  D(21,38,42,40)          2.5114         estimate D2E/DX2                !
 ! D282  D(21,38,42,58)       -140.8571         estimate D2E/DX2                !
 ! D283  D(39,38,42,40)        149.2493         estimate D2E/DX2                !
 ! D284  D(39,38,42,58)          5.8807         estimate D2E/DX2                !
 ! D285  D(37,39,57,58)        146.2401         estimate D2E/DX2                !
 ! D286  D(37,39,57,60)          4.7495         estimate D2E/DX2                !
 ! D287  D(38,39,57,58)          3.378          estimate D2E/DX2                !
 ! D288  D(38,39,57,60)       -138.1126         estimate D2E/DX2                !
 ! D289  D(23,40,41,24)         -0.7673         estimate D2E/DX2                !
 ! D290  D(23,40,41,43)       -141.0469         estimate D2E/DX2                !
 ! D291  D(42,40,41,24)        142.2625         estimate D2E/DX2                !
 ! D292  D(42,40,41,43)          1.9828         estimate D2E/DX2                !
 ! D293  D(23,40,42,38)          2.7192         estimate D2E/DX2                !
 ! D294  D(23,40,42,58)        142.0119         estimate D2E/DX2                !
 ! D295  D(41,40,42,38)       -136.5477         estimate D2E/DX2                !
 ! D296  D(41,40,42,58)          2.745          estimate D2E/DX2                !
 ! D297  D(24,41,43,46)         -0.9351         estimate D2E/DX2                !
 ! D298  D(24,41,43,59)       -138.7567         estimate D2E/DX2                !
 ! D299  D(40,41,43,46)        133.6825         estimate D2E/DX2                !
 ! D300  D(40,41,43,59)         -4.1391         estimate D2E/DX2                !
 ! D301  D(38,42,58,57)         -3.8571         estimate D2E/DX2                !
 ! D302  D(38,42,58,59)        138.1598         estimate D2E/DX2                !
 ! D303  D(40,42,58,57)       -147.3244         estimate D2E/DX2                !
 ! D304  D(40,42,58,59)         -5.3075         estimate D2E/DX2                !
 ! D305  D(41,43,46,44)         -0.3246         estimate D2E/DX2                !
 ! D306  D(41,43,46,61)       -142.3243         estimate D2E/DX2                !
 ! D307  D(59,43,46,44)        142.1495         estimate D2E/DX2                !
 ! D308  D(59,43,46,61)          0.1498         estimate D2E/DX2                !
 ! D309  D(41,43,59,58)          1.5713         estimate D2E/DX2                !
 ! D310  D(41,43,59,65)        143.9303         estimate D2E/DX2                !
 ! D311  D(46,43,59,58)       -140.7148         estimate D2E/DX2                !
 ! D312  D(46,43,59,65)          1.6442         estimate D2E/DX2                !
 ! D313  D(26,44,45,28)         -0.5073         estimate D2E/DX2                !
 ! D314  D(26,44,45,48)       -143.3687         estimate D2E/DX2                !
 ! D315  D(46,44,45,28)        139.9028         estimate D2E/DX2                !
 ! D316  D(46,44,45,48)         -2.9586         estimate D2E/DX2                !
 ! D317  D(26,44,46,43)          1.2854         estimate D2E/DX2                !
 ! D318  D(26,44,46,61)        139.0252         estimate D2E/DX2                !
 ! D319  D(45,44,46,43)       -133.5515         estimate D2E/DX2                !
 ! D320  D(45,44,46,61)          4.1883         estimate D2E/DX2                !
 ! D321  D(28,45,48,47)         -1.2517         estimate D2E/DX2                !
 ! D322  D(28,45,48,62)       -140.8535         estimate D2E/DX2                !
 ! D323  D(44,45,48,47)        138.0864         estimate D2E/DX2                !
 ! D324  D(44,45,48,62)         -1.5154         estimate D2E/DX2                !
 ! D325  D(43,46,61,62)        141.0285         estimate D2E/DX2                !
 ! D326  D(43,46,61,65)         -1.8765         estimate D2E/DX2                !
 ! D327  D(44,46,61,62)         -0.995          estimate D2E/DX2                !
 ! D328  D(44,46,61,65)       -143.9            estimate D2E/DX2                !
 ! D329  D(30,47,48,45)         -4.5048         estimate D2E/DX2                !
 ! D330  D(30,47,48,62)        138.5806         estimate D2E/DX2                !
 ! D331  D(50,47,48,45)       -148.1903         estimate D2E/DX2                !
 ! D332  D(50,47,48,62)         -5.1049         estimate D2E/DX2                !
 ! D333  D(30,47,50,49)          4.9914         estimate D2E/DX2                !
 ! D334  D(30,47,50,63)       -138.261          estimate D2E/DX2                !
 ! D335  D(48,47,50,49)        149.1225         estimate D2E/DX2                !
 ! D336  D(48,47,50,63)          5.8701         estimate D2E/DX2                !
 ! D337  D(45,48,62,61)          4.6983         estimate D2E/DX2                !
 ! D338  D(45,48,62,63)        146.7237         estimate D2E/DX2                !
 ! D339  D(47,48,62,61)       -139.7058         estimate D2E/DX2                !
 ! D340  D(47,48,62,63)          2.3196         estimate D2E/DX2                !
 ! D341  D(31,49,50,47)         11.895          estimate D2E/DX2                !
 ! D342  D(31,49,50,63)        149.8324         estimate D2E/DX2                !
 ! D343  D(54,49,50,47)       -134.624          estimate D2E/DX2                !
 ! D344  D(54,49,50,63)          3.3134         estimate D2E/DX2                !
 ! D345  D(31,49,54,51)         -6.3878         estimate D2E/DX2                !
 ! D346  D(31,49,54,56)       -150.0409         estimate D2E/DX2                !
 ! D347  D(50,49,54,51)        143.4875         estimate D2E/DX2                !
 ! D348  D(50,49,54,56)         -0.1656         estimate D2E/DX2                !
 ! D349  D(47,50,63,62)         -4.4344         estimate D2E/DX2                !
 ! D350  D(47,50,63,64)        138.2263         estimate D2E/DX2                !
 ! D351  D(49,50,63,62)       -146.9215         estimate D2E/DX2                !
 ! D352  D(49,50,63,64)         -4.2608         estimate D2E/DX2                !
 ! D353  D(34,51,52,36)         -3.3723         estimate D2E/DX2                !
 ! D354  D(34,51,52,53)       -139.0998         estimate D2E/DX2                !
 ! D355  D(54,51,52,36)        136.9491         estimate D2E/DX2                !
 ! D356  D(54,51,52,53)          1.2217         estimate D2E/DX2                !
 ! D357  D(34,51,54,49)          3.5267         estimate D2E/DX2                !
 ! D358  D(34,51,54,56)        147.9347         estimate D2E/DX2                !
 ! D359  D(52,51,54,49)       -141.5653         estimate D2E/DX2                !
 ! D360  D(52,51,54,56)          2.8427         estimate D2E/DX2                !
 ! D361  D(36,52,53,37)         -2.6323         estimate D2E/DX2                !
 ! D362  D(36,52,53,55)       -144.5589         estimate D2E/DX2                !
 ! D363  D(51,52,53,37)        137.4158         estimate D2E/DX2                !
 ! D364  D(51,52,53,55)         -4.5108         estimate D2E/DX2                !
 ! D365  D(37,53,55,56)       -134.3188         estimate D2E/DX2                !
 ! D366  D(37,53,55,60)          4.3792         estimate D2E/DX2                !
 ! D367  D(52,53,55,56)          3.6504         estimate D2E/DX2                !
 ! D368  D(52,53,55,60)        142.3484         estimate D2E/DX2                !
 ! D369  D(49,54,56,55)        135.8098         estimate D2E/DX2                !
 ! D370  D(49,54,56,64)         -2.1252         estimate D2E/DX2                !
 ! D371  D(51,54,56,55)         -3.6701         estimate D2E/DX2                !
 ! D372  D(51,54,56,64)       -141.6051         estimate D2E/DX2                !
 ! D373  D(53,55,56,54)          0.3825         estimate D2E/DX2                !
 ! D374  D(53,55,56,64)        142.9476         estimate D2E/DX2                !
 ! D375  D(60,55,56,54)       -142.3789         estimate D2E/DX2                !
 ! D376  D(60,55,56,64)          0.1862         estimate D2E/DX2                !
 ! D377  D(53,55,60,57)         -1.7352         estimate D2E/DX2                !
 ! D378  D(53,55,60,66)       -143.9348         estimate D2E/DX2                !
 ! D379  D(56,55,60,57)        140.95           estimate D2E/DX2                !
 ! D380  D(56,55,60,66)         -1.2496         estimate D2E/DX2                !
 ! D381  D(54,56,64,63)          1.2087         estimate D2E/DX2                !
 ! D382  D(54,56,64,66)        143.7366         estimate D2E/DX2                !
 ! D383  D(55,56,64,63)       -141.5749         estimate D2E/DX2                !
 ! D384  D(55,56,64,66)          0.953          estimate D2E/DX2                !
 ! D385  D(39,57,58,42)          0.3114         estimate D2E/DX2                !
 ! D386  D(39,57,58,59)       -141.4213         estimate D2E/DX2                !
 ! D387  D(60,57,58,42)        141.5194         estimate D2E/DX2                !
 ! D388  D(60,57,58,59)         -0.2133         estimate D2E/DX2                !
 ! D389  D(39,57,60,55)         -2.8455         estimate D2E/DX2                !
 ! D390  D(39,57,60,66)        134.6689         estimate D2E/DX2                !
 ! D391  D(58,57,60,55)       -139.5382         estimate D2E/DX2                !
 ! D392  D(58,57,60,66)         -2.0238         estimate D2E/DX2                !
 ! D393  D(42,58,59,43)          3.1611         estimate D2E/DX2                !
 ! D394  D(42,58,59,65)       -134.9874         estimate D2E/DX2                !
 ! D395  D(57,58,59,43)        140.5123         estimate D2E/DX2                !
 ! D396  D(57,58,59,65)          2.3638         estimate D2E/DX2                !
 ! D397  D(43,59,65,61)         -2.8131         estimate D2E/DX2                !
 ! D398  D(43,59,65,66)       -144.8468         estimate D2E/DX2                !
 ! D399  D(58,59,65,61)        139.7441         estimate D2E/DX2                !
 ! D400  D(58,59,65,66)         -2.2895         estimate D2E/DX2                !
 ! D401  D(55,60,66,64)          1.8204         estimate D2E/DX2                !
 ! D402  D(55,60,66,65)        144.5543         estimate D2E/DX2                !
 ! D403  D(57,60,66,64)       -140.6373         estimate D2E/DX2                !
 ! D404  D(57,60,66,65)          2.0966         estimate D2E/DX2                !
 ! D405  D(46,61,62,48)         -3.5109         estimate D2E/DX2                !
 ! D406  D(46,61,62,63)       -140.2937         estimate D2E/DX2                !
 ! D407  D(65,61,62,48)        135.0359         estimate D2E/DX2                !
 ! D408  D(65,61,62,63)         -1.7469         estimate D2E/DX2                !
 ! D409  D(46,61,65,59)          2.886          estimate D2E/DX2                !
 ! D410  D(46,61,65,66)        145.1019         estimate D2E/DX2                !
 ! D411  D(62,61,65,59)       -140.6019         estimate D2E/DX2                !
 ! D412  D(62,61,65,66)          1.614          estimate D2E/DX2                !
 ! D413  D(48,62,63,50)          1.3549         estimate D2E/DX2                !
 ! D414  D(48,62,63,64)       -141.7642         estimate D2E/DX2                !
 ! D415  D(61,62,63,50)        142.7386         estimate D2E/DX2                !
 ! D416  D(61,62,63,64)         -0.3805         estimate D2E/DX2                !
 ! D417  D(50,63,64,56)          1.8721         estimate D2E/DX2                !
 ! D418  D(50,63,64,66)       -136.1568         estimate D2E/DX2                !
 ! D419  D(62,63,64,56)        140.6511         estimate D2E/DX2                !
 ! D420  D(62,63,64,66)          2.6222         estimate D2E/DX2                !
 ! D421  D(56,64,66,60)         -1.7344         estimate D2E/DX2                !
 ! D422  D(56,64,66,65)       -144.4971         estimate D2E/DX2                !
 ! D423  D(63,64,66,60)        140.0076         estimate D2E/DX2                !
 ! D424  D(63,64,66,65)         -2.7551         estimate D2E/DX2                !
 ! D425  D(59,65,66,60)          0.0648         estimate D2E/DX2                !
 ! D426  D(59,65,66,64)        138.3146         estimate D2E/DX2                !
 ! D427  D(61,65,66,60)       -137.6485         estimate D2E/DX2                !
 ! D428  D(61,65,66,64)          0.6014         estimate D2E/DX2                !
 --------------------------------------------------------------------------------
 Trust Radius=3.00D-01 FncErr=1.00D-07 GrdErr=1.00D-06 EigMax=2.50D+02 EigMin=1.00D-04
 Number of steps in this run=    426 maximum allowed number of steps=    426.
 GradGradGradGradGradGradGradGradGradGradGradGradGradGradGradGradGradGrad

 Leave Link  103 at Fri Jul 15 04:48:19 2022, MaxMem=  1342177280 cpu:               1.3 elap:               0.0
 (Enter /home/mkliu/g16/l202.exe)
 Stoichiometry    C66Cl5(2)
 Framework group  C1[X(C66Cl5)]
 Deg. of freedom   207
 Full point group                 C1      NOp   1
 Largest Abelian subgroup         C1      NOp   1
 Largest concise Abelian subgroup C1      NOp   1
                         Standard orientation:                         
 ---------------------------------------------------------------------
 Center     Atomic      Atomic             Coordinates (Angstroms)
 Number     Number       Type             X           Y           Z
 ---------------------------------------------------------------------
      1          6           0        3.402789   -1.866883    0.672024
      2          6           0        3.673262   -1.061905   -0.625655
      3          6           0        3.667079    0.465441   -0.293901
      4          6           0        2.988799   -0.764503    1.578834
      5          6           0        3.169084    0.510482    1.105835
      6          6           0        1.903221   -1.125285    2.365067
      7          6           0        2.165280   -2.721885    0.745653
      8          6           0        1.411541   -2.383155    1.882035
      9          6           0        1.474421   -3.132468   -0.392417
[...]
     9 C(13)  Bbb    -0.0099    -1.327    -0.474    -0.443  0.8436  0.4605 -0.2763
              Bcc     0.0210     2.823     1.007     0.942 -0.4539  0.8864  0.0913
 
              Baa    -0.1285   -17.241    -6.152    -5.751  0.1732  0.9631 -0.2063
    10 C(13)  Bbb    -0.1259   -16.889    -6.026    -5.634  0.8074 -0.0189  0.5897
              Bcc     0.2543    34.130    12.178    11.385 -0.5640  0.2686  0.7809
 
              Baa    -0.0814   -10.921    -3.897    -3.643  0.5856 -0.5622 -0.5839
    11 C(13)  Bbb     0.0369     4.947     1.765     1.650  0.2145 -0.5871  0.7805
              Bcc     0.0445     5.974     2.132     1.993  0.7817  0.5824  0.2233
 
              Baa    -0.1526   -20.479    -7.308    -6.831 -0.1562  0.7958  0.5851
    12 C(13)  Bbb    -0.1471   -19.742    -7.044    -6.585  0.8166 -0.2292  0.5298
              Bcc     0.2997    40.221    14.352    13.416 -0.5557 -0.5606  0.6140
 
              Baa    -0.0830   -11.143    -3.976    -3.717 -0.6206 -0.1484  0.7699
    13 C(13)  Bbb     0.0377     5.064     1.807     1.689  0.7839 -0.1368  0.6056
              Bcc     0.0453     6.078     2.169     2.028  0.0154  0.9794  0.2012
 
              Baa    -0.1173   -15.736    -5.615    -5.249  0.5064  0.7214 -0.4724
    14 C(13)  Bbb     0.0506     6.793     2.424     2.266  0.1516  0.4649  0.8723
              Bcc     0.0666     8.943     3.191     2.983  0.8489 -0.5134  0.1261
 
              Baa    -0.0068    -0.915    -0.326    -0.305 -0.2087  0.8612 -0.4635
    15 C(13)  Bbb    -0.0038    -0.515    -0.184    -0.172  0.7731 -0.1450 -0.6175
              Bcc     0.0107     1.430     0.510     0.477  0.5990  0.4872  0.6355
 
              Baa    -0.0018    -0.236    -0.084    -0.079 -0.2128 -0.6611  0.7195
    16 C(13)  Bbb    -0.0007    -0.091    -0.033    -0.030  0.9439 -0.3294 -0.0236
              Bcc     0.0024     0.328     0.117     0.109  0.2526  0.6741  0.6941
 
              Baa    -0.0056    -0.752    -0.268    -0.251 -0.1847  0.9809  0.0605
    17 C(13)  Bbb    -0.0050    -0.672    -0.240    -0.224  0.9296  0.1943 -0.3132
              Bcc     0.0106     1.424     0.508     0.475  0.3190  0.0016  0.9478
 
              Baa    -0.0045    -0.610    -0.218    -0.204  0.6333  0.4925  0.5970
    18 C(13)  Bbb     0.0016     0.211     0.075     0.070 -0.5989  0.8005 -0.0251
              Bcc     0.0030     0.399     0.142     0.133 -0.4902 -0.3416  0.8019
 
              Baa    -0.0101    -1.351    -0.482    -0.450  0.1675 -0.2180  0.9615
    19 C(13)  Bbb     0.0048     0.638     0.228     0.213  0.9798 -0.0712 -0.1868
              Bcc     0.0053     0.712     0.254     0.238  0.1092  0.9733  0.2017
 
              Baa    -0.0141    -1.890    -0.675    -0.631  0.1442 -0.6649  0.7329
    20 C(13)  Bbb     0.0068     0.909     0.324     0.303  0.9453  0.3116  0.0967
              Bcc     0.0073     0.981     0.350     0.327 -0.2926  0.6788  0.6735
 
              Baa    -0.0184    -2.474    -0.883    -0.825  0.9478  0.3167  0.0378
    21 C(13)  Bbb    -0.0181    -2.429    -0.867    -0.810 -0.2993  0.8421  0.4486
              Bcc     0.0365     4.903     1.750     1.635  0.1103 -0.4365  0.8929
 
              Baa    -0.0239    -3.206    -1.144    -1.069 -0.2161  0.9764 -0.0011
    22 C(13)  Bbb     0.0114     1.524     0.544     0.508  0.9763  0.2161 -0.0146
              Bcc     0.0125     1.682     0.600     0.561  0.0140  0.0042  0.9999
 
              Baa    -0.0116    -1.555    -0.555    -0.519  0.6418  0.4762  0.6011
    23 C(13)  Bbb    -0.0115    -1.546    -0.552    -0.516  0.7475 -0.2135 -0.6290
              Bcc     0.0231     3.102     1.107     1.035 -0.1712  0.8531 -0.4929
 
              Baa    -0.0273    -3.666    -1.308    -1.223  0.5533 -0.2103  0.8060
    24 C(13)  Bbb    -0.0240    -3.217    -1.148    -1.073  0.8260  0.2630 -0.4985
              Bcc     0.0513     6.883     2.456     2.296 -0.1072  0.9416  0.3192
 
              Baa    -0.0941   -12.632    -4.508    -4.214  0.4241 -0.6311  0.6495
    25 C(13)  Bbb    -0.0889   -11.930    -4.257    -3.979  0.7696  0.6292  0.1088
              Bcc     0.1830    24.562     8.764     8.193 -0.4774  0.4536  0.7526
 
              Baa    -0.0195    -2.616    -0.933    -0.873 -0.3127  0.6246  0.7156
    26 C(13)  Bbb     0.0048     0.639     0.228     0.213  0.6023 -0.4521  0.6579
              Bcc     0.0147     1.977     0.705     0.660  0.7344  0.6367 -0.2348
 
              Baa    -0.0244    -3.277    -1.169    -1.093  0.2618  0.8808  0.3944
    27 C(13)  Bbb    -0.0213    -2.858    -1.020    -0.953  0.8870 -0.3807  0.2614
              Bcc     0.0457     6.135     2.189     2.046 -0.3805 -0.2814  0.8810
 
              Baa    -0.0892   -11.968    -4.270    -3.992 -0.3886  0.0910  0.9169
    28 C(13)  Bbb     0.0417     5.600     1.998     1.868  0.6423  0.7402  0.1988
              Bcc     0.0475     6.367     2.272     2.124 -0.6606  0.6662 -0.3461
 
              Baa    -0.1571   -21.085    -7.524    -7.033  0.5068  0.3791  0.7742
    29 C(13)  Bbb    -0.1493   -20.034    -7.149    -6.683  0.7718 -0.5996 -0.2116
              Bcc     0.3064    41.120    14.672    13.716  0.3840  0.7048 -0.5965
 
              Baa    -0.1038   -13.934    -4.972    -4.648 -0.3147 -0.5647  0.7629
    30 C(13)  Bbb     0.0456     6.124     2.185     2.043 -0.5565  0.7609  0.3336
              Bcc     0.0582     7.810     2.787     2.605  0.7689  0.3196  0.5538
 
              Baa    -0.0074    -0.995    -0.355    -0.332  0.0485 -0.6205  0.7827
    31 C(13)  Bbb     0.0029     0.390     0.139     0.130  0.9429  0.2869  0.1690
              Bcc     0.0045     0.604     0.216     0.202 -0.3295  0.7298  0.5990
 
              Baa    -0.0035    -0.465    -0.166    -0.155  0.8666  0.0312 -0.4980
    32 C(13)  Bbb    -0.0015    -0.200    -0.071    -0.067 -0.3895  0.6662 -0.6360
              Bcc     0.0050     0.665     0.237     0.222  0.3120  0.7451  0.5895
 
              Baa    -0.0010    -0.138    -0.049    -0.046  0.8699 -0.4931 -0.0094
    33 C(13)  Bbb    -0.0005    -0.062    -0.022    -0.021  0.4444  0.7921 -0.4185
              Bcc     0.0015     0.201     0.072     0.067  0.2138  0.3599  0.9082
 
              Baa    -0.0066    -0.881    -0.314    -0.294 -0.2646  0.8215 -0.5050
    34 C(13)  Bbb    -0.0035    -0.469    -0.167    -0.156  0.9625  0.1927 -0.1908
              Bcc     0.0101     1.350     0.482     0.450  0.0594  0.5366  0.8417
 
              Baa    -0.0079    -1.066    -0.380    -0.355  0.9993  0.0369  0.0107
    35 C(13)  Bbb    -0.0076    -1.015    -0.362    -0.339 -0.0366  0.9990 -0.0258
              Bcc     0.0155     2.081     0.742     0.694 -0.0117  0.0254  0.9996
 
              Baa    -0.0008    -0.106    -0.038    -0.035  0.3106  0.5179  0.7971
    36 C(13)  Bbb    -0.0001    -0.017    -0.006    -0.006  0.8601 -0.5102 -0.0037
              Bcc     0.0009     0.123     0.044     0.041  0.4048  0.6867 -0.6039
 
              Baa    -0.0142    -1.909    -0.681    -0.637 -0.3705  0.1181  0.9213
    37 C(13)  Bbb     0.0064     0.863     0.308     0.288  0.9079  0.2556  0.3323
              Bcc     0.0078     1.046     0.373     0.349 -0.1962  0.9595 -0.2020
 
              Baa    -0.0160    -2.141    -0.764    -0.714 -0.1516 -0.5110  0.8461
    38 C(13)  Bbb     0.0073     0.982     0.351     0.328  0.0028  0.8557  0.5174
              Bcc     0.0086     1.159     0.413     0.386  0.9884 -0.0808  0.1283
 
              Baa    -0.0105    -1.409    -0.503    -0.470  0.6714  0.4958  0.5508
    39 C(13)  Bbb    -0.0103    -1.376    -0.491    -0.459 -0.5469  0.8331 -0.0833
              Bcc     0.0208     2.785     0.994     0.929 -0.5002 -0.2453  0.8305
 
              Baa    -0.0027    -0.360    -0.129    -0.120 -0.2583  0.7401 -0.6209
    40 C(13)  Bbb     0.0008     0.107     0.038     0.036  0.9098 -0.0297 -0.4139
              Bcc     0.0019     0.253     0.090     0.084  0.3248  0.6718  0.6657
 
              Baa    -0.0126    -1.692    -0.604    -0.564  0.2884 -0.1173  0.9503
    41 C(13)  Bbb    -0.0116    -1.556    -0.555    -0.519  0.8875 -0.3397 -0.3113
              Bcc     0.0242     3.248     1.159     1.084  0.3594  0.9332  0.0061
 
              Baa    -0.0062    -0.834    -0.298    -0.278  0.1743  0.5855  0.7917
    42 C(13)  Bbb    -0.0057    -0.766    -0.274    -0.256  0.8711 -0.4666  0.1533
              Bcc     0.0119     1.601     0.571     0.534  0.4591  0.6629 -0.5914
 
              Baa    -0.0055    -0.731    -0.261    -0.244 -0.4247  0.4331  0.7950
    43 C(13)  Bbb    -0.0035    -0.463    -0.165    -0.155  0.6829 -0.4232  0.5954
              Bcc     0.0089     1.195     0.426     0.398  0.5943  0.7958 -0.1160
 
              Baa    -0.0166    -2.223    -0.793    -0.742  0.0729  0.2116  0.9746
    44 C(13)  Bbb     0.0037     0.492     0.176     0.164  0.8247 -0.5624  0.0603
              Bcc     0.0129     1.731     0.618     0.577  0.5609  0.7994 -0.2155
 
              Baa    -0.0803   -10.782    -3.847    -3.597  0.9759 -0.2167  0.0254
    45 C(13)  Bbb    -0.0751   -10.080    -3.597    -3.362  0.2181  0.9728 -0.0784
              Bcc     0.1555    20.862     7.444     6.959 -0.0077  0.0821  0.9966
 
              Baa    -0.0336    -4.507    -1.608    -1.503  0.7963 -0.5796 -0.1731
    46 C(13)  Bbb    -0.0308    -4.135    -1.475    -1.379 -0.3019 -0.6289  0.7165
              Bcc     0.0644     8.642     3.084     2.883  0.5241  0.5183  0.6758
 
              Baa    -0.1699   -22.798    -8.135    -7.605  0.9956 -0.0289  0.0897
    47 C(13)  Bbb    -0.1647   -22.106    -7.888    -7.374 -0.0191  0.8697  0.4932
              Bcc     0.3346    44.904    16.023    14.978 -0.0922 -0.4927  0.8653
 
              Baa    -0.0803   -10.777    -3.845    -3.595  0.1366 -0.2346  0.9624
    48 C(13)  Bbb     0.0326     4.368     1.559     1.457  0.9678 -0.1755 -0.1802
              Bcc     0.0478     6.409     2.287     2.138  0.2112  0.9561  0.2031
 
              Baa    -0.0636    -8.529    -3.043    -2.845  0.3836  0.4543  0.8040
    49 C(13)  Bbb    -0.0576    -7.724    -2.756    -2.576  0.8999  0.0118 -0.4360
              Bcc     0.1211    16.253     5.799     5.421 -0.2076  0.8907 -0.4043
 
              Baa    -0.0559    -7.503    -2.677    -2.503  0.1680 -0.6402  0.7496
    50 C(13)  Bbb     0.0217     2.912     1.039     0.971  0.7855  0.5464  0.2907
              Bcc     0.0342     4.590     1.638     1.531  0.5957 -0.5400 -0.5946
 
              Baa    -0.0158    -2.120    -0.757    -0.707  0.8781  0.0790  0.4719
    51 C(13)  Bbb    -0.0136    -1.831    -0.653    -0.611 -0.4134 -0.3715  0.8313
              Bcc     0.0294     3.951     1.410     1.318 -0.2410  0.9251  0.2935
 
              Baa    -0.0109    -1.463    -0.522    -0.488 -0.3226  0.7228  0.6112
    52 C(13)  Bbb     0.0039     0.518     0.185     0.173  0.8173 -0.1130  0.5650
              Bcc     0.0070     0.945     0.337     0.315  0.4775  0.6818 -0.5543
 
              Baa    -0.0237    -3.178    -1.134    -1.060  0.8228  0.1782  0.5397
    53 C(13)  Bbb    -0.0225    -3.018    -1.077    -1.007  0.0801  0.9038 -0.4205
              Bcc     0.0462     6.195     2.211     2.067 -0.5626  0.3892  0.7294
 
              Baa    -0.0262    -3.518    -1.255    -1.173 -0.4137  0.9029 -0.1163
    54 C(13)  Bbb     0.0097     1.297     0.463     0.433  0.6164  0.3718  0.6941
              Bcc     0.0165     2.221     0.792     0.741 -0.6700 -0.2155  0.7104
 
              Baa    -0.0198    -2.650    -0.946    -0.884  0.7617 -0.4828 -0.4322
    55 C(13)  Bbb     0.0089     1.188     0.424     0.396  0.5275  0.8493 -0.0191
              Bcc     0.0109     1.462     0.522     0.488  0.3763 -0.2134  0.9016
 
              Baa    -0.0247    -3.311    -1.181    -1.104  0.5793  0.6645  0.4721
    56 C(13)  Bbb    -0.0232    -3.109    -1.109    -1.037 -0.2630 -0.3958  0.8799
              Bcc     0.0478     6.420     2.291     2.141  0.7715 -0.6339 -0.0545
 
              Baa    -0.0122    -1.643    -0.586    -0.548  0.7837  0.2205 -0.5807
    57 C(13)  Bbb     0.0059     0.792     0.283     0.264  0.5996 -0.5129  0.6144
              Bcc     0.0063     0.851     0.304     0.284  0.1624  0.8296  0.5342
 
              Baa    -0.0049    -0.657    -0.234    -0.219 -0.1810  0.7071  0.6836
    58 C(13)  Bbb    -0.0047    -0.634    -0.226    -0.211  0.6812 -0.4112  0.6057
              Bcc     0.0096     1.291     0.461     0.431  0.7094  0.5753 -0.4073
 
              Baa    -0.0014    -0.190    -0.068    -0.064  0.8312 -0.5314  0.1635
    59 C(13)  Bbb     0.0000     0.003     0.001     0.001 -0.3290 -0.2330  0.9151
              Bcc     0.0014     0.187     0.067     0.063  0.4482  0.8144  0.3685
 
              Baa    -0.0041    -0.549    -0.196    -0.183  0.3435 -0.3557  0.8692
    60 C(13)  Bbb    -0.0039    -0.526    -0.188    -0.176  0.1823  0.9332  0.3098
              Bcc     0.0080     1.075     0.384     0.359  0.9213 -0.0520 -0.3854
 
              Baa    -0.0258    -3.465    -1.236    -1.156  0.6620  0.2462  0.7079
    61 C(13)  Bbb     0.0120     1.605     0.573     0.535  0.7085  0.1024 -0.6983
              Bcc     0.0139     1.860     0.664     0.621 -0.2444  0.9638 -0.1067
 
              Baa    -0.0200    -2.681    -0.957    -0.894  0.7747  0.0948 -0.6252
    62 C(13)  Bbb    -0.0182    -2.439    -0.870    -0.813 -0.0834  0.9954  0.0476
              Bcc     0.0382     5.120     1.827     1.708  0.6269  0.0152  0.7790
 
              Baa    -0.0133    -1.784    -0.637    -0.595  0.4280  0.8714  0.2398
    63 C(13)  Bbb    -0.0129    -1.734    -0.619    -0.578 -0.5178  0.0190  0.8553
              Bcc     0.0262     3.518     1.255     1.174  0.7407 -0.4902  0.4593
 
              Baa    -0.0180    -2.411    -0.860    -0.804  0.7896 -0.5315  0.3068
    64 C(13)  Bbb     0.0086     1.152     0.411     0.384  0.6070  0.7498 -0.2634
              Bcc     0.0094     1.259     0.449     0.420 -0.0901  0.3942  0.9146
 
              Baa    -0.0019    -0.257    -0.092    -0.086  0.0394  0.3669  0.9294
    65 C(13)  Bbb    -0.0008    -0.111    -0.040    -0.037 -0.0533  0.9296 -0.3647
              Bcc     0.0027     0.368     0.131     0.123  0.9978  0.0352 -0.0562
 
              Baa    -0.0094    -1.264    -0.451    -0.422  0.9901 -0.1022  0.0964
    66 C(13)  Bbb     0.0046     0.614     0.219     0.205  0.1382  0.8316 -0.5379
              Bcc     0.0048     0.650     0.232     0.217 -0.0252  0.5459  0.8375
 
              Baa    -0.0237    -1.243    -0.443    -0.415  0.9399  0.3294 -0.0901
    67 Cl(35) Bbb    -0.0081    -0.424    -0.151    -0.141 -0.1006  0.5191  0.8488
              Bcc     0.0319     1.667     0.595     0.556 -0.3264  0.7887 -0.5211
 
              Baa    -0.0786    -4.112    -1.467    -1.371 -0.0103  0.3665  0.9303
    68 Cl(35) Bbb    -0.0695    -3.638    -1.298    -1.214  0.0695  0.9284 -0.3650
              Bcc     0.1481     7.750     2.765     2.585  0.9975 -0.0609  0.0350
 
              Baa    -0.0589    -3.083    -1.100    -1.028  0.1565  0.7195 -0.6766
    69 Cl(35) Bbb    -0.0502    -2.627    -0.938    -0.876 -0.1003  0.6931  0.7138
              Bcc     0.1091     5.710     2.038     1.905  0.9826 -0.0439  0.1806
 
              Baa    -0.0566    -2.964    -1.058    -0.989  0.5358  0.7228  0.4365
    70 Cl(35) Bbb     0.0246     1.285     0.458     0.429  0.7384 -0.6518  0.1730
              Bcc     0.0321     1.679     0.599     0.560 -0.4096 -0.2296  0.8829
 
              Baa    -0.1700    -8.895    -3.174    -2.967 -0.0897  0.1584  0.9833
    71 Cl(35) Bbb    -0.1547    -8.096    -2.889    -2.701  0.9929 -0.0635  0.1008
              Bcc     0.3246    16.991     6.063     5.668  0.0784  0.9853 -0.1516
 

 ---------------------------------------------------------------------------------

 No NMR shielding tensors so no spin-rotation constants.
 Leave Link  601 at Fri Jul 15 06:51:02 2022, MaxMem=  1342177280 cpu:              98.2 elap:               2.3
 (Enter /home/mkliu/g16/l9999.exe)
 1\1\GINC-NODE05\FOpt\UB3LYP\6-311G(d,p)\C66Cl5(2)\MKLIU\15-Jul-2022\0\
 \#P opt b3lyp/6-311G(d, p) empiricaldispersion=GD3\\force\\0,2\C,-1.33
 58502695,1.8660675855,-3.9128712885\C,0.1902330438,2.2429548326,-3.998
 3420026\C,0.9645942536,0.8691241554,-4.325003196\C,-1.3377582957,0.366
 6330428,-3.9574534417\C,-0.0975043364,-0.1844308767,-4.2075707516\C,-2
 .2121343105,-0.164913814,-3.0016544235\C,-1.998153867,2.1108475951,-2.
 5666693176\C,-2.6868644415,0.9438527524,-2.1745910884\C,-1.4869986563,
 2.9818865335,-1.5862354363\C,0.7211563764,2.622335834,-2.6477677395\C,
 -0.0286105336,3.25333929,-1.6344495778\C,1.8921254059,0.6877363203,-3.
 1314453627\C,1.8492585605,1.8417902984,-2.3135866232\C,2.2442465691,-0
 .5406952025,-2.5677918484\C,0.1934074236,-1.4219334819,-3.6588179345\C
 ,1.5998392635,-1.7980067701,-3.1853649744\C,-1.9727842508,-1.427940128
 3,-2.4323453062\C,-0.7738016985,-2.0826300785,-2.8793877517\C,-2.49435
 53306,-1.7255019785,-1.0965376176\C,-3.1061354919,0.7162842983,-0.8440
 566593\C,-3.1048465442,-0.6491867776,-0.3079857956\C,-2.0927820675,2.9
 068698805,-0.3130476932\C,-2.9587572712,1.8179561695,0.0342082143\C,-1
 .4058129439,3.3120602507,0.9027764459\C,0.6465088539,3.4619653422,-0.4
 13379972\C,-0.0499628758,3.596761905,0.8525636242\C,2.414331053,1.8475
 155205,-1.0145851298\C,1.9071349853,2.8242325332,-0.1328702462\C,2.859
 4153953,-0.5789996283,-1.2871663703\C,3.0083815765,0.6260052178,-0.510
 5086029\C,3.1321247408,-1.9343854616,-0.624674442\C,1.2983782701,-2.81
 52069539,-2.1085332506\C,-0.1124275477,-3.0422080105,-2.0362799102\C,2
 .0467043583,-2.9396212478,-0.9770424158\C,-1.9453646777,-2.8311234989,
 -0.4113608275\C,-0.716868692,-3.4687370199,-0.8737182183\C,-1.93756736
 35,-2.9075225214,1.0193931291\C,-3.152394674,-0.7918174519,1.09809814\
 C,-2.5450280287,-1.9074276191,1.7648927393\C,-2.8976273604,1.627686859
 1,1.4639732886\C,-1.9370964271,2.5574980858,2.0145209163\C,-3.02082775
 88,0.3561048493,1.9848804378\C,-1.1096073922,2.1545572447,3.0635481705
 \C,0.8213792163,3.1356041305,1.9115631356\C,2.0354071433,2.6644007328,
 1.2850459743\C,0.304555987,2.4522159335,3.0117124396\C,3.2433954206,0.
 5554470413,0.895470608\C,2.7060618375,1.5503152536,1.7805524254\C,3.02
 20438724,-1.8879970595,0.8903351765\C,3.185598665,-0.7206567184,1.5919
 802872\C,1.4587481705,-3.4700982913,0.2160291499\C,0.092305044,-3.7782
 716676,0.2671325776\C,-0.6714901504,-3.4723776593,1.4544936052\C,2.094
 4072843,-2.8686917761,1.3634670629\C,-0.0427904705,-2.9649163036,2.586
 5327382\C,1.3765047089,-2.6654261036,2.5488792041\C,-1.9357299908,-1.4
 455164392,2.9989561251\C,-2.2308074246,-0.0387074224,3.1337696109\C,-1
 .2685265428,0.8352509719,3.6444166385\C,-0.6933000592,-1.9449896381,3.
 3859700444\C,1.0229674439,1.3156488688,3.5621092191\C,2.214738117,0.89
 14902287,2.9799580933\C,2.5070152553,-0.5178674896,2.8533847808\C,1.59
 93334727,-1.4686959011,3.3191554825\C,0.0453863632,0.3277799455,3.9888
 890852\C,0.3267923429,-1.0307902619,3.8664816545\Cl,-2.3855255279,2.57
 19429337,-5.2316165323\Cl,0.5720451806,3.6128928611,-5.1110497809\Cl,1
 .8690103934,0.8097119035,-5.8909765829\Cl,2.6538418112,-2.5127301547,-
 4.5079874898\Cl,4.8264030969,-2.5163803064,-1.1396343348\\Version=ES64
 L-G16RevA.03\State=2-A\HF=-4816.5380329\S2=0.800745\S2-1=0.\S2A=0.7522
 77\RMSD=4.992e-09\RMSF=2.519e-05\Dipole=-0.8600972,0.0148464,1.5423488
 \Quadrupole=-0.2164118,3.5977715,-3.3813597,6.0269881,2.2626092,2.3935
 832\PG=C01 [X(C66Cl5)]\\@


 THERE ONCE WAS A GIRL NAMED IRENE,
 WHO LIVED ON DISTILLED KEROSENE,
      BUT SHE STARTED ABSORBIN'
      A NEW HYDROCARBON,
 AND SINCE THEN HAS NEVER BENZENE.
 Job cpu time:       4 days  1 hours 41 minutes 52.9 seconds.
 Elapsed time:       0 days  2 hours  2 minutes 19.0 seconds.
 File lengths (MBytes):  RWF=   1887 Int=      0 D2E=      0 Chk=    170 Scr=      1
 Normal termination of Gaussian 16 at Fri Jul 15 06:51:03 2022.
