 Entering Gaussian System, Link 0=g16
 Input=dmj69thqq3ri8_addon_5.gjf
 Output=dmj69thqq3ri8_addon_5.log
 Initial command:
 /home/mkliu/g16/l1.exe "/data/scratch/Gau-52870.inp" -scrdir="/data/scratch/"
 Entering Link 1 = /home/mkliu/g16/l1.exe PID=     52871.
  
 Copyright (c) 1988,1990,1992,1993,1995,1998,2003,2009,2016,
            Gaussian, Inc.  All Rights Reserved.
  
 This is part of the Gaussian(R) 16 program.  It is based on
 the Gaussian(R) 09 system (copyright 2009, Gaussian, Inc.),
 the Gaussian(R) 03 system (copyright 2003, Gaussian, Inc.),
 the Gaussian(R) 98 system (copyright 1998, Gaussian, Inc.),
 the Gaussian(R) 94 system (copyright 1995, Gaussian, Inc.),
 the Gaussian 92(TM) system (copyright 1992, Gaussian, Inc.),
 the Gaussian 90(TM) system (copyright 1990, Gaussian, Inc.),
 the Gaussian 88(TM) system (copyright 1988, Gaussian, Inc.),
 the Gaussian 86(TM) system (copyright 1986, Carnegie Mellon
 University), and the Gaussian 82(TM) system (copyright 1983,
 Carnegie Mellon University). Gaussian is a federally registered
 trademark of Gaussian, Inc.
  
 This software contains proprietary and confidential information,
 including trade secrets, belonging to Gaussian, Inc.
  
 This software is provided under written license and may be
 used, copied, transmitted, or stored only in accord with that
 written license.
  
 The following legend is applicable only to US Government
 contracts under FAR:
  
                    RESTRICTED RIGHTS LEGEND
  
 Use, reproduction and disclosure by the US Government is
 subject to restrictions as set forth in subparagraphs (a)
 and (c) of the Commercial Computer Software - Restricted
 Rights clause in FAR 52.227-19.
  
 Gaussian, Inc.
 340 Quinnipiac St., Bldg. 40, Wallingford CT 06492
  
  
 ---------------------------------------------------------------
 Warning -- This program may not be used in any manner that
 competes with the business of Gaussian, Inc. or will provide
 assistance to any competitor of Gaussian, Inc.  The licensee
 of this program is prohibited from giving any competitor of
 Gaussian, Inc. access to this program.  By using this program,
 the user acknowledges that Gaussian, Inc. is engaged in the
 business of creating and licensing software in the field of
 computational chemistry and represents and warrants to the
 licensee that it is not a competitor of Gaussian, Inc. and that
 it will not use this program in any manner prohibited above.
 ---------------------------------------------------------------
  

 Cite this work as:
 Gaussian 16, Revision A.03,
 M. J. Frisch, G. W. Trucks, H. B. Schlegel, G. E. Scuseria, 
 M. A. Robb, J. R. Cheeseman, G. Scalmani, V. Barone, 
 G. A. Petersson, H. Nakatsuji, X. Li, M. Caricato, A. V. Marenich, 
 J. Bloino, B. G. Janesko, R. Gomperts, B. Mennucci, H. P. Hratchian, 
 J. V. Ortiz, A. F. Izmaylov, J. L. Sonnenberg, D. Williams-Young, 
 F. Ding, F. Lipparini, F. Egidi, J. Goings, B. Peng, A. Petrone, 
 T. Henderson, D. Ranasinghe, V. G. Zakrzewski, J. Gao, N. Rega, 
 G. Zheng, W. Liang, M. Hada, M. Ehara, K. Toyota, R. Fukuda, 
 J. Hasegawa, M. Ishida, T. Nakajima, Y. Honda, O. Kitao, H. Nakai, 
 T. Vreven, K. Throssell, J. A. Montgomery, Jr., J. E. Peralta, 
 F. Ogliaro, M. J. Bearpark, J. J. Heyd, E. N. Brothers, K. N. Kudin, 
 V. N. Staroverov, T. A. Keith, R. Kobayashi, J. Normand, 
 K. Raghavachari, A. P. Rendell, J. C. Burant, S. S. Iyengar, 
 J. Tomasi, M. Cossi, J. M. Millam, M. Klene, C. Adamo, R. Cammi, 
 J. W. Ochterski, R. L. Martin, K. Morokuma, O. Farkas, 
 J. B. Foresman, and D. J. Fox, Gaussian, Inc., Wallingford CT, 2016.
 
 ******************************************
 Gaussian 16:  ES64L-G16RevA.03 25-Dec-2016
                16-Jul-2022 
 ******************************************
 %mem=10GB
 %chk=dmj69thqq3ri8_addon_5.chk
 %nprocshared=48
 Will use up to   48 processors via shared memory.
 -------------------------------------------------
 #P opt b3lyp/6-311G(d, p) empiricaldispersion=GD3
 -------------------------------------------------
 1/18=20,19=15,26=3,38=1/1,3;
 2/9=110,12=2,17=6,18=5,40=1/2;
 3/5=4,6=6,7=101,11=2,25=1,30=1,71=1,74=-5,124=31/1,2,3;
 4//1;
 5/5=2,38=5/2;
 6/7=2,8=2,9=2,10=2,28=1/1;
 7//1,2,3,16;
 1/18=20,19=15,26=3/3(2);
 2/9=110/2;
 99//99;
 2/9=110/2;
 3/5=4,6=6,7=101,11=2,25=1,30=1,71=1,74=-5,124=31/1,2,3;
 4/5=5,16=3,69=1/1;
 5/5=2,38=5/2;
 7//1,2,3,16;
 1/18=20,19=15,26=3/3(-5);
 2/9=110/2;
 6/7=2,8=2,9=2,10=2,19=2,28=1/1;
 99/9=1/99;
 Leave Link    1 at Sat Jul 16 09:06:02 2022, MaxMem=  1342177280 cpu:               2.2 elap:               0.1
 (Enter /home/mkliu/g16/l101.exe)
 -----
 force
 -----
 Symbolic Z-matrix:
 Charge =  0 Multiplicity = 2
 C                    -1.31138   1.88179  -3.88597 
 C                     0.2019    2.20705  -3.97888 
 C                     0.9825    0.88938  -4.30272 
 C                    -1.27671   0.40019  -3.86215 
 C                    -0.05403  -0.16318  -4.13134 
 C                    -2.14354  -0.13474  -2.92379 
 C                    -2.00767   2.13492  -2.58542 
 C                    -2.66755   0.94955  -2.13352 
 C                    -1.48211   2.94782  -1.58217 
 C                     0.69805   2.54193  -2.62556 
 C                    -0.04259   3.18225  -1.63539 
 C                     1.90014   0.66441  -3.11632 
 C                     1.83666   1.80782  -2.28009 
 C                     2.24569  -0.54832  -2.57993 
 C                     0.22628  -1.39881  -3.60198 
 C                     1.62363  -1.80419  -3.16851 
 C                    -1.91583  -1.40019  -2.36797 
 C                    -0.74124  -2.04858  -2.82364 
 C                    -2.44958  -1.6952   -1.06531 
 C                    -3.10062   0.70148  -0.834 
 C                    -3.05963  -0.62019  -0.29805 
 C                    -2.09898   2.88296  -0.31654 
 C                    -3.21228   1.92122   0.03744 
 C                    -1.40053   3.23483   0.85376 
 C                     0.63839   3.37961  -0.42361 
 C                    -0.03967   3.52797   0.81603 
 C                     2.42349   1.81024  -1.00941 
 C                     1.89785   2.76587  -0.13948 
 C                     2.88966  -0.60931  -1.28031 
 C                     3.02714   0.60243  -0.51638 
 C                     2.91179  -1.82619  -0.58099 
 C                     1.3079   -2.82234  -2.1232 
 C                    -0.09563  -3.03497  -2.02452 
 C                     2.04323  -2.92928  -0.98446 
 C                    -1.90329  -2.80183  -0.40048 
 C                    -0.70133  -3.44953  -0.8583 
 C                    -1.90841  -2.88791   1.02582 
 C                    -3.1365   -0.78464   1.1088 
 C                    -2.52095  -1.88663   1.75599 
 C                    -2.91395   1.63242   1.47501 
 C                    -1.9307    2.51216   1.98905 
 C                    -3.01292   0.36408   1.98575 
 C                    -1.08972   2.12528   3.02634 
 C                     0.81912   3.09617   1.87721 
 C                     2.03513   2.62382   1.27062 
 C                     0.31348   2.42155   2.97084 
 C                     3.23692   0.53391   0.8759 
 C                     2.71839   1.53591   1.7692 
 C                     3.00346  -1.8731    0.83704 
 C                     3.19107  -0.71228   1.56677 
 C                     1.46563  -3.49434   0.2071 
 C                     0.10924  -3.77774   0.27056 
 C                    -0.65675  -3.45595   1.44321 
 C                     2.10451  -2.88704   1.33603 
 C                    -0.01717  -2.94145   2.55764 
 C                     1.38907  -2.64694   2.49952 
 C                    -1.90642  -1.42777   2.98041 
 C                    -2.20071  -0.02973   3.10336 
 C                    -1.23609   0.82916   3.61081 
 C                    -0.6633   -1.91942   3.33789 
 C                     1.04596   1.30817   3.52676 
 C                     2.23653   0.88882   2.96135 
 C                     2.52706  -0.51309   2.82804 
 C                     1.61188  -1.45005   3.26951 
 C                     0.07331   0.33183   3.94644 
 C                     0.3536   -1.01817   3.81425 
 Cl                   -2.24652   2.61384  -5.23447 
 Cl                    0.55334   3.57893  -5.07038 
 Cl                    1.83407   0.8009   -5.85476 
 Cl                    2.67114  -2.42334  -4.49645 
 Cl                   -4.87302   2.64535  -0.19933 
 
 ITRead=  0  0  0  0  0  0  0  0  0  0  0  0  0  0  0  0  0  0  0  0
 ITRead=  0  0  0  0  0  0  0  0  0  0  0  0  0  0  0  0  0  0  0  0
 ITRead=  0  0  0  0  0  0  0  0  0  0  0  0  0  0  0  0  0  0  0  0
 ITRead=  0  0  0  0  0  0  0  0  0  0  0
 MicOpt= -1 -1 -1 -1 -1 -1 -1 -1 -1 -1 -1 -1 -1 -1 -1 -1 -1 -1 -1 -1
 MicOpt= -1 -1 -1 -1 -1 -1 -1 -1 -1 -1 -1 -1 -1 -1 -1 -1 -1 -1 -1 -1
 MicOpt= -1 -1 -1 -1 -1 -1 -1 -1 -1 -1 -1 -1 -1 -1 -1 -1 -1 -1 -1 -1
 MicOpt= -1 -1 -1 -1 -1 -1 -1 -1 -1 -1 -1
 NAtoms=     71 NQM=       71 NQMF=       0 NMMI=      0 NMMIF=      0
                NMic=       0 NMicF=      0.
                    Isotopes and Nuclear Properties:
 (Nuclear quadrupole moments (NQMom) in fm**2, nuclear magnetic moments (NMagM)
  in nuclear magnetons)

  Atom         1           2           3           4           5           6           7           8           9          10
 IAtWgt=          12          12          12          12          12          12          12          12          12          12
 AtmWgt=  12.0000000  12.0000000  12.0000000  12.0000000  12.0000000  12.0000000  12.0000000  12.0000000  12.0000000  12.0000000
 NucSpn=           0           0           0           0           0           0           0           0           0           0
 AtZEff=  -0.0000000  -0.0000000  -0.0000000  -0.0000000  -0.0000000  -0.0000000  -0.0000000  -0.0000000  -0.0000000  -0.0000000
 NQMom=    0.0000000   0.0000000   0.0000000   0.0000000   0.0000000   0.0000000   0.0000000   0.0000000   0.0000000   0.0000000
 NMagM=    0.0000000   0.0000000   0.0000000   0.0000000   0.0000000   0.0000000   0.0000000   0.0000000   0.0000000   0.0000000
 AtZNuc=   6.0000000   6.0000000   6.0000000   6.0000000   6.0000000   6.0000000   6.0000000   6.0000000   6.0000000   6.0000000

  Atom        11          12          13          14          15          16          17          18          19          20
 IAtWgt=          12          12          12          12          12          12          12          12          12          12
 AtmWgt=  12.0000000  12.0000000  12.0000000  12.0000000  12.0000000  12.0000000  12.0000000  12.0000000  12.0000000  12.0000000
 NucSpn=           0           0           0           0           0           0           0           0           0           0
 AtZEff=  -0.0000000  -0.0000000  -0.0000000  -0.0000000  -0.0000000  -0.0000000  -0.0000000  -0.0000000  -0.0000000  -0.0000000
 NQMom=    0.0000000   0.0000000   0.0000000   0.0000000   0.0000000   0.0000000   0.0000000   0.0000000   0.0000000   0.0000000
 NMagM=    0.0000000   0.0000000   0.0000000   0.0000000   0.0000000   0.0000000   0.0000000   0.0000000   0.0000000   0.0000000
 AtZNuc=   6.0000000   6.0000000   6.0000000   6.0000000   6.0000000   6.0000000   6.0000000   6.0000000   6.0000000   6.0000000

  Atom        21          22          23          24          25          26          27          28          29          30
 IAtWgt=          12          12          12          12          12          12          12          12          12          12
 AtmWgt=  12.0000000  12.0000000  12.0000000  12.0000000  12.0000000  12.0000000  12.0000000  12.0000000  12.0000000  12.0000000
 NucSpn=           0           0           0           0           0           0           0           0           0           0
 AtZEff=  -0.0000000  -0.0000000  -0.0000000  -0.0000000  -0.0000000  -0.0000000  -0.0000000  -0.0000000  -0.0000000  -0.0000000
 NQMom=    0.0000000   0.0000000   0.0000000   0.0000000   0.0000000   0.0000000   0.0000000   0.0000000   0.0000000   0.0000000
 NMagM=    0.0000000   0.0000000   0.0000000   0.0000000   0.0000000   0.0000000   0.0000000   0.0000000   0.0000000   0.0000000
 AtZNuc=   6.0000000   6.0000000   6.0000000   6.0000000   6.0000000   6.0000000   6.0000000   6.0000000   6.0000000   6.0000000

  Atom        31          32          33          34          35          36          37          38          39          40
 IAtWgt=          12          12          12          12          12          12          12          12          12          12
 AtmWgt=  12.0000000  12.0000000  12.0000000  12.0000000  12.0000000  12.0000000  12.0000000  12.0000000  12.0000000  12.0000000
 NucSpn=           0           0           0           0           0           0           0           0           0           0
 AtZEff=  -0.0000000  -0.0000000  -0.0000000  -0.0000000  -0.0000000  -0.0000000  -0.0000000  -0.0000000  -0.0000000  -0.0000000
 NQMom=    0.0000000   0.0000000   0.0000000   0.0000000   0.0000000   0.0000000   0.0000000   0.0000000   0.0000000   0.0000000
 NMagM=    0.0000000   0.0000000   0.0000000   0.0000000   0.0000000   0.0000000   0.0000000   0.0000000   0.0000000   0.0000000
 AtZNuc=   6.0000000   6.0000000   6.0000000   6.0000000   6.0000000   6.0000000   6.0000000   6.0000000   6.0000000   6.0000000

  Atom        41          42          43          44          45          46          47          48          49          50
 IAtWgt=          12          12          12          12          12          12          12          12          12          12
 AtmWgt=  12.0000000  12.0000000  12.0000000  12.0000000  12.0000000  12.0000000  12.0000000  12.0000000  12.0000000  12.0000000
 NucSpn=           0           0           0           0           0           0           0           0           0           0
 AtZEff=  -0.0000000  -0.0000000  -0.0000000  -0.0000000  -0.0000000  -0.0000000  -0.0000000  -0.0000000  -0.0000000  -0.0000000
 NQMom=    0.0000000   0.0000000   0.0000000   0.0000000   0.0000000   0.0000000   0.0000000   0.0000000   0.0000000   0.0000000
 NMagM=    0.0000000   0.0000000   0.0000000   0.0000000   0.0000000   0.0000000   0.0000000   0.0000000   0.0000000   0.0000000
 AtZNuc=   6.0000000   6.0000000   6.0000000   6.0000000   6.0000000   6.0000000   6.0000000   6.0000000   6.0000000   6.0000000

  Atom        51          52          53          54          55          56          57          58          59          60
 IAtWgt=          12          12          12          12          12          12          12          12          12          12
 AtmWgt=  12.0000000  12.0000000  12.0000000  12.0000000  12.0000000  12.0000000  12.0000000  12.0000000  12.0000000  12.0000000
 NucSpn=           0           0           0           0           0           0           0           0           0           0
 AtZEff=  -0.0000000  -0.0000000  -0.0000000  -0.0000000  -0.0000000  -0.0000000  -0.0000000  -0.0000000  -0.0000000  -0.0000000
 NQMom=    0.0000000   0.0000000   0.0000000   0.0000000   0.0000000   0.0000000   0.0000000   0.0000000   0.0000000   0.0000000
 NMagM=    0.0000000   0.0000000   0.0000000   0.0000000   0.0000000   0.0000000   0.0000000   0.0000000   0.0000000   0.0000000
 AtZNuc=   6.0000000   6.0000000   6.0000000   6.0000000   6.0000000   6.0000000   6.0000000   6.0000000   6.0000000   6.0000000

  Atom        61          62          63          64          65          66          67          68          69          70
 IAtWgt=          12          12          12          12          12          12          35          35          35          35
 AtmWgt=  12.0000000  12.0000000  12.0000000  12.0000000  12.0000000  12.0000000  34.9688527  34.9688527  34.9688527  34.9688527
 NucSpn=           0           0           0           0           0           0           3           3           3           3
 AtZEff=  -0.0000000  -0.0000000  -0.0000000  -0.0000000  -0.0000000  -0.0000000  -0.0000000  -0.0000000  -0.0000000  -0.0000000
 NQMom=    0.0000000   0.0000000   0.0000000   0.0000000   0.0000000   0.0000000  -8.1650000  -8.1650000  -8.1650000  -8.1650000
 NMagM=    0.0000000   0.0000000   0.0000000   0.0000000   0.0000000   0.0000000   0.8218740   0.8218740   0.8218740   0.8218740
 AtZNuc=   6.0000000   6.0000000   6.0000000   6.0000000   6.0000000   6.0000000  17.0000000  17.0000000  17.0000000  17.0000000

  Atom        71
 IAtWgt=          35
 AtmWgt=  34.9688527
 NucSpn=           3
 AtZEff=  -0.0000000
 NQMom=   -8.1650000
 NMagM=    0.8218740
 AtZNuc=  17.0000000
 Leave Link  101 at Sat Jul 16 09:06:02 2022, MaxMem=  1342177280 cpu:              12.9 elap:               0.3
 (Enter /home/mkliu/g16/l103.exe)

 GradGradGradGradGradGradGradGradGradGradGradGradGradGradGradGradGradGrad
 Berny optimization.
 Initialization pass.
                           ----------------------------
                           !    Initial Parameters    !
                           ! (Angstroms and Degrees)  !
 --------------------------                            --------------------------
 ! Name  Definition              Value          Derivative Info.                !
 --------------------------------------------------------------------------------
 ! R1    R(1,2)                  1.5506         estimate D2E/DX2                !
 ! R2    R(1,4)                  1.4822         estimate D2E/DX2                !
 ! R3    R(1,7)                  1.4968         estimate D2E/DX2                !
 ! R4    R(1,67)                 1.7969         estimate D2E/DX2                !
 ! R5    R(2,3)                  1.5654         estimate D2E/DX2                !
 ! R6    R(2,10)                 1.4798         estimate D2E/DX2                !
 ! R7    R(2,68)                 1.788          estimate D2E/DX2                !
 ! R8    R(3,5)                  1.4872         estimate D2E/DX2                !
 ! R9    R(3,12)                 1.5167         estimate D2E/DX2                !
 ! R10   R(3,69)                 1.7725         estimate D2E/DX2                !
 ! R11   R(4,5)                  1.3729         estimate D2E/DX2                !
 ! R12   R(4,6)                  1.3849         estimate D2E/DX2                !
 ! R13   R(5,15)                 1.3732         estimate D2E/DX2                !
 ! R14   R(6,8)                  1.4404         estimate D2E/DX2                !
 ! R15   R(6,17)                 1.4008         estimate D2E/DX2                !
 ! R16   R(7,8)                  1.43           estimate D2E/DX2                !
 ! R17   R(7,9)                  1.3941         estimate D2E/DX2                !
 ! R18   R(8,20)                 1.3921         estimate D2E/DX2                !
 ! R19   R(9,11)                 1.4594         estimate D2E/DX2                !
 ! R20   R(9,22)                 1.4095         estimate D2E/DX2                !
 ! R21   R(10,11)                1.3925         estimate D2E/DX2                !
 ! R22   R(10,13)                1.3981         estimate D2E/DX2                !
 ! R23   R(11,25)                1.404          estimate D2E/DX2                !
 ! R24   R(12,13)                1.418          estimate D2E/DX2                !
 ! R25   R(12,14)                1.3703         estimate D2E/DX2                !
 ! R26   R(13,27)                1.3996         estimate D2E/DX2                !
 ! R27   R(14,16)                1.5201         estimate D2E/DX2                !
 ! R28   R(14,29)                1.4517         estimate D2E/DX2                !
 ! R29   R(15,16)                1.5182         estimate D2E/DX2                !
 ! R30   R(15,18)                1.4015         estimate D2E/DX2                !
 ! R31   R(16,32)                1.493          estimate D2E/DX2                !
 ! R32   R(16,70)                1.8011         estimate D2E/DX2                !
 ! R33   R(17,18)                1.4169         estimate D2E/DX2                !
 ! R34   R(17,19)                1.4384         estimate D2E/DX2                !
 ! R35   R(18,33)                1.4242         estimate D2E/DX2                !
 ! R36   R(19,21)                1.4548         estimate D2E/DX2                !
 ! R37   R(19,35)                1.4018         estimate D2E/DX2                !
 ! R38   R(20,21)                1.4268         estimate D2E/DX2                !
 ! R39   R(20,23)                1.5032         estimate D2E/DX2                !
 ! R40   R(21,38)                1.4185         estimate D2E/DX2                !
 ! R41   R(22,23)                1.5132         estimate D2E/DX2                !
 ! R42   R(22,24)                1.4076         estimate D2E/DX2                !
 ! R43   R(23,40)                1.4963         estimate D2E/DX2                !
 ! R44   R(23,71)                1.8271         estimate D2E/DX2                !
 ! R45   R(24,26)                1.3926         estimate D2E/DX2                !
 ! R46   R(24,41)                1.4465         estimate D2E/DX2                !
 ! R47   R(25,26)                1.4207         estimate D2E/DX2                !
 ! R48   R(25,28)                1.4296         estimate D2E/DX2                !
 ! R49   R(26,44)                1.4318         estimate D2E/DX2                !
 ! R50   R(27,28)                1.3951         estimate D2E/DX2                !
 ! R51   R(27,30)                1.4375         estimate D2E/DX2                !
 ! R52   R(28,45)                1.4239         estimate D2E/DX2                !
 ! R53   R(29,30)                1.439          estimate D2E/DX2                !
 ! R54   R(29,31)                1.4037         estimate D2E/DX2                !
 ! R55   R(30,47)                1.4097         estimate D2E/DX2                !
 ! R56   R(31,34)                1.4608         estimate D2E/DX2                !
 ! R57   R(31,49)                1.4218         estimate D2E/DX2                !
 ! R58   R(32,33)                1.423          estimate D2E/DX2                !
 ! R59   R(32,34)                1.3597         estimate D2E/DX2                !
 ! R60   R(33,36)                1.378          estimate D2E/DX2                !
 ! R61   R(34,51)                1.4397         estimate D2E/DX2                !
 ! R62   R(35,36)                1.4401         estimate D2E/DX2                !
 ! R63   R(35,37)                1.4289         estimate D2E/DX2                !
 ! R64   R(36,52)                1.428          estimate D2E/DX2                !
 ! R65   R(37,39)                1.3824         estimate D2E/DX2                !
 ! R66   R(37,53)                1.4365         estimate D2E/DX2                !
 ! R67   R(38,39)                1.4185         estimate D2E/DX2                !
 ! R68   R(38,42)                1.4505         estimate D2E/DX2                !
 ! R69   R(39,57)                1.4448         estimate D2E/DX2                !
 ! R70   R(40,41)                1.416          estimate D2E/DX2                !
 ! R71   R(40,42)                1.3709         estimate D2E/DX2                !
 ! R72   R(41,43)                1.3903         estimate D2E/DX2                !
 ! R73   R(42,58)                1.4366         estimate D2E/DX2                !
 ! R74   R(43,46)                1.4352         estimate D2E/DX2                !
 ! R75   R(43,59)                1.4293         estimate D2E/DX2                !
 ! R76   R(44,45)                1.4387         estimate D2E/DX2                !
 ! R77   R(44,46)                1.3809         estimate D2E/DX2                !
 ! R78   R(45,48)                1.378          estimate D2E/DX2                !
 ! R79   R(46,61)                1.444          estimate D2E/DX2                !
 ! R80   R(47,48)                1.439          estimate D2E/DX2                !
 ! R81   R(47,50)                1.4256         estimate D2E/DX2                !
 ! R82   R(48,62)                1.4395         estimate D2E/DX2                !
 ! R83   R(49,50)                1.3839         estimate D2E/DX2                !
 ! R84   R(49,54)                1.444          estimate D2E/DX2                !
 ! R85   R(50,63)                1.4392         estimate D2E/DX2                !
 ! R86   R(51,52)                1.3871         estimate D2E/DX2                !
 ! R87   R(51,54)                1.4323         estimate D2E/DX2                !
 ! R88   R(52,53)                1.4371         estimate D2E/DX2                !
 ! R89   R(53,55)                1.3841         estimate D2E/DX2                !
 ! R90   R(54,56)                1.3868         estimate D2E/DX2                !
 ! R91   R(55,56)                1.4379         estimate D2E/DX2                !
 ! R92   R(55,60)                1.439          estimate D2E/DX2                !
 ! R93   R(56,64)                1.4405         estimate D2E/DX2                !
 ! R94   R(57,58)                1.434          estimate D2E/DX2                !
 ! R95   R(57,60)                1.3838         estimate D2E/DX2                !
 ! R96   R(58,59)                1.3877         estimate D2E/DX2                !
 ! R97   R(59,65)                1.4403         estimate D2E/DX2                !
 ! R98   R(60,66)                1.4399         estimate D2E/DX2                !
 ! R99   R(61,62)                1.3831         estimate D2E/DX2                !
 ! R100  R(61,65)                1.4406         estimate D2E/DX2                !
 ! R101  R(62,63)                1.4379         estimate D2E/DX2                !
 ! R102  R(63,64)                1.3822         estimate D2E/DX2                !
 ! R103  R(64,66)                1.4375         estimate D2E/DX2                !
 ! R104  R(65,66)                1.3851         estimate D2E/DX2                !
 ! A1    A(2,1,4)              100.8252         estimate D2E/DX2                !
 ! A2    A(2,1,7)              118.0721         estimate D2E/DX2                !
 ! A3    A(2,1,67)             112.1769         estimate D2E/DX2                !
 ! A4    A(4,1,7)               99.5534         estimate D2E/DX2                !
 ! A5    A(4,1,67)             115.5604         estimate D2E/DX2                !
 ! A6    A(7,1,67)             109.9426         estimate D2E/DX2                !
 ! A7    A(1,2,3)              108.8131         estimate D2E/DX2                !
 ! A8    A(1,2,10)             108.6559         estimate D2E/DX2                !
 ! A9    A(1,2,68)             112.9136         estimate D2E/DX2                !
 ! A10   A(3,2,10)             102.2684         estimate D2E/DX2                !
 ! A11   A(3,2,68)             114.9324         estimate D2E/DX2                !
 ! A12   A(10,2,68)            108.5869         estimate D2E/DX2                !
 ! A13   A(2,3,5)              102.9653         estimate D2E/DX2                !
 ! A14   A(2,3,12)             105.3515         estimate D2E/DX2                !
 ! A15   A(2,3,69)             117.5633         estimate D2E/DX2                !
 ! A16   A(5,3,12)             103.0958         estimate D2E/DX2                !
 ! A17   A(5,3,69)             113.6053         estimate D2E/DX2                !
 ! A18   A(12,3,69)            112.7593         estimate D2E/DX2                !
 ! A19   A(1,4,5)              115.3324         estimate D2E/DX2                !
 ! A20   A(1,4,6)              112.4788         estimate D2E/DX2                !
 ! A21   A(5,4,6)              122.125          estimate D2E/DX2                !
 ! A22   A(3,5,4)              110.6643         estimate D2E/DX2                !
 ! A23   A(3,5,15)             122.617          estimate D2E/DX2                !
 ! A24   A(4,5,15)             118.3903         estimate D2E/DX2                !
 ! A25   A(4,6,8)              107.9792         estimate D2E/DX2                !
 ! A26   A(4,6,17)             121.0668         estimate D2E/DX2                !
 ! A27   A(8,6,17)             121.4314         estimate D2E/DX2                !
 ! A28   A(1,7,8)              110.4309         estimate D2E/DX2                !
 ! A29   A(1,7,9)              123.2663         estimate D2E/DX2                !
 ! A30   A(8,7,9)              115.4618         estimate D2E/DX2                !
 ! A31   A(6,8,7)              106.4242         estimate D2E/DX2                !
 ! A32   A(6,8,20)             119.4195         estimate D2E/DX2                !
 ! A33   A(7,8,20)             125.8951         estimate D2E/DX2                !
 ! A34   A(7,9,11)             116.0568         estimate D2E/DX2                !
 ! A35   A(7,9,22)             117.0249         estimate D2E/DX2                !
 ! A36   A(11,9,22)            118.1527         estimate D2E/DX2                !
 ! A37   A(2,10,11)            125.172          estimate D2E/DX2                !
 ! A38   A(2,10,13)            112.3465         estimate D2E/DX2                !
 ! A39   A(11,10,13)           119.9284         estimate D2E/DX2                !
 ! A40   A(9,11,10)            118.4697         estimate D2E/DX2                !
 ! A41   A(9,11,25)            118.0036         estimate D2E/DX2                !
 ! A42   A(10,11,25)           114.8596         estimate D2E/DX2                !
 ! A43   A(3,12,13)            108.338          estimate D2E/DX2                !
 ! A44   A(3,12,14)            126.1591         estimate D2E/DX2                !
 ! A45   A(13,12,14)           119.6084         estimate D2E/DX2                !
 ! A46   A(10,13,12)           108.3088         estimate D2E/DX2                !
 ! A47   A(10,13,27)           124.3934         estimate D2E/DX2                !
 ! A48   A(12,13,27)           121.1992         estimate D2E/DX2                !
 ! A49   A(12,14,16)           118.4518         estimate D2E/DX2                !
 ! A50   A(12,14,29)           119.964          estimate D2E/DX2                !
 ! A51   A(16,14,29)           119.5688         estimate D2E/DX2                !
 ! A52   A(5,15,16)            122.564          estimate D2E/DX2                !
 ! A53   A(5,15,18)            119.365          estimate D2E/DX2                !
 ! A54   A(16,15,18)           110.6739         estimate D2E/DX2                !
 ! A55   A(14,16,15)           105.4624         estimate D2E/DX2                !
 ! A56   A(14,16,32)           112.2639         estimate D2E/DX2                !
 ! A57   A(14,16,70)           109.3595         estimate D2E/DX2                !
 ! A58   A(15,16,32)           100.7986         estimate D2E/DX2                !
 ! A59   A(15,16,70)           114.619          estimate D2E/DX2                !
 ! A60   A(32,16,70)           113.877          estimate D2E/DX2                !
 ! A61   A(6,17,18)            114.8691         estimate D2E/DX2                !
 ! A62   A(6,17,19)            118.9686         estimate D2E/DX2                !
 ! A63   A(18,17,19)           120.3325         estimate D2E/DX2                !
 ! A64   A(15,18,17)           122.5969         estimate D2E/DX2                !
 ! A65   A(15,18,33)           108.6495         estimate D2E/DX2                !
 ! A66   A(17,18,33)           120.8149         estimate D2E/DX2                !
 ! A67   A(17,19,21)           118.7958         estimate D2E/DX2                !
 ! A68   A(17,19,35)           116.5401         estimate D2E/DX2                !
 ! A69   A(21,19,35)           119.7774         estimate D2E/DX2                !
 ! A70   A(8,20,21)            120.4509         estimate D2E/DX2                !
 ! A71   A(8,20,23)            114.8153         estimate D2E/DX2                !
 ! A72   A(21,20,23)           122.4122         estimate D2E/DX2                !
 ! A73   A(19,21,20)           119.8962         estimate D2E/DX2                !
 ! A74   A(19,21,38)           117.3942         estimate D2E/DX2                !
 ! A75   A(20,21,38)           118.5796         estimate D2E/DX2                !
 ! A76   A(9,22,23)            124.1472         estimate D2E/DX2                !
 ! A77   A(9,22,24)            121.1929         estimate D2E/DX2                !
 ! A78   A(23,22,24)           109.236          estimate D2E/DX2                !
 ! A79   A(20,23,22)           108.9927         estimate D2E/DX2                !
 ! A80   A(20,23,40)           112.6773         estimate D2E/DX2                !
 ! A81   A(20,23,71)           108.2991         estimate D2E/DX2                !
 ! A82   A(22,23,40)           101.5797         estimate D2E/DX2                !
 ! A83   A(22,23,71)           112.7383         estimate D2E/DX2                !
 ! A84   A(40,23,71)           112.4702         estimate D2E/DX2                !
 ! A85   A(22,24,26)           120.9973         estimate D2E/DX2                !
 ! A86   A(22,24,41)           110.231          estimate D2E/DX2                !
 ! A87   A(26,24,41)           118.987          estimate D2E/DX2                !
 ! A88   A(11,25,26)           122.431          estimate D2E/DX2                !
 ! A89   A(11,25,28)           122.5831         estimate D2E/DX2                !
 ! A90   A(26,25,28)           106.971          estimate D2E/DX2                !
 ! A91   A(24,26,25)           117.9078         estimate D2E/DX2                !
 ! A92   A(24,26,44)           120.1703         estimate D2E/DX2                !
 ! A93   A(25,26,44)           109.2036         estimate D2E/DX2                !
 ! A94   A(13,27,28)           114.162          estimate D2E/DX2                !
 ! A95   A(13,27,30)           119.0781         estimate D2E/DX2                !
 ! A96   A(28,27,30)           121.3261         estimate D2E/DX2                !
 ! A97   A(25,28,27)           120.1386         estimate D2E/DX2                !
 ! A98   A(25,28,45)           108.9417         estimate D2E/DX2                !
 ! A99   A(27,28,45)           120.8549         estimate D2E/DX2                !
 ! A100  A(14,29,30)           118.8328         estimate D2E/DX2                !
 ! A101  A(14,29,31)           119.3025         estimate D2E/DX2                !
 ! A102  A(30,29,31)           117.6466         estimate D2E/DX2                !
 ! A103  A(27,30,29)           119.0343         estimate D2E/DX2                !
 ! A104  A(27,30,47)           116.2376         estimate D2E/DX2                !
 ! A105  A(29,30,47)           119.8415         estimate D2E/DX2                !
 ! A106  A(29,31,34)           120.5076         estimate D2E/DX2                !
 ! A107  A(29,31,49)           121.7697         estimate D2E/DX2                !
 ! A108  A(34,31,49)           106.7914         estimate D2E/DX2                !
 ! A109  A(16,32,33)           111.0418         estimate D2E/DX2                !
 ! A110  A(16,32,34)           121.7105         estimate D2E/DX2                !
 ! A111  A(33,32,34)           117.6179         estimate D2E/DX2                !
 ! A112  A(18,33,32)           107.7411         estimate D2E/DX2                !
 ! A113  A(18,33,36)           118.9458         estimate D2E/DX2                !
 ! A114  A(32,33,36)           122.4932         estimate D2E/DX2                !
 ! A115  A(31,34,32)           119.5675         estimate D2E/DX2                !
 ! A116  A(31,34,51)           107.8377         estimate D2E/DX2                !
 ! A117  A(32,34,51)           120.4668         estimate D2E/DX2                !
 ! A118  A(19,35,36)           121.9753         estimate D2E/DX2                !
 ! A119  A(19,35,37)           121.3027         estimate D2E/DX2                !
 ! A120  A(36,35,37)           107.0515         estimate D2E/DX2                !
 ! A121  A(33,36,35)           120.0412         estimate D2E/DX2                !
 ! A122  A(33,36,52)           119.2552         estimate D2E/DX2                !
 ! A123  A(35,36,52)           109.016          estimate D2E/DX2                !
 ! A124  A(35,37,39)           119.0256         estimate D2E/DX2                !
 ! A125  A(35,37,53)           108.103          estimate D2E/DX2                !
 ! A126  A(39,37,53)           121.268          estimate D2E/DX2                !
 ! A127  A(21,38,39)           121.2682         estimate D2E/DX2                !
 ! A128  A(21,38,42)           120.2114         estimate D2E/DX2                !
 ! A129  A(39,38,42)           107.6043         estimate D2E/DX2                !
 ! A130  A(37,39,38)           120.9307         estimate D2E/DX2                !
 ! A131  A(37,39,57)           119.2893         estimate D2E/DX2                !
 ! A132  A(38,39,57)           108.9351         estimate D2E/DX2                !
 ! A133  A(23,40,41)           111.5498         estimate D2E/DX2                !
 ! A134  A(23,40,42)           121.4733         estimate D2E/DX2                !
 ! A135  A(41,40,42)           119.3209         estimate D2E/DX2                !
 ! A136  A(24,41,40)           106.26           estimate D2E/DX2                !
 ! A137  A(24,41,43)           120.1932         estimate D2E/DX2                !
 ! A138  A(40,41,43)           121.1987         estimate D2E/DX2                !
 ! A139  A(38,42,40)           120.9057         estimate D2E/DX2                !
 ! A140  A(38,42,58)           107.5428         estimate D2E/DX2                !
 ! A141  A(40,42,58)           120.1749         estimate D2E/DX2                !
 ! A142  A(41,43,46)           120.3385         estimate D2E/DX2                !
 ! A143  A(41,43,59)           119.7023         estimate D2E/DX2                !
 ! A144  A(46,43,59)           107.6453         estimate D2E/DX2                !
 ! A145  A(26,44,45)           107.0672         estimate D2E/DX2                !
 ! A146  A(26,44,46)           120.9761         estimate D2E/DX2                !
 ! A147  A(45,44,46)           118.8831         estimate D2E/DX2                !
 ! A148  A(28,45,44)           107.656          estimate D2E/DX2                !
 ! A149  A(28,45,48)           119.0041         estimate D2E/DX2                !
 ! A150  A(44,45,48)           121.7182         estimate D2E/DX2                !
 ! A151  A(43,46,44)           119.3067         estimate D2E/DX2                !
 ! A152  A(43,46,61)           108.7773         estimate D2E/DX2                !
 ! A153  A(44,46,61)           119.7253         estimate D2E/DX2                !
 ! A154  A(30,47,48)           121.7109         estimate D2E/DX2                !
 ! A155  A(30,47,50)           121.0866         estimate D2E/DX2                !
 ! A156  A(48,47,50)           107.2326         estimate D2E/DX2                !
 ! A157  A(45,48,47)           120.2496         estimate D2E/DX2                !
 ! A158  A(45,48,62)           119.2454         estimate D2E/DX2                !
 ! A159  A(47,48,62)           108.766          estimate D2E/DX2                !
 ! A160  A(31,49,50)           120.4629         estimate D2E/DX2                !
 ! A161  A(31,49,54)           109.1281         estimate D2E/DX2                !
 ! A162  A(50,49,54)           119.4167         estimate D2E/DX2                !
 ! A163  A(47,50,49)           118.8198         estimate D2E/DX2                !
 ! A164  A(47,50,63)           108.5746         estimate D2E/DX2                !
 ! A165  A(49,50,63)           121.0404         estimate D2E/DX2                !
 ! A166  A(34,51,52)           120.6874         estimate D2E/DX2                !
 ! A167  A(34,51,54)           107.8772         estimate D2E/DX2                !
 ! A168  A(52,51,54)           119.1263         estimate D2E/DX2                !
 ! A169  A(36,52,51)           118.16           estimate D2E/DX2                !
 ! A170  A(36,52,53)           106.9199         estimate D2E/DX2                !
 ! A171  A(51,52,53)           120.8482         estimate D2E/DX2                !
 ! A172  A(37,53,52)           108.4134         estimate D2E/DX2                !
 ! A173  A(37,53,55)           119.3134         estimate D2E/DX2                !
 ! A174  A(52,53,55)           119.5984         estimate D2E/DX2                !
 ! A175  A(49,54,51)           107.6403         estimate D2E/DX2                !
 ! A176  A(49,54,56)           119.3081         estimate D2E/DX2                !
 ! A177  A(51,54,56)           120.3031         estimate D2E/DX2                !
 ! A178  A(53,55,56)           119.7027         estimate D2E/DX2                !
 ! A179  A(53,55,60)           119.5439         estimate D2E/DX2                !
 ! A180  A(56,55,60)           108.3947         estimate D2E/DX2                !
 ! A181  A(54,56,55)           120.197          estimate D2E/DX2                !
 ! A182  A(54,56,64)           120.8317         estimate D2E/DX2                !
 ! A183  A(55,56,64)           107.4476         estimate D2E/DX2                !
 ! A184  A(39,57,58)           107.1589         estimate D2E/DX2                !
 ! A185  A(39,57,60)           119.2221         estimate D2E/DX2                !
 ! A186  A(58,57,60)           120.5712         estimate D2E/DX2                !
 ! A187  A(42,58,57)           108.4562         estimate D2E/DX2                !
 ! A188  A(42,58,59)           120.5186         estimate D2E/DX2                !
 ! A189  A(57,58,59)           119.4803         estimate D2E/DX2                !
 ! A190  A(43,59,58)           118.8752         estimate D2E/DX2                !
 ! A191  A(43,59,65)           108.3797         estimate D2E/DX2                !
 ! A192  A(58,59,65)           120.228          estimate D2E/DX2                !
 ! A193  A(55,60,57)           121.0393         estimate D2E/DX2                !
 ! A194  A(55,60,66)           107.8672         estimate D2E/DX2                !
 ! A195  A(57,60,66)           119.8368         estimate D2E/DX2                !
 ! A196  A(46,61,62)           120.8659         estimate D2E/DX2                !
 ! A197  A(46,61,65)           106.9905         estimate D2E/DX2                !
 ! A198  A(62,61,65)           119.655          estimate D2E/DX2                !
 ! A199  A(48,62,61)           119.3671         estimate D2E/DX2                !
 ! A200  A(48,62,63)           107.0893         estimate D2E/DX2                !
 ! A201  A(61,62,63)           120.493          estimate D2E/DX2                !
 ! A202  A(50,63,62)           108.0235         estimate D2E/DX2                !
 ! A203  A(50,63,64)           119.4446         estimate D2E/DX2                !
 ! A204  A(62,63,64)           119.8369         estimate D2E/DX2                !
 ! A205  A(56,64,63)           119.665          estimate D2E/DX2                !
 ! A206  A(56,64,66)           108.4688         estimate D2E/DX2                !
 ! A207  A(63,64,66)           119.7984         estimate D2E/DX2                !
 ! A208  A(59,65,61)           108.173          estimate D2E/DX2                !
 ! A209  A(59,65,66)           119.8858         estimate D2E/DX2                !
 ! A210  A(61,65,66)           119.7426         estimate D2E/DX2                !
 ! A211  A(60,66,64)           107.7441         estimate D2E/DX2                !
 ! A212  A(60,66,65)           119.9145         estimate D2E/DX2                !
 ! A213  A(64,66,65)           120.4049         estimate D2E/DX2                !
 ! D1    D(4,1,2,3)             11.7303         estimate D2E/DX2                !
 ! D2    D(4,1,2,10)           -98.8766         estimate D2E/DX2                !
 ! D3    D(4,1,2,68)           140.596          estimate D2E/DX2                !
 ! D4    D(7,1,2,3)            118.797          estimate D2E/DX2                !
 ! D5    D(7,1,2,10)             8.19           estimate D2E/DX2                !
 ! D6    D(7,1,2,68)          -112.3374         estimate D2E/DX2                !
 ! D7    D(67,1,2,3)          -111.7957         estimate D2E/DX2                !
 ! D8    D(67,1,2,10)          137.5973         estimate D2E/DX2                !
 ! D9    D(67,1,2,68)           17.07           estimate D2E/DX2                !
 ! D10   D(2,1,4,5)             -9.656          estimate D2E/DX2                !
 ! D11   D(2,1,4,6)            136.7108         estimate D2E/DX2                !
 ! D12   D(7,1,4,5)           -130.8561         estimate D2E/DX2                !
 ! D13   D(7,1,4,6)             15.5107         estimate D2E/DX2                !
 ! D14   D(67,1,4,5)           111.5054         estimate D2E/DX2                !
 ! D15   D(67,1,4,6)          -102.1278         estimate D2E/DX2                !
 ! D16   D(2,1,7,8)           -125.3933         estimate D2E/DX2                !
 ! D17   D(2,1,7,9)             17.079          estimate D2E/DX2                !
 ! D18   D(4,1,7,8)            -17.5986         estimate D2E/DX2                !
 ! D19   D(4,1,7,9)            124.8737         estimate D2E/DX2                !
 ! D20   D(67,1,7,8)           104.1711         estimate D2E/DX2                !
 ! D21   D(67,1,7,9)          -113.3566         estimate D2E/DX2                !
 ! D22   D(1,2,3,5)            -10.1823         estimate D2E/DX2                !
 ! D23   D(1,2,3,12)          -117.8994         estimate D2E/DX2                !
 ! D24   D(1,2,3,69)           115.5283         estimate D2E/DX2                !
 ! D25   D(10,2,3,5)           104.6471         estimate D2E/DX2                !
 ! D26   D(10,2,3,12)           -3.0699         estimate D2E/DX2                !
 ! D27   D(10,2,3,69)         -129.6422         estimate D2E/DX2                !
 ! D28   D(68,2,3,5)          -137.9138         estimate D2E/DX2                !
 ! D29   D(68,2,3,12)          114.3691         estimate D2E/DX2                !
 ! D30   D(68,2,3,69)          -12.2032         estimate D2E/DX2                !
 ! D31   D(1,2,10,11)          -33.0044         estimate D2E/DX2                !
 ! D32   D(1,2,10,13)          128.7263         estimate D2E/DX2                !
 ! D33   D(3,2,10,11)         -147.9488         estimate D2E/DX2                !
 ! D34   D(3,2,10,13)           13.7819         estimate D2E/DX2                !
 ! D35   D(68,2,10,11)          90.1627         estimate D2E/DX2                !
 ! D36   D(68,2,10,13)        -108.1066         estimate D2E/DX2                !
 ! D37   D(2,3,5,4)              4.2861         estimate D2E/DX2                !
 ! D38   D(2,3,5,15)          -143.3511         estimate D2E/DX2                !
 ! D39   D(12,3,5,4)           113.7054         estimate D2E/DX2                !
 ! D40   D(12,3,5,15)          -33.9318         estimate D2E/DX2                !
 ! D41   D(69,3,5,4)          -123.9427         estimate D2E/DX2                !
 ! D42   D(69,3,5,15)           88.4201         estimate D2E/DX2                !
 ! D43   D(2,3,12,13)           -8.0317         estimate D2E/DX2                !
 ! D44   D(2,3,12,14)          144.4553         estimate D2E/DX2                !
 ! D45   D(5,3,12,13)         -115.6539         estimate D2E/DX2                !
 ! D46   D(5,3,12,14)           36.833          estimate D2E/DX2                !
 ! D47   D(69,3,12,13)         121.4285         estimate D2E/DX2                !
 ! D48   D(69,3,12,14)         -86.0846         estimate D2E/DX2                !
 ! D49   D(1,4,5,3)              3.599          estimate D2E/DX2                !
 ! D50   D(1,4,5,15)           152.7686         estimate D2E/DX2                !
 ! D51   D(6,4,5,3)           -139.2212         estimate D2E/DX2                !
 ! D52   D(6,4,5,15)             9.9484         estimate D2E/DX2                !
 ! D53   D(1,4,6,8)             -8.0832         estimate D2E/DX2                !
 ! D54   D(1,4,6,17)          -154.7574         estimate D2E/DX2                !
 ! D55   D(5,4,6,8)            135.6802         estimate D2E/DX2                !
 ! D56   D(5,4,6,17)           -10.994          estimate D2E/DX2                !
 ! D57   D(3,5,15,16)           -1.0805         estimate D2E/DX2                !
 ! D58   D(3,5,15,18)          146.0601         estimate D2E/DX2                !
 ! D59   D(4,5,15,16)         -146.3783         estimate D2E/DX2                !
 ! D60   D(4,5,15,18)            0.7624         estimate D2E/DX2                !
 ! D61   D(4,6,8,7)             -3.7403         estimate D2E/DX2                !
 ! D62   D(4,6,8,20)          -153.9635         estimate D2E/DX2                !
 ! D63   D(17,6,8,7)           142.788          estimate D2E/DX2                !
 ! D64   D(17,6,8,20)           -7.4351         estimate D2E/DX2                !
 ! D65   D(4,6,17,18)            1.0523         estimate D2E/DX2                !
 ! D66   D(4,6,17,19)          154.2848         estimate D2E/DX2                !
 ! D67   D(8,6,17,18)         -141.1818         estimate D2E/DX2                !
 ! D68   D(8,6,17,19)           12.0507         estimate D2E/DX2                !
 ! D69   D(1,7,8,6)             14.0524         estimate D2E/DX2                !
 ! D70   D(1,7,8,20)           161.7769         estimate D2E/DX2                !
 ! D71   D(9,7,8,6)           -131.6067         estimate D2E/DX2                !
 ! D72   D(9,7,8,20)            16.1178         estimate D2E/DX2                !
 ! D73   D(1,7,9,11)           -20.3395         estimate D2E/DX2                !
 ! D74   D(1,7,9,22)          -167.3729         estimate D2E/DX2                !
 ! D75   D(8,7,9,11)           120.4454         estimate D2E/DX2                !
 ! D76   D(8,7,9,22)           -26.588          estimate D2E/DX2                !
 ! D77   D(6,8,20,21)           -1.6146         estimate D2E/DX2                !
 ! D78   D(6,8,20,23)          161.4939         estimate D2E/DX2                !
 ! D79   D(7,8,20,21)         -145.5973         estimate D2E/DX2                !
 ! D80   D(7,8,20,23)           17.5112         estimate D2E/DX2                !
 ! D81   D(7,9,11,10)           -2.8749         estimate D2E/DX2                !
 ! D82   D(7,9,11,25)         -148.9757         estimate D2E/DX2                !
 ! D83   D(22,9,11,10)         143.7735         estimate D2E/DX2                !
 ! D84   D(22,9,11,25)          -2.3273         estimate D2E/DX2                !
 ! D85   D(7,9,22,23)            4.7764         estimate D2E/DX2                !
 ! D86   D(7,9,22,24)          155.9425         estimate D2E/DX2                !
 ! D87   D(11,9,22,23)        -141.5518         estimate D2E/DX2                !
 ! D88   D(11,9,22,24)           9.6143         estimate D2E/DX2                !
 ! D89   D(2,10,11,9)           32.1629         estimate D2E/DX2                !
 ! D90   D(2,10,11,25)         179.2938         estimate D2E/DX2                !
 ! D91   D(13,10,11,9)        -128.2917         estimate D2E/DX2                !
 ! D92   D(13,10,11,25)         18.8392         estimate D2E/DX2                !
 ! D93   D(2,10,13,12)         -19.7872         estimate D2E/DX2                !
 ! D94   D(2,10,13,27)        -172.3782         estimate D2E/DX2                !
 ! D95   D(11,10,13,12)        143.0146         estimate D2E/DX2                !
 ! D96   D(11,10,13,27)         -9.5765         estimate D2E/DX2                !
 ! D97   D(9,11,25,26)          -8.2052         estimate D2E/DX2                !
 ! D98   D(9,11,25,28)         136.5302         estimate D2E/DX2                !
 ! D99   D(10,11,25,26)       -155.4974         estimate D2E/DX2                !
 ! D100  D(10,11,25,28)        -10.7619         estimate D2E/DX2                !
 ! D101  D(3,12,13,10)          16.7879         estimate D2E/DX2                !
 ! D102  D(3,12,13,27)         170.4228         estimate D2E/DX2                !
 ! D103  D(14,12,13,10)       -137.8088         estimate D2E/DX2                !
 ! D104  D(14,12,13,27)         15.8261         estimate D2E/DX2                !
 ! D105  D(3,12,14,16)          -2.7443         estimate D2E/DX2                !
 ! D106  D(3,12,14,29)        -166.5342         estimate D2E/DX2                !
 ! D107  D(13,12,14,16)        146.9676         estimate D2E/DX2                !
 ! D108  D(13,12,14,29)        -16.8223         estimate D2E/DX2                !
 ! D109  D(10,13,27,28)         -8.9836         estimate D2E/DX2                !
 ! D110  D(10,13,27,30)        145.3705         estimate D2E/DX2                !
 ! D111  D(12,13,27,28)       -158.2578         estimate D2E/DX2                !
 ! D112  D(12,13,27,30)         -3.9037         estimate D2E/DX2                !
 ! D113  D(12,14,16,15)        -33.4325         estimate D2E/DX2                !
 ! D114  D(12,14,16,32)       -142.295          estimate D2E/DX2                !
 ! D115  D(12,14,16,70)         90.3004         estimate D2E/DX2                !
 ! D116  D(29,14,16,15)        130.423          estimate D2E/DX2                !
 ! D117  D(29,14,16,32)         21.5604         estimate D2E/DX2                !
 ! D118  D(29,14,16,70)       -105.8441         estimate D2E/DX2                !
 ! D119  D(12,14,29,30)          6.414          estimate D2E/DX2                !
 ! D120  D(12,14,29,31)        162.813          estimate D2E/DX2                !
 ! D121  D(16,14,29,30)       -157.1948         estimate D2E/DX2                !
 ! D122  D(16,14,29,31)         -0.7957         estimate D2E/DX2                !
 ! D123  D(5,15,16,14)          36.3605         estimate D2E/DX2                !
 ! D124  D(5,15,16,32)         153.2934         estimate D2E/DX2                !
 ! D125  D(5,15,16,70)         -83.9769         estimate D2E/DX2                !
 ! D126  D(18,15,16,14)       -113.2809         estimate D2E/DX2                !
 ! D127  D(18,15,16,32)          3.6521         estimate D2E/DX2                !
 ! D128  D(18,15,16,70)        126.3817         estimate D2E/DX2                !
 ! D129  D(5,15,18,17)         -10.8149         estimate D2E/DX2                !
 ! D130  D(5,15,18,33)        -159.8581         estimate D2E/DX2                !
 ! D131  D(16,15,18,17)        139.9264         estimate D2E/DX2                !
 ! D132  D(16,15,18,33)         -9.1168         estimate D2E/DX2                !
 ! D133  D(14,16,32,33)        114.9399         estimate D2E/DX2                !
 ! D134  D(14,16,32,34)        -30.3            estimate D2E/DX2                !
 ! D135  D(15,16,32,33)          3.1403         estimate D2E/DX2                !
 ! D136  D(15,16,32,34)       -142.0996         estimate D2E/DX2                !
 ! D137  D(70,16,32,33)       -120.1043         estimate D2E/DX2                !
 ! D138  D(70,16,32,34)         94.6558         estimate D2E/DX2                !
 ! D139  D(6,17,18,15)           9.6454         estimate D2E/DX2                !
 ! D140  D(6,17,18,33)         155.0695         estimate D2E/DX2                !
 ! D141  D(19,17,18,15)       -143.1921         estimate D2E/DX2                !
 ! D142  D(19,17,18,33)          2.232          estimate D2E/DX2                !
 ! D143  D(6,17,19,21)          -7.7225         estimate D2E/DX2                !
 ! D144  D(6,17,19,35)        -162.9518         estimate D2E/DX2                !
 ! D145  D(18,17,19,21)        144.0214         estimate D2E/DX2                !
 ! D146  D(18,17,19,35)        -11.208          estimate D2E/DX2                !
 ! D147  D(15,18,33,32)         10.895          estimate D2E/DX2                !
 ! D148  D(15,18,33,36)        156.1287         estimate D2E/DX2                !
 ! D149  D(17,18,33,32)       -138.8001         estimate D2E/DX2                !
 ! D150  D(17,18,33,36)          6.4336         estimate D2E/DX2                !
 ! D151  D(17,19,21,20)         -0.97           estimate D2E/DX2                !
 ! D152  D(17,19,21,38)       -157.8157         estimate D2E/DX2                !
 ! D153  D(35,19,21,20)        153.4445         estimate D2E/DX2                !
 ! D154  D(35,19,21,38)         -3.4012         estimate D2E/DX2                !
 ! D155  D(17,19,35,36)         12.1026         estimate D2E/DX2                !
 ! D156  D(17,19,35,37)        153.747          estimate D2E/DX2                !
 ! D157  D(21,19,35,36)       -142.8712         estimate D2E/DX2                !
 ! D158  D(21,19,35,37)         -1.2268         estimate D2E/DX2                !
 ! D159  D(8,20,21,19)           5.6587         estimate D2E/DX2                !
 ! D160  D(8,20,21,38)         162.2332         estimate D2E/DX2                !
 ! D161  D(23,20,21,19)       -156.1374         estimate D2E/DX2                !
 ! D162  D(23,20,21,38)          0.4371         estimate D2E/DX2                !
 ! D163  D(8,20,23,22)         -35.6823         estimate D2E/DX2                !
 ! D164  D(8,20,23,40)        -147.638          estimate D2E/DX2                !
 ! D165  D(8,20,23,71)          87.2995         estimate D2E/DX2                !
 ! D166  D(21,20,23,22)        127.0579         estimate D2E/DX2                !
 ! D167  D(21,20,23,40)         15.1022         estimate D2E/DX2                !
 ! D168  D(21,20,23,71)       -109.9603         estimate D2E/DX2                !
 ! D169  D(19,21,38,39)          6.3634         estimate D2E/DX2                !
 ! D170  D(19,21,38,42)        146.0964         estimate D2E/DX2                !
 ! D171  D(20,21,38,39)       -150.7951         estimate D2E/DX2                !
 ! D172  D(20,21,38,42)        -11.0621         estimate D2E/DX2                !
 ! D173  D(9,22,23,20)          26.8105         estimate D2E/DX2                !
 ! D174  D(9,22,23,40)         145.9366         estimate D2E/DX2                !
 ! D175  D(9,22,23,71)         -93.4733         estimate D2E/DX2                !
 ! D176  D(24,22,23,20)       -127.2804         estimate D2E/DX2                !
 ! D177  D(24,22,23,40)         -8.1544         estimate D2E/DX2                !
 ! D178  D(24,22,23,71)        112.4358         estimate D2E/DX2                !
 ! D179  D(9,22,24,26)          -6.5793         estimate D2E/DX2                !
 ! D180  D(9,22,24,41)        -152.0604         estimate D2E/DX2                !
 ! D181  D(23,22,24,26)        148.4137         estimate D2E/DX2                !
 ! D182  D(23,22,24,41)          2.9326         estimate D2E/DX2                !
 ! D183  D(20,23,40,41)        127.4126         estimate D2E/DX2                !
 ! D184  D(20,23,40,42)        -21.8            estimate D2E/DX2                !
 ! D185  D(22,23,40,41)         10.9469         estimate D2E/DX2                !
 ! D186  D(22,23,40,42)       -138.2657         estimate D2E/DX2                !
 ! D187  D(71,23,40,41)       -109.8314         estimate D2E/DX2                !
 ! D188  D(71,23,40,42)        100.956          estimate D2E/DX2                !
 ! D189  D(22,24,26,25)         -3.8595         estimate D2E/DX2                !
 ! D190  D(22,24,26,44)       -141.4574         estimate D2E/DX2                !
 ! D191  D(41,24,26,25)        138.7051         estimate D2E/DX2                !
 ! D192  D(41,24,26,44)          1.1072         estimate D2E/DX2                !
 ! D193  D(22,24,41,40)          4.0323         estimate D2E/DX2                !
 ! D194  D(22,24,41,43)        146.5922         estimate D2E/DX2                !
 ! D195  D(26,24,41,40)       -142.2352         estimate D2E/DX2                !
 ! D196  D(26,24,41,43)          0.3247         estimate D2E/DX2                !
 ! D197  D(11,25,26,24)         11.3817         estimate D2E/DX2                !
 ! D198  D(11,25,26,44)        153.2601         estimate D2E/DX2                !
 ! D199  D(28,25,26,24)       -138.0454         estimate D2E/DX2                !
 ! D200  D(28,25,26,44)          3.833          estimate D2E/DX2                !
 ! D201  D(11,25,28,27)         -7.6985         estimate D2E/DX2                !
 ! D202  D(11,25,28,45)       -153.4126         estimate D2E/DX2                !
 ! D203  D(26,25,28,27)        141.6713         estimate D2E/DX2                !
 ! D204  D(26,25,28,45)         -4.0428         estimate D2E/DX2                !
 ! D205  D(24,26,44,45)        138.6898         estimate D2E/DX2                !
 ! D206  D(24,26,44,46)         -1.9906         estimate D2E/DX2                !
 ! D207  D(25,26,44,45)         -2.1848         estimate D2E/DX2                !
 ! D208  D(25,26,44,46)       -142.8652         estimate D2E/DX2                !
 ! D209  D(13,27,28,25)         16.9943         estimate D2E/DX2                !
 ! D210  D(13,27,28,45)        158.6299         estimate D2E/DX2                !
 ! D211  D(30,27,28,25)       -136.7225         estimate D2E/DX2                !
 ! D212  D(30,27,28,45)          4.9131         estimate D2E/DX2                !
 ! D213  D(13,27,30,29)         -6.4226         estimate D2E/DX2                !
 ! D214  D(13,27,30,47)       -161.6651         estimate D2E/DX2                !
 ! D215  D(28,27,30,29)        146.043          estimate D2E/DX2                !
 ! D216  D(28,27,30,47)         -9.1995         estimate D2E/DX2                !
 ! D217  D(25,28,45,44)          2.7242         estimate D2E/DX2                !
 ! D218  D(25,28,45,48)        146.5585         estimate D2E/DX2                !
 ! D219  D(27,28,45,44)       -142.7007         estimate D2E/DX2                !
 ! D220  D(27,28,45,48)          1.1335         estimate D2E/DX2                !
 ! D221  D(14,29,30,27)          5.2768         estimate D2E/DX2                !
 ! D222  D(14,29,30,47)        159.6155         estimate D2E/DX2                !
 ! D223  D(31,29,30,27)       -151.5111         estimate D2E/DX2                !
 ! D224  D(31,29,30,47)          2.8276         estimate D2E/DX2                !
 ! D225  D(14,29,31,34)        -14.3928         estimate D2E/DX2                !
 ! D226  D(14,29,31,49)       -153.7956         estimate D2E/DX2                !
 ! D227  D(30,29,31,34)        142.2828         estimate D2E/DX2                !
 ! D228  D(30,29,31,49)          2.88           estimate D2E/DX2                !
 ! D229  D(27,30,47,48)          7.8873         estimate D2E/DX2                !
 ! D230  D(27,30,47,50)        149.0716         estimate D2E/DX2                !
 ! D231  D(29,30,47,48)       -147.1442         estimate D2E/DX2                !
 ! D232  D(29,30,47,50)         -5.9598         estimate D2E/DX2                !
 ! D233  D(29,31,34,32)          6.5715         estimate D2E/DX2                !
 ! D234  D(29,31,34,51)       -136.0793         estimate D2E/DX2                !
 ! D235  D(49,31,34,32)        151.2701         estimate D2E/DX2                !
 ! D236  D(49,31,34,51)          8.6192         estimate D2E/DX2                !
 ! D237  D(29,31,49,50)         -5.6418         estimate D2E/DX2                !
 ! D238  D(29,31,49,54)        138.1729         estimate D2E/DX2                !
 ! D239  D(34,31,49,50)       -149.795          estimate D2E/DX2                !
 ! D240  D(34,31,49,54)         -5.9803         estimate D2E/DX2                !
 ! D241  D(16,32,33,18)         -8.6984         estimate D2E/DX2                !
 ! D242  D(16,32,33,36)       -152.4272         estimate D2E/DX2                !
 ! D243  D(34,32,33,18)        138.1128         estimate D2E/DX2                !
 ! D244  D(34,32,33,36)         -5.616          estimate D2E/DX2                !
 ! D245  D(16,32,34,31)         17.2382         estimate D2E/DX2                !
 ! D246  D(16,32,34,51)        155.1696         estimate D2E/DX2                !
 ! D247  D(33,32,34,31)       -125.8524         estimate D2E/DX2                !
 ! D248  D(33,32,34,51)         12.079          estimate D2E/DX2                !
 ! D249  D(18,33,36,35)         -5.7033         estimate D2E/DX2                !
 ! D250  D(18,33,36,52)       -144.7601         estimate D2E/DX2                !
 ! D251  D(32,33,36,35)        134.2125         estimate D2E/DX2                !
 ! D252  D(32,33,36,52)         -4.8443         estimate D2E/DX2                !
 ! D253  D(31,34,51,52)        133.8092         estimate D2E/DX2                !
 ! D254  D(31,34,51,54)         -8.0161         estimate D2E/DX2                !
 ! D255  D(32,34,51,52)         -8.4423         estimate D2E/DX2                !
 ! D256  D(32,34,51,54)       -150.2676         estimate D2E/DX2                !
 ! D257  D(19,35,36,33)         -3.8154         estimate D2E/DX2                !
 ! D258  D(19,35,36,52)        138.9753         estimate D2E/DX2                !
 ! D259  D(37,35,36,33)       -150.1329         estimate D2E/DX2                !
 ! D260  D(37,35,36,52)         -7.3422         estimate D2E/DX2                !
 ! D261  D(19,35,37,39)          3.0398         estimate D2E/DX2                !
 ! D262  D(19,35,37,53)       -140.6581         estimate D2E/DX2                !
 ! D263  D(36,35,37,39)        149.6321         estimate D2E/DX2                !
 ! D264  D(36,35,37,53)          5.9342         estimate D2E/DX2                !
 ! D265  D(33,36,52,51)          8.5501         estimate D2E/DX2                !
 ! D266  D(33,36,52,53)        148.9726         estimate D2E/DX2                !
 ! D267  D(35,36,52,51)       -134.5783         estimate D2E/DX2                !
 ! D268  D(35,36,52,53)          5.8442         estimate D2E/DX2                !
 ! D269  D(35,37,39,38)         -0.0935         estimate D2E/DX2                !
 ! D270  D(35,37,39,57)       -140.4348         estimate D2E/DX2                !
 ! D271  D(53,37,39,38)        138.7313         estimate D2E/DX2                !
 ! D272  D(53,37,39,57)         -1.6101         estimate D2E/DX2                !
 ! D273  D(35,37,53,52)         -2.4092         estimate D2E/DX2                !
 ! D274  D(35,37,53,55)        139.2137         estimate D2E/DX2                !
 ! D275  D(39,37,53,52)       -145.1331         estimate D2E/DX2                !
 ! D276  D(39,37,53,55)         -3.5103         estimate D2E/DX2                !
 ! D277  D(21,38,39,37)         -4.7315         estimate D2E/DX2                !
 ! D278  D(21,38,39,57)        139.2202         estimate D2E/DX2                !
 ! D279  D(42,38,39,37)       -148.8576         estimate D2E/DX2                !
 ! D280  D(42,38,39,57)         -4.9059         estimate D2E/DX2                !
 ! D281  D(21,38,42,40)          4.5666         estimate D2E/DX2                !
 ! D282  D(21,38,42,58)       -138.9116         estimate D2E/DX2                !
 ! D283  D(39,38,42,40)        149.1434         estimate D2E/DX2                !
 ! D284  D(39,38,42,58)          5.6652         estimate D2E/DX2                !
 ! D285  D(37,39,57,58)        146.8972         estimate D2E/DX2                !
 ! D286  D(37,39,57,60)          5.394          estimate D2E/DX2                !
 ! D287  D(38,39,57,58)          2.2613         estimate D2E/DX2                !
 ! D288  D(38,39,57,60)       -139.2418         estimate D2E/DX2                !
 ! D289  D(23,40,41,24)         -9.6533         estimate D2E/DX2                !
 ! D290  D(23,40,41,43)       -151.7523         estimate D2E/DX2                !
 ! D291  D(42,40,41,24)        140.3007         estimate D2E/DX2                !
 ! D292  D(42,40,41,43)         -1.7984         estimate D2E/DX2                !
 ! D293  D(23,40,42,38)         12.9583         estimate D2E/DX2                !
 ! D294  D(23,40,42,58)        151.9327         estimate D2E/DX2                !
 ! D295  D(41,40,42,38)       -133.9469         estimate D2E/DX2                !
 ! D296  D(41,40,42,58)          5.0275         estimate D2E/DX2                !
 ! D297  D(24,41,43,46)         -0.9279         estimate D2E/DX2                !
 ! D298  D(24,41,43,59)       -138.5065         estimate D2E/DX2                !
 ! D299  D(40,41,43,46)        136.0492         estimate D2E/DX2                !
 ! D300  D(40,41,43,59)         -1.5294         estimate D2E/DX2                !
 ! D301  D(38,42,58,57)         -4.2979         estimate D2E/DX2                !
 ! D302  D(38,42,58,59)        138.7348         estimate D2E/DX2                !
 ! D303  D(40,42,58,57)       -148.0935         estimate D2E/DX2                !
 ! D304  D(40,42,58,59)         -5.0608         estimate D2E/DX2                !
 ! D305  D(41,43,46,44)          0.0746         estimate D2E/DX2                !
 ! D306  D(41,43,46,61)       -142.2444         estimate D2E/DX2                !
 ! D307  D(59,43,46,44)        142.1317         estimate D2E/DX2                !
 ! D308  D(59,43,46,61)         -0.1873         estimate D2E/DX2                !
 ! D309  D(41,43,59,58)          1.5206         estimate D2E/DX2                !
 ! D310  D(41,43,59,65)        143.6178         estimate D2E/DX2                !
 ! D311  D(46,43,59,58)       -140.8216         estimate D2E/DX2                !
 ! D312  D(46,43,59,65)          1.2755         estimate D2E/DX2                !
 ! D313  D(26,44,45,28)         -0.3403         estimate D2E/DX2                !
 ! D314  D(26,44,45,48)       -142.9867         estimate D2E/DX2                !
 ! D315  D(46,44,45,28)        141.3102         estimate D2E/DX2                !
 ! D316  D(46,44,45,48)         -1.3362         estimate D2E/DX2                !
 ! D317  D(26,44,46,43)          1.3782         estimate D2E/DX2                !
 ! D318  D(26,44,46,61)        139.5865         estimate D2E/DX2                !
 ! D319  D(45,44,46,43)       -134.8494         estimate D2E/DX2                !
 ! D320  D(45,44,46,61)          3.3589         estimate D2E/DX2                !
 ! D321  D(28,45,48,47)         -2.4545         estimate D2E/DX2                !
 ! D322  D(28,45,48,62)       -141.3356         estimate D2E/DX2                !
 ! D323  D(44,45,48,47)        136.1648         estimate D2E/DX2                !
 ! D324  D(44,45,48,62)         -2.7163         estimate D2E/DX2                !
 ! D325  D(43,46,61,62)        140.7872         estimate D2E/DX2                !
 ! D326  D(43,46,61,65)         -0.965          estimate D2E/DX2                !
 ! D327  D(44,46,61,62)         -1.3481         estimate D2E/DX2                !
 ! D328  D(44,46,61,65)       -143.1004         estimate D2E/DX2                !
 ! D329  D(30,47,48,45)         -2.2692         estimate D2E/DX2                !
 ! D330  D(30,47,48,62)        140.4289         estimate D2E/DX2                !
 ! D331  D(50,47,48,45)       -148.0731         estimate D2E/DX2                !
 ! D332  D(50,47,48,62)         -5.375          estimate D2E/DX2                !
 ! D333  D(30,47,50,49)          3.2629         estimate D2E/DX2                !
 ! D334  D(30,47,50,63)       -140.4222         estimate D2E/DX2                !
 ! D335  D(48,47,50,49)        149.3244         estimate D2E/DX2                !
 ! D336  D(48,47,50,63)          5.6394         estimate D2E/DX2                !
 ! D337  D(45,48,62,61)          4.7091         estimate D2E/DX2                !
 ! D338  D(45,48,62,63)        146.1669         estimate D2E/DX2                !
 ! D339  D(47,48,62,61)       -138.4227         estimate D2E/DX2                !
 ! D340  D(47,48,62,63)          3.0351         estimate D2E/DX2                !
 ! D341  D(31,49,50,47)          2.4767         estimate D2E/DX2                !
 ! D342  D(31,49,50,63)        141.5422         estimate D2E/DX2                !
 ! D343  D(54,49,50,47)       -137.7044         estimate D2E/DX2                !
 ! D344  D(54,49,50,63)          1.3611         estimate D2E/DX2                !
 ! D345  D(31,49,54,51)          1.1001         estimate D2E/DX2                !
 ! D346  D(31,49,54,56)       -140.6853         estimate D2E/DX2                !
 ! D347  D(50,49,54,51)        145.352          estimate D2E/DX2                !
 ! D348  D(50,49,54,56)          3.5667         estimate D2E/DX2                !
 ! D349  D(47,50,63,62)         -3.8149         estimate D2E/DX2                !
 ! D350  D(47,50,63,64)        137.8584         estimate D2E/DX2                !
 ! D351  D(49,50,63,62)       -146.5437         estimate D2E/DX2                !
 ! D352  D(49,50,63,64)         -4.8705         estimate D2E/DX2                !
 ! D353  D(34,51,52,36)         -2.1909         estimate D2E/DX2                !
 ! D354  D(34,51,52,53)       -136.9572         estimate D2E/DX2                !
 ! D355  D(54,51,52,36)        135.4816         estimate D2E/DX2                !
 ! D356  D(54,51,52,53)          0.7154         estimate D2E/DX2                !
 ! D357  D(34,51,54,49)          4.3315         estimate D2E/DX2                !
 ! D358  D(34,51,54,56)        145.6645         estimate D2E/DX2                !
 ! D359  D(52,51,54,49)       -138.191          estimate D2E/DX2                !
 ! D360  D(52,51,54,56)          3.142          estimate D2E/DX2                !
 ! D361  D(36,52,53,37)         -2.1128         estimate D2E/DX2                !
 ! D362  D(36,52,53,55)       -143.6078         estimate D2E/DX2                !
 ! D363  D(51,52,53,37)        137.0231         estimate D2E/DX2                !
 ! D364  D(51,52,53,55)         -4.472          estimate D2E/DX2                !
 ! D365  D(37,53,55,56)       -133.0272         estimate D2E/DX2                !
 ! D366  D(37,53,55,60)          4.7823         estimate D2E/DX2                !
 ! D367  D(52,53,55,56)          4.3279         estimate D2E/DX2                !
 ! D368  D(52,53,55,60)        142.1374         estimate D2E/DX2                !
 ! D369  D(49,54,56,55)        133.6677         estimate D2E/DX2                !
 ! D370  D(49,54,56,64)         -5.0396         estimate D2E/DX2                !
 ! D371  D(51,54,56,55)         -3.2683         estimate D2E/DX2                !
 ! D372  D(51,54,56,64)       -141.9756         estimate D2E/DX2                !
 ! D373  D(53,55,56,54)         -0.519          estimate D2E/DX2                !
 ! D374  D(53,55,56,64)        143.0416         estimate D2E/DX2                !
 ! D375  D(60,55,56,54)       -142.5135         estimate D2E/DX2                !
 ! D376  D(60,55,56,64)          1.047          estimate D2E/DX2                !
 ! D377  D(53,55,60,57)         -0.9775         estimate D2E/DX2                !
 ! D378  D(53,55,60,66)       -144.5003         estimate D2E/DX2                !
 ! D379  D(56,55,60,57)        141.0876         estimate D2E/DX2                !
 ! D380  D(56,55,60,66)         -2.4352         estimate D2E/DX2                !
 ! D381  D(54,56,64,63)          1.5422         estimate D2E/DX2                !
 ! D382  D(54,56,64,66)        144.0273         estimate D2E/DX2                !
 ! D383  D(55,56,64,63)       -141.7407         estimate D2E/DX2                !
 ! D384  D(55,56,64,66)          0.7443         estimate D2E/DX2                !
 ! D385  D(39,57,58,42)          1.3115         estimate D2E/DX2                !
 ! D386  D(39,57,58,59)       -142.1687         estimate D2E/DX2                !
 ! D387  D(60,57,58,42)        142.1908         estimate D2E/DX2                !
 ! D388  D(60,57,58,59)         -1.2894         estimate D2E/DX2                !
 ! D389  D(39,57,60,55)         -4.1407         estimate D2E/DX2                !
 ! D390  D(39,57,60,66)        135.1445         estimate D2E/DX2                !
 ! D391  D(58,57,60,55)       -140.4483         estimate D2E/DX2                !
 ! D392  D(58,57,60,66)         -1.1631         estimate D2E/DX2                !
 ! D393  D(42,58,59,43)          1.696          estimate D2E/DX2                !
 ! D394  D(42,58,59,65)       -135.8708         estimate D2E/DX2                !
 ! D395  D(57,58,59,43)        140.7559         estimate D2E/DX2                !
 ! D396  D(57,58,59,65)          3.1891         estimate D2E/DX2                !
 ! D397  D(43,59,65,61)         -1.8866         estimate D2E/DX2                !
 ! D398  D(43,59,65,66)       -144.1548         estimate D2E/DX2                !
 ! D399  D(58,59,65,61)        139.6069         estimate D2E/DX2                !
 ! D400  D(58,59,65,66)         -2.6613         estimate D2E/DX2                !
 ! D401  D(55,60,66,64)          2.8772         estimate D2E/DX2                !
 ! D402  D(55,60,66,65)        145.7383         estimate D2E/DX2                !
 ! D403  D(57,60,66,64)       -141.1632         estimate D2E/DX2                !
 ! D404  D(57,60,66,65)          1.698          estimate D2E/DX2                !
 ! D405  D(46,61,62,48)         -2.721          estimate D2E/DX2                !
 ! D406  D(46,61,62,63)       -138.9977         estimate D2E/DX2                !
 ! D407  D(65,61,62,48)        134.3356         estimate D2E/DX2                !
 ! D408  D(65,61,62,63)         -1.9411         estimate D2E/DX2                !
 ! D409  D(46,61,65,59)          1.7433         estimate D2E/DX2                !
 ! D410  D(46,61,65,66)        144.0749         estimate D2E/DX2                !
 ! D411  D(62,61,65,59)       -140.5604         estimate D2E/DX2                !
 ! D412  D(62,61,65,66)          1.7712         estimate D2E/DX2                !
 ! D413  D(48,62,63,50)          0.459          estimate D2E/DX2                !
 ! D414  D(48,62,63,64)       -141.0372         estimate D2E/DX2                !
 ! D415  D(61,62,63,50)        141.3955         estimate D2E/DX2                !
 ! D416  D(61,62,63,64)         -0.1007         estimate D2E/DX2                !
 ! D417  D(50,63,64,56)          3.3943         estimate D2E/DX2                !
 ! D418  D(50,63,64,66)       -134.8765         estimate D2E/DX2                !
 ! D419  D(62,63,64,56)        140.5639         estimate D2E/DX2                !
 ! D420  D(62,63,64,66)          2.2932         estimate D2E/DX2                !
 ! D421  D(56,64,66,60)         -2.2448         estimate D2E/DX2                !
 ! D422  D(56,64,66,65)       -144.8893         estimate D2E/DX2                !
 ! D423  D(63,64,66,60)        140.1817         estimate D2E/DX2                !
 ! D424  D(63,64,66,65)         -2.4628         estimate D2E/DX2                !
 ! D425  D(59,65,66,60)          0.1919         estimate D2E/DX2                !
 ! D426  D(59,65,66,64)        138.3775         estimate D2E/DX2                !
 ! D427  D(61,65,66,60)       -137.7674         estimate D2E/DX2                !
 ! D428  D(61,65,66,64)          0.4182         estimate D2E/DX2                !
 --------------------------------------------------------------------------------
 Trust Radius=3.00D-01 FncErr=1.00D-07 GrdErr=1.00D-06 EigMax=2.50D+02 EigMin=1.00D-04
 Number of steps in this run=    426 maximum allowed number of steps=    426.
 GradGradGradGradGradGradGradGradGradGradGradGradGradGradGradGradGradGrad

 Leave Link  103 at Sat Jul 16 09:06:02 2022, MaxMem=  1342177280 cpu:               1.4 elap:               0.0
 (Enter /home/mkliu/g16/l202.exe)
 Stoichiometry    C66Cl5(2)
 Framework group  C1[X(C66Cl5)]
 Deg. of freedom   207
 Full point group                 C1      NOp   1
 Largest Abelian subgroup         C1      NOp   1
 Largest concise Abelian subgroup C1      NOp   1
                         Standard orientation:                         
 ---------------------------------------------------------------------
 Center     Atomic      Atomic             Coordinates (Angstroms)
 Number     Number       Type             X           Y           Z
 ---------------------------------------------------------------------
      1          6           0        3.403038    1.528024   -0.489347
      2          6           0        3.654981    0.686201    0.788261
      3          6           0        3.664042   -0.830242    0.399965
      4          6           0        2.995943    0.469918   -1.444125
      5          6           0        3.171462   -0.818326   -1.003201
      6          6           0        1.907443    0.842599   -2.215056
      7          6           0        2.179361    2.388715   -0.535796
      8          6           0        1.401062    2.087576   -1.696972
      9          6           0        1.450815    2.743980    0.598455
[...]
     9 C(13)  Bbb     0.0538     7.215     2.574     2.407  0.5538 -0.4799  0.6805
              Bcc     0.0718     9.632     3.437     3.213 -0.6630  0.2403  0.7090
 
              Baa    -0.0362    -4.861    -1.734    -1.621  0.5868  0.3294  0.7397
    10 C(13)  Bbb     0.0149     1.994     0.712     0.665  0.8086 -0.2875 -0.5133
              Bcc     0.0214     2.867     1.023     0.956  0.0436  0.8993 -0.4351
 
              Baa    -0.0382    -5.122    -1.828    -1.708 -0.6736  0.7381 -0.0381
    11 C(13)  Bbb    -0.0346    -4.639    -1.655    -1.547 -0.4987 -0.4159  0.7605
              Bcc     0.0727     9.761     3.483     3.256  0.5455  0.5313  0.6482
 
              Baa    -0.0176    -2.367    -0.845    -0.790  0.5819 -0.5183  0.6267
    12 C(13)  Bbb     0.0081     1.088     0.388     0.363 -0.6148  0.2242  0.7562
              Bcc     0.0095     1.279     0.456     0.427  0.5324  0.8253  0.1882
 
              Baa    -0.0127    -1.707    -0.609    -0.569  0.7720 -0.1548 -0.6165
    13 C(13)  Bbb    -0.0113    -1.520    -0.542    -0.507  0.2763  0.9552  0.1062
              Bcc     0.0241     3.227     1.152     1.077  0.5724 -0.2523  0.7802
 
              Baa    -0.0127    -1.703    -0.608    -0.568 -0.4250  0.1367  0.8948
    14 C(13)  Bbb    -0.0117    -1.573    -0.561    -0.525  0.7483  0.6092  0.2624
              Bcc     0.0244     3.276     1.169     1.093 -0.5092  0.7811 -0.3612
 
              Baa    -0.0361    -4.843    -1.728    -1.615  0.6401 -0.5265 -0.5596
    15 C(13)  Bbb     0.0172     2.311     0.824     0.771  0.4166 -0.3742  0.8285
              Bcc     0.0189     2.532     0.904     0.845  0.6456  0.7634  0.0201
 
              Baa    -0.0007    -0.101    -0.036    -0.034  0.0092 -0.1522  0.9883
    16 C(13)  Bbb     0.0002     0.031     0.011     0.010  0.7366  0.6694  0.0962
              Bcc     0.0005     0.069     0.025     0.023 -0.6762  0.7271  0.1183
 
              Baa    -0.0272    -3.651    -1.303    -1.218 -0.3054 -0.0530  0.9508
    17 C(13)  Bbb     0.0126     1.688     0.602     0.563  0.9140 -0.2962  0.2771
              Bcc     0.0146     1.963     0.700     0.655  0.2670  0.9536  0.1389
 
              Baa    -0.0131    -1.760    -0.628    -0.587  0.7961 -0.2305  0.5596
    18 C(13)  Bbb    -0.0097    -1.301    -0.464    -0.434  0.3369  0.9369 -0.0935
              Bcc     0.0228     3.060     1.092     1.021 -0.5027  0.2630  0.8235
 
              Baa    -0.0255    -3.424    -1.222    -1.142  0.9811 -0.1368  0.1369
    19 C(13)  Bbb    -0.0246    -3.295    -1.176    -1.099  0.1137  0.9799  0.1642
              Bcc     0.0501     6.719     2.397     2.241 -0.1566 -0.1455  0.9769
 
              Baa    -0.1166   -15.641    -5.581    -5.217  0.9723 -0.2209 -0.0759
    20 C(13)  Bbb    -0.1110   -14.897    -5.316    -4.969  0.2054  0.6544  0.7277
              Bcc     0.2276    30.538    10.897    10.186  0.1111  0.7232 -0.6817
 
              Baa    -0.0489    -6.561    -2.341    -2.189 -0.0403 -0.4562  0.8890
    21 C(13)  Bbb     0.0206     2.758     0.984     0.920  0.7106 -0.6385 -0.2955
              Bcc     0.0283     3.803     1.357     1.268  0.7025  0.6198  0.3499
 
              Baa    -0.1337   -17.946    -6.404    -5.986  0.9056 -0.2804  0.3183
    22 C(13)  Bbb    -0.1258   -16.878    -6.022    -5.630 -0.3010  0.1040  0.9479
              Bcc     0.2595    34.824    12.426    11.616  0.2989  0.9542 -0.0098
 
              Baa    -0.0078    -1.044    -0.373    -0.348  0.5273  0.7774 -0.3429
    23 C(13)  Bbb     0.0027     0.365     0.130     0.122  0.1864  0.2879  0.9393
              Bcc     0.0051     0.680     0.243     0.227  0.8290 -0.5592  0.0069
 
              Baa    -0.0507    -6.810    -2.430    -2.271  0.0228  0.9052  0.4243
    24 C(13)  Bbb     0.0164     2.198     0.784     0.733  0.8478 -0.2424  0.4717
              Bcc     0.0344     4.611     1.645     1.538 -0.5298 -0.3490  0.7730
 
              Baa    -0.0453    -6.075    -2.168    -2.026  0.3734  0.5118  0.7737
    25 C(13)  Bbb     0.0224     3.001     1.071     1.001  0.8201  0.2077 -0.5332
              Bcc     0.0229     3.074     1.097     1.025 -0.4336  0.8336 -0.3421
 
              Baa    -0.0677    -9.083    -3.241    -3.030  0.6989 -0.5619  0.4425
    26 C(13)  Bbb    -0.0639    -8.574    -3.060    -2.860  0.7077  0.4540 -0.5413
              Bcc     0.1316    17.657     6.300     5.890  0.1032  0.6915  0.7150
 
              Baa    -0.0147    -1.976    -0.705    -0.659  0.4633 -0.2292  0.8561
    27 C(13)  Bbb     0.0071     0.947     0.338     0.316 -0.4911  0.7377  0.4633
              Bcc     0.0077     1.029     0.367     0.343  0.7377  0.6351 -0.2292
 
              Baa    -0.0082    -1.095    -0.391    -0.365 -0.5992  0.7431  0.2981
    28 C(13)  Bbb    -0.0078    -1.047    -0.374    -0.349  0.6937  0.6677 -0.2702
              Bcc     0.0160     2.142     0.764     0.714  0.3998 -0.0449  0.9155
 
              Baa    -0.0147    -1.975    -0.705    -0.659 -0.4216  0.7026 -0.5733
    29 C(13)  Bbb     0.0068     0.908     0.324     0.303 -0.4702  0.3712  0.8007
              Bcc     0.0080     1.067     0.381     0.356  0.7754  0.6071  0.1738
 
              Baa    -0.0040    -0.536    -0.191    -0.179  0.6404 -0.4881 -0.5931
    30 C(13)  Bbb    -0.0034    -0.455    -0.162    -0.152  0.7197  0.6509  0.2414
              Bcc     0.0074     0.990     0.353     0.330  0.2682 -0.5814  0.7681
 
              Baa    -0.0136    -1.826    -0.652    -0.609  0.5482  0.4652  0.6950
    31 C(13)  Bbb    -0.0130    -1.741    -0.621    -0.581  0.8071 -0.0761 -0.5855
              Bcc     0.0266     3.567     1.273     1.190 -0.2195  0.8819 -0.4172
 
              Baa    -0.0081    -1.081    -0.386    -0.361  0.7947  0.4394 -0.4188
    32 C(13)  Bbb    -0.0072    -0.972    -0.347    -0.324  0.5286 -0.1617  0.8333
              Bcc     0.0153     2.053     0.732     0.685 -0.2984  0.8836  0.3608
 
              Baa    -0.0129    -1.737    -0.620    -0.579 -0.3628  0.5396  0.7597
    33 C(13)  Bbb     0.0061     0.813     0.290     0.271  0.7980 -0.2411  0.5523
              Bcc     0.0069     0.924     0.330     0.308  0.4812  0.8066 -0.3432
 
              Baa    -0.0106    -1.421    -0.507    -0.474 -0.1366  0.9904 -0.0219
    34 C(13)  Bbb     0.0049     0.656     0.234     0.219  0.8799  0.1315  0.4565
              Bcc     0.0057     0.765     0.273     0.255 -0.4550 -0.0431  0.8894
 
              Baa    -0.0424    -5.690    -2.030    -1.898 -0.0108  0.0074  0.9999
    35 C(13)  Bbb     0.0201     2.700     0.964     0.901  0.7582 -0.6518  0.0130
              Bcc     0.0223     2.990     1.067     0.997  0.6519  0.7583  0.0014
 
              Baa    -0.0073    -0.977    -0.348    -0.326 -0.5579  0.7232 -0.4072
    36 C(13)  Bbb    -0.0063    -0.841    -0.300    -0.281  0.8296  0.4996 -0.2493
              Bcc     0.0135     1.818     0.649     0.606 -0.0231  0.4769  0.8787
 
              Baa    -0.0300    -4.025    -1.436    -1.343  0.8351 -0.4760 -0.2756
    37 C(13)  Bbb    -0.0270    -3.624    -1.293    -1.209  0.4161  0.8744 -0.2494
              Bcc     0.0570     7.649     2.729     2.551  0.3597  0.0936  0.9283
 
              Baa    -0.0580    -7.788    -2.779    -2.598  0.7667 -0.4747 -0.4322
    38 C(13)  Bbb    -0.0543    -7.281    -2.598    -2.429  0.6201  0.7219  0.3072
              Bcc     0.1123    15.069     5.377     5.027  0.1662 -0.5036  0.8478
 
              Baa    -0.0288    -3.867    -1.380    -1.290  0.4750 -0.2468  0.8447
    39 C(13)  Bbb     0.0114     1.533     0.547     0.511  0.7726 -0.3426 -0.5345
              Bcc     0.0174     2.334     0.833     0.778  0.4213  0.9065  0.0279
 
              Baa    -0.0170    -2.287    -0.816    -0.763 -0.0542  0.2831  0.9576
    40 C(13)  Bbb    -0.0111    -1.493    -0.533    -0.498  0.9892  0.1459  0.0129
              Bcc     0.0282     3.780     1.349     1.261 -0.1360  0.9479 -0.2879
 
              Baa    -0.0198    -2.655    -0.947    -0.886  0.6396  0.0922  0.7632
    41 C(13)  Bbb    -0.0161    -2.166    -0.773    -0.723  0.7125  0.3015 -0.6336
              Bcc     0.0359     4.821     1.720     1.608 -0.2885  0.9490  0.1272
 
              Baa    -0.0166    -2.228    -0.795    -0.743 -0.3114  0.7615 -0.5685
    42 C(13)  Bbb     0.0069     0.932     0.333     0.311  0.9295  0.1195 -0.3490
              Bcc     0.0097     1.296     0.462     0.432  0.1978  0.6371  0.7449
 
              Baa    -0.0149    -2.003    -0.715    -0.668 -0.4942  0.8352  0.2412
    43 C(13)  Bbb     0.0058     0.783     0.280     0.261  0.7080  0.2257  0.6692
              Bcc     0.0091     1.220     0.435     0.407 -0.5045 -0.5015  0.7028
 
              Baa    -0.0245    -3.283    -1.171    -1.095 -0.2363  0.5530  0.7989
    44 C(13)  Bbb     0.0095     1.271     0.453     0.424 -0.3807  0.7038 -0.5998
              Bcc     0.0150     2.012     0.718     0.671  0.8940  0.4459 -0.0442
 
              Baa    -0.0030    -0.403    -0.144    -0.134 -0.5715  0.8158 -0.0888
    45 C(13)  Bbb    -0.0019    -0.261    -0.093    -0.087  0.7879  0.5757  0.2186
              Bcc     0.0049     0.664     0.237     0.221 -0.2295 -0.0550  0.9718
 
              Baa    -0.0376    -5.051    -1.802    -1.685  0.6344 -0.2490  0.7317
    46 C(13)  Bbb    -0.0350    -4.694    -1.675    -1.566  0.5452  0.8153 -0.1952
              Bcc     0.0726     9.744     3.477     3.250 -0.5480  0.5228  0.6530
 
              Baa    -0.0113    -1.510    -0.539    -0.504  0.0595 -0.5330  0.8440
    47 C(13)  Bbb     0.0055     0.734     0.262     0.245 -0.4675  0.7322  0.4953
              Bcc     0.0058     0.776     0.277     0.259  0.8820  0.4241  0.2056
 
              Baa    -0.0031    -0.415    -0.148    -0.138  0.7194 -0.3249 -0.6139
    48 C(13)  Bbb    -0.0006    -0.078    -0.028    -0.026  0.4415  0.8962  0.0431
              Bcc     0.0037     0.493     0.176     0.164  0.5362 -0.3020  0.7882
 
              Baa    -0.0102    -1.364    -0.487    -0.455  0.1376  0.9074 -0.3970
    49 C(13)  Bbb     0.0046     0.622     0.222     0.207  0.3765  0.3228  0.8684
              Bcc     0.0055     0.742     0.265     0.248  0.9162 -0.2690 -0.2972
 
              Baa    -0.0068    -0.916    -0.327    -0.305  0.6319  0.3502  0.6914
    50 C(13)  Bbb    -0.0063    -0.847    -0.302    -0.283  0.7251 -0.5821 -0.3679
              Bcc     0.0131     1.763     0.629     0.588  0.2736  0.7338 -0.6218
 
              Baa    -0.0006    -0.077    -0.027    -0.026  0.6489  0.6617  0.3756
    51 C(13)  Bbb     0.0001     0.007     0.003     0.002 -0.5035  0.7435 -0.4400
              Bcc     0.0005     0.069     0.025     0.023 -0.5704  0.0964  0.8157
 
              Baa    -0.0016    -0.208    -0.074    -0.069  0.0555  0.8185  0.5719
    52 C(13)  Bbb     0.0004     0.057     0.020     0.019  0.8195 -0.3645  0.4422
              Bcc     0.0011     0.151     0.054     0.050 -0.5703 -0.4441  0.6910
 
              Baa    -0.0175    -2.353    -0.840    -0.785  0.6079  0.3471  0.7142
    53 C(13)  Bbb     0.0076     1.018     0.363     0.339 -0.6253  0.7635  0.1612
              Bcc     0.0100     1.335     0.477     0.445 -0.4893 -0.5446  0.6812
 
              Baa    -0.0063    -0.852    -0.304    -0.284  0.1365 -0.0078  0.9906
    54 C(13)  Bbb    -0.0062    -0.826    -0.295    -0.276  0.8978 -0.4217 -0.1270
              Bcc     0.0125     1.678     0.599     0.560  0.4187  0.9067 -0.0506
 
              Baa    -0.0181    -2.430    -0.867    -0.811  0.6085 -0.5879 -0.5331
    55 C(13)  Bbb    -0.0169    -2.263    -0.807    -0.755  0.0366 -0.6503  0.7588
              Bcc     0.0350     4.693     1.675     1.565  0.7927  0.4812  0.3742
 
              Baa    -0.0054    -0.729    -0.260    -0.243  0.7663  0.6414  0.0386
    56 C(13)  Bbb     0.0025     0.331     0.118     0.110 -0.5561  0.6320  0.5397
              Bcc     0.0030     0.398     0.142     0.133  0.3218 -0.4350  0.8409
 
              Baa    -0.0092    -1.236    -0.441    -0.412 -0.4604  0.2681  0.8463
    57 C(13)  Bbb    -0.0086    -1.153    -0.411    -0.385  0.2380  0.9557 -0.1734
              Bcc     0.0178     2.389     0.853     0.797  0.8552 -0.1216  0.5038
 
              Baa    -0.0039    -0.522    -0.186    -0.174  0.5145 -0.5624  0.6473
    58 C(13)  Bbb     0.0015     0.202     0.072     0.067  0.2960  0.8250  0.4815
              Bcc     0.0024     0.320     0.114     0.107  0.8048  0.0561 -0.5909
 
              Baa    -0.0024    -0.326    -0.116    -0.109  0.0478  0.6872  0.7249
    59 C(13)  Bbb    -0.0013    -0.175    -0.063    -0.059  0.2508  0.6942 -0.6746
              Bcc     0.0037     0.502     0.179     0.167  0.9669 -0.2140  0.1392
 
              Baa    -0.0126    -1.691    -0.604    -0.564  0.9082  0.1329  0.3969
    60 C(13)  Bbb     0.0057     0.765     0.273     0.255 -0.4018  0.0118  0.9156
              Bcc     0.0069     0.926     0.330     0.309 -0.1170  0.9911 -0.0641
 
              Baa    -0.0124    -1.669    -0.595    -0.557 -0.6613  0.2568  0.7048
    61 C(13)  Bbb     0.0045     0.609     0.217     0.203  0.6894 -0.1624  0.7060
              Bcc     0.0079     1.059     0.378     0.353  0.2957  0.9527 -0.0696
 
              Baa    -0.0209    -2.798    -0.998    -0.933  0.7258 -0.5396  0.4266
    62 C(13)  Bbb    -0.0196    -2.630    -0.938    -0.877  0.3525  0.8243  0.4429
              Bcc     0.0404     5.428     1.937     1.810 -0.5907 -0.1711  0.7885
 
              Baa    -0.0084    -1.126    -0.402    -0.376  0.6476  0.4454 -0.6182
    63 C(13)  Bbb     0.0033     0.447     0.159     0.149  0.7154 -0.6346  0.2922
              Bcc     0.0051     0.679     0.242     0.227  0.2622  0.6315  0.7297
 
              Baa    -0.0109    -1.466    -0.523    -0.489 -0.5473  0.6578 -0.5175
    64 C(13)  Bbb    -0.0102    -1.371    -0.489    -0.457 -0.0608  0.5854  0.8084
              Bcc     0.0211     2.837     1.012     0.946  0.8347  0.4739 -0.2805
 
              Baa    -0.0016    -0.210    -0.075    -0.070 -0.5297  0.7507 -0.3947
    65 C(13)  Bbb    -0.0005    -0.067    -0.024    -0.022  0.2045  0.5647  0.7996
              Bcc     0.0021     0.277     0.099     0.093  0.8231  0.3428 -0.4527
 
              Baa    -0.0042    -0.557    -0.199    -0.186  0.9772  0.1621 -0.1375
    66 C(13)  Bbb     0.0016     0.215     0.077     0.072  0.0908  0.2668  0.9595
              Bcc     0.0026     0.342     0.122     0.114 -0.1922  0.9500 -0.2460
 
              Baa    -0.1858    -9.722    -3.469    -3.243 -0.0336  0.9882 -0.1497
    67 Cl(35) Bbb    -0.1561    -8.168    -2.915    -2.725  0.1712  0.1532  0.9732
              Bcc     0.3418    17.890     6.384     5.968  0.9847  0.0071 -0.1743
 
              Baa    -0.0251    -1.312    -0.468    -0.438  0.9586  0.2397 -0.1537
    68 Cl(35) Bbb     0.0054     0.285     0.102     0.095 -0.2106  0.9601  0.1839
              Bcc     0.0196     1.027     0.366     0.343  0.1917 -0.1439  0.9708
 
              Baa    -0.0076    -0.399    -0.143    -0.133  0.8151  0.1277 -0.5651
    69 Cl(35) Bbb    -0.0018    -0.096    -0.034    -0.032  0.1936  0.8594  0.4733
              Bcc     0.0095     0.495     0.177     0.165  0.5461 -0.4952  0.6757
 
              Baa    -0.0186    -0.974    -0.348    -0.325  0.0352  0.8145 -0.5790
    70 Cl(35) Bbb    -0.0021    -0.111    -0.039    -0.037  0.6144  0.4393  0.6554
              Bcc     0.0207     1.085     0.387     0.362  0.7882 -0.3788 -0.4849
 
              Baa    -0.2615   -13.689    -4.884    -4.566  0.9773 -0.1715 -0.1245
    71 Cl(35) Bbb    -0.2472   -12.937    -4.616    -4.315  0.1814  0.3727  0.9101
              Bcc     0.5087    26.626     9.501     8.881  0.1097  0.9120 -0.3953
 

 ---------------------------------------------------------------------------------

 No NMR shielding tensors so no spin-rotation constants.
 Leave Link  601 at Sat Jul 16 11:05:17 2022, MaxMem=  1342177280 cpu:              94.4 elap:               2.2
 (Enter /home/mkliu/g16/l9999.exe)
 1\1\GINC-NODE03\FOpt\UB3LYP\6-311G(d,p)\C66Cl5(2)\MKLIU\16-Jul-2022\0\
 \#P opt b3lyp/6-311G(d, p) empiricaldispersion=GD3\\force\\0,2\C,-1.32
 72806866,1.867914049,-3.9028221721\C,0.2037369548,2.2337418341,-3.9838
 72299\C,0.9730053573,0.8605736838,-4.3215678785\C,-1.3240398781,0.3708
 906977,-3.9330091492\C,-0.0914255905,-0.1889817831,-4.2010863493\C,-2.
 191395783,-0.1683266352,-2.9756031816\C,-2.0029421169,2.1280833555,-2.
 5733287999\C,-2.6776194025,0.9207270574,-2.1486591007\C,-1.46130983,2.
 9693456303,-1.5627903094\C,0.7416792184,2.5892202478,-2.6296947561\C,-
 0.0101702417,3.2262746337,-1.6118105908\C,1.9119155163,0.6658519954,-3
 .1332812784\C,1.8759173679,1.8393678345,-2.3081418363\C,2.2586779485,-
 0.5450461037,-2.5955792137\C,0.1953449901,-1.4321914745,-3.666521289\C
 ,1.6018603642,-1.8038734831,-3.1951535075\C,-1.9568672341,-1.442388664
 ,-2.4262580491\C,-0.7694728316,-2.1040391684,-2.8914291234\C,-2.470778
 639,-1.736925509,-1.09795574\C,-3.1002700555,0.6931391427,-0.853728174
 \C,-3.0769112507,-0.6504363216,-0.3099612173\C,-2.0749328968,2.9224208
 636,-0.3092088207\C,-3.184748564,1.9248073458,0.0288198404\C,-1.385606
 7665,3.270439882,0.8841412285\C,0.6729804627,3.450644622,-0.4026897307
 \C,-0.0251156101,3.583212692,0.8520656661\C,2.4530086246,1.855512899,-
 1.0102835995\C,1.9429585039,2.8288522994,-0.1266946055\C,2.89668664,-0
 .5958022415,-1.2749113951\C,3.0550002585,0.6395040684,-0.5017559524\C,
 2.9299116713,-1.8186517839,-0.5767922691\C,1.3016347288,-2.8315238259,
 -2.126257416\C,-0.1064748418,-3.0679643135,-2.0521667016\C,2.046044505
 2,-2.9271153668,-0.9845348037\C,-1.9287744432,-2.8485041559,-0.4152527
 47\C,-0.7048485805,-3.4932591769,-0.8829969399\C,-1.921170553,-2.91913
 21988,1.0099843225\C,-3.1463193703,-0.8026006794,1.0936225115\C,-2.527
 6244731,-1.9079559306,1.7510461948\C,-2.9198374442,1.6311801848,1.4849
 49271\C,-1.926034867,2.5243445465,2.001325571\C,-3.0140339493,0.360422
 6441,1.98474279\C,-1.0999260391,2.1424637409,3.0597122249\C,0.83698818
 03,3.131959744,1.9151624027\C,2.0649484604,2.6694871409,1.2961759141\C
 ,0.318846545,2.4486591618,3.0120395368\C,3.2595623708,0.5580135757,0.8
 975003449\C,2.7293945482,1.5676615646,1.7985155116\C,3.015420435,-1.86
 15385425,0.8505533852\C,3.205615412,-0.6963195778,1.5824927958\C,1.476
 3863214,-3.5002928736,0.2111615837\C,0.1079754979,-3.8024883787,0.2599
 605448\C,-0.6546059895,-3.4847531081,1.4450511483\C,2.1097023796,-2.88
 71444522,1.3518963893\C,-0.0232282648,-2.9676687263,2.5719611802\C,1.3
 949352243,-2.6638185752,2.5247984046\C,-1.9128285095,-1.443211568,2.98
 29687583\C,-2.2111315342,-0.0377830619,3.1207960553\C,-1.2556599912,0.
 8341218921,3.6452080147\C,-0.6715587138,-1.9420140459,3.3676229696\C,1
 .0375891402,1.3222321819,3.5701682157\C,2.2385611471,0.9038934296,2.99
 04508482\C,2.5315030078,-0.5035744356,2.8547945619\C,1.6180644037,-1.4
 553056765,3.3014331027\C,0.0626773076,0.3310265918,3.9876401105\C,0.34
 84220369,-1.0263074052,3.8505448931\Cl,-2.3640538585,2.5538874852,-5.2
 497358187\Cl,0.5911157866,3.6166319519,-5.0778129056\Cl,1.8702186542,0
 .8095608676,-5.8896049619\Cl,2.65105443,-2.5407105476,-4.5244865913\Cl
 ,-4.8804823999,2.7111223331,-0.1732235155\\Version=ES64L-G16RevA.03\St
 ate=2-A\HF=-4816.5250647\S2=0.794407\S2-1=0.\S2A=0.751689\RMSD=5.036e-
 09\RMSF=8.695e-05\Dipole=0.4107906,-0.5362893,1.5215944\Quadrupole=-1.
 9387585,4.3534399,-2.4146814,7.0606328,3.8014373,1.3478261\PG=C01 [X(C
 66Cl5)]\\@


 CHINESE FORTUNE COOKIE OF JAN 1 1967 SAY....
 ALL THINGS ARE DIFFICULT BEFORE THEY ARE EASY.
 WE LEARN SO LITTLE AND FORGET SO MUCH.
 YOU WILL OVERCOME OBSTACLES TO ACHIEVE SUCCESS.
 AH SO.
 Job cpu time:       3 days 22 hours 58 minutes  0.3 seconds.
 Elapsed time:       0 days  1 hours 58 minutes 53.7 seconds.
 File lengths (MBytes):  RWF=   1887 Int=      0 D2E=      0 Chk=    170 Scr=      1
 Normal termination of Gaussian 16 at Sat Jul 16 11:05:19 2022.
