 Entering Gaussian System, Link 0=g16
 Input=dn2klvzb306io_addon_4.gjf
 Output=dn2klvzb306io_addon_4.log
 Initial command:
 /home/mkliu/g16/l1.exe "/data/scratch/Gau-222723.inp" -scrdir="/data/scratch/"
 Entering Link 1 = /home/mkliu/g16/l1.exe PID=    222724.
  
 Copyright (c) 1988,1990,1992,1993,1995,1998,2003,2009,2016,
            Gaussian, Inc.  All Rights Reserved.
  
 This is part of the Gaussian(R) 16 program.  It is based on
 the Gaussian(R) 09 system (copyright 2009, Gaussian, Inc.),
 the Gaussian(R) 03 system (copyright 2003, Gaussian, Inc.),
 the Gaussian(R) 98 system (copyright 1998, Gaussian, Inc.),
 the Gaussian(R) 94 system (copyright 1995, Gaussian, Inc.),
 the Gaussian 92(TM) system (copyright 1992, Gaussian, Inc.),
 the Gaussian 90(TM) system (copyright 1990, Gaussian, Inc.),
 the Gaussian 88(TM) system (copyright 1988, Gaussian, Inc.),
 the Gaussian 86(TM) system (copyright 1986, Carnegie Mellon
 University), and the Gaussian 82(TM) system (copyright 1983,
 Carnegie Mellon University). Gaussian is a federally registered
 trademark of Gaussian, Inc.
  
 This software contains proprietary and confidential information,
 including trade secrets, belonging to Gaussian, Inc.
  
 This software is provided under written license and may be
 used, copied, transmitted, or stored only in accord with that
 written license.
  
 The following legend is applicable only to US Government
 contracts under FAR:
  
                    RESTRICTED RIGHTS LEGEND
  
 Use, reproduction and disclosure by the US Government is
 subject to restrictions as set forth in subparagraphs (a)
 and (c) of the Commercial Computer Software - Restricted
 Rights clause in FAR 52.227-19.
  
 Gaussian, Inc.
 340 Quinnipiac St., Bldg. 40, Wallingford CT 06492
  
  
 ---------------------------------------------------------------
 Warning -- This program may not be used in any manner that
 competes with the business of Gaussian, Inc. or will provide
 assistance to any competitor of Gaussian, Inc.  The licensee
 of this program is prohibited from giving any competitor of
 Gaussian, Inc. access to this program.  By using this program,
 the user acknowledges that Gaussian, Inc. is engaged in the
 business of creating and licensing software in the field of
 computational chemistry and represents and warrants to the
 licensee that it is not a competitor of Gaussian, Inc. and that
 it will not use this program in any manner prohibited above.
 ---------------------------------------------------------------
  

 Cite this work as:
 Gaussian 16, Revision A.03,
 M. J. Frisch, G. W. Trucks, H. B. Schlegel, G. E. Scuseria, 
 M. A. Robb, J. R. Cheeseman, G. Scalmani, V. Barone, 
 G. A. Petersson, H. Nakatsuji, X. Li, M. Caricato, A. V. Marenich, 
 J. Bloino, B. G. Janesko, R. Gomperts, B. Mennucci, H. P. Hratchian, 
 J. V. Ortiz, A. F. Izmaylov, J. L. Sonnenberg, D. Williams-Young, 
 F. Ding, F. Lipparini, F. Egidi, J. Goings, B. Peng, A. Petrone, 
 T. Henderson, D. Ranasinghe, V. G. Zakrzewski, J. Gao, N. Rega, 
 G. Zheng, W. Liang, M. Hada, M. Ehara, K. Toyota, R. Fukuda, 
 J. Hasegawa, M. Ishida, T. Nakajima, Y. Honda, O. Kitao, H. Nakai, 
 T. Vreven, K. Throssell, J. A. Montgomery, Jr., J. E. Peralta, 
 F. Ogliaro, M. J. Bearpark, J. J. Heyd, E. N. Brothers, K. N. Kudin, 
 V. N. Staroverov, T. A. Keith, R. Kobayashi, J. Normand, 
 K. Raghavachari, A. P. Rendell, J. C. Burant, S. S. Iyengar, 
 J. Tomasi, M. Cossi, J. M. Millam, M. Klene, C. Adamo, R. Cammi, 
 J. W. Ochterski, R. L. Martin, K. Morokuma, O. Farkas, 
 J. B. Foresman, and D. J. Fox, Gaussian, Inc., Wallingford CT, 2016.
 
 ******************************************
 Gaussian 16:  ES64L-G16RevA.03 25-Dec-2016
                15-Jul-2022 
 ******************************************
 %mem=10GB
 %chk=dn2klvzb306io_addon_4.chk
 %nprocshared=48
 Will use up to   48 processors via shared memory.
 -------------------------------------------------
 #P opt b3lyp/6-311G(d, p) empiricaldispersion=GD3
 -------------------------------------------------
 1/18=20,19=15,26=3,38=1/1,3;
 2/9=110,12=2,17=6,18=5,40=1/2;
 3/5=4,6=6,7=101,11=2,25=1,30=1,71=1,74=-5,124=31/1,2,3;
 4//1;
 5/5=2,38=5/2;
 6/7=2,8=2,9=2,10=2,28=1/1;
 7//1,2,3,16;
 1/18=20,19=15,26=3/3(2);
 2/9=110/2;
 99//99;
 2/9=110/2;
 3/5=4,6=6,7=101,11=2,25=1,30=1,71=1,74=-5,124=31/1,2,3;
 4/5=5,16=3,69=1/1;
 5/5=2,38=5/2;
 7//1,2,3,16;
 1/18=20,19=15,26=3/3(-5);
 2/9=110/2;
 6/7=2,8=2,9=2,10=2,19=2,28=1/1;
 99/9=1/99;
 Leave Link    1 at Fri Jul 15 16:16:15 2022, MaxMem=  1342177280 cpu:               2.2 elap:               0.1
 (Enter /home/mkliu/g16/l101.exe)
 -----
 force
 -----
 Symbolic Z-matrix:
 Charge =  0 Multiplicity = 1
 C                    -1.29326   1.88308  -3.8905 
 C                     0.22359   2.28943  -4.07488 
 C                     0.96041   0.90206  -4.27388 
 C                    -1.32329   0.38441  -3.92804 
 C                    -0.08696  -0.14832  -4.1476 
 C                    -2.18202  -0.16913  -2.97075 
 C                    -1.93247   2.06904  -2.55482 
 C                    -2.62086   0.91622  -2.14467 
 C                    -1.40454   2.90745  -1.57025 
 C                     0.88714   2.90376  -2.79117 
 C                    -0.01036   3.23339  -1.63114 
 C                     1.82257   0.71668  -3.06406 
 C                     1.83711   1.83692  -2.30161 
 C                     2.21262  -0.55838  -2.54105 
 C                     0.19258  -1.38231  -3.59066 
 C                     1.46301  -1.66021  -2.96868 
 C                    -1.96452  -1.44511  -2.41206 
 C                    -0.80039  -2.09885  -2.87384 
 C                    -2.48427  -1.7474   -1.08902 
 C                    -3.06893   0.67213  -0.82665 
 C                    -3.08416  -0.68119  -0.30406 
 C                    -2.03708   2.82921  -0.31229 
 C                    -2.91063   1.763     0.03402 
 C                    -1.40241   3.25692   0.88553 
 C                     0.63463   3.42403  -0.42861 
 C                    -0.05558   3.53787   0.82672 
 C                     2.41499   1.83568  -1.00526 
 C                     1.92222   2.80346  -0.13133 
 C                     2.87144  -0.58939  -1.26514 
 C                     3.00498   0.63153  -0.5042 
 C                     2.87708  -1.81134  -0.56449 
 C                     1.27856  -2.78366  -2.10618 
 C                    -0.13396  -3.06408  -2.05228 
 C                     2.03068  -2.90132  -0.95864 
 C                    -1.92101  -2.83901  -0.41317 
 C                    -0.70682  -3.46995  -0.87399 
 C                    -1.90731  -2.92246   1.01749 
 C                    -3.12996  -0.82241   1.09197 
 C                    -2.51761  -1.93418   1.75972 
 C                    -2.88446   1.58377   1.45301 
 C                    -1.93847   2.51726   1.99712 
 C                    -3.00769   0.31364   1.97229 
 C                    -1.10837   2.12018   3.02808 
 C                     0.81209   3.10713   1.88642 
 C                     2.02817   2.64724   1.27346 
 C                     0.30187   2.42432   2.97496 
 C                     3.2194    0.55208   0.88669 
 C                     2.70202   1.54573   1.77996 
 C                     2.98921  -1.86607   0.86206 
 C                     3.17377  -0.70134   1.57657 
 C                     1.47111  -3.50211   0.2249 
 C                     0.11468  -3.78606   0.26652 
 C                    -0.65036  -3.47927   1.44015 
 C                     2.10469  -2.89045   1.35918 
 C                    -0.0218   -2.9615    2.5633 
 C                     1.38486  -2.65862   2.51846 
 C                    -1.91312  -1.46532   2.97763 
 C                    -2.21213  -0.06691   3.10431 
 C                    -1.25786   0.81156   3.59989 
 C                    -0.66864  -1.94642   3.34882 
 C                     1.01743   1.30241   3.52818 
 C                     2.21434   0.89245   2.96234 
 C                     2.51026  -0.50963   2.84041 
 C                     1.60244  -1.45472   3.27987 
 C                     0.05036   0.31821   3.94099 
 C                     0.33701  -1.03196   3.82107 
 Cl                   -2.34785   2.62841  -5.13682 
 Cl                    0.44884   3.3266   -5.49209 
 Cl                    1.91644   0.7538   -5.77565 
 Cl                    1.83035   4.40841  -3.16339 
 
 ITRead=  0  0  0  0  0  0  0  0  0  0  0  0  0  0  0  0  0  0  0  0
 ITRead=  0  0  0  0  0  0  0  0  0  0  0  0  0  0  0  0  0  0  0  0
 ITRead=  0  0  0  0  0  0  0  0  0  0  0  0  0  0  0  0  0  0  0  0
 ITRead=  0  0  0  0  0  0  0  0  0  0
 MicOpt= -1 -1 -1 -1 -1 -1 -1 -1 -1 -1 -1 -1 -1 -1 -1 -1 -1 -1 -1 -1
 MicOpt= -1 -1 -1 -1 -1 -1 -1 -1 -1 -1 -1 -1 -1 -1 -1 -1 -1 -1 -1 -1
 MicOpt= -1 -1 -1 -1 -1 -1 -1 -1 -1 -1 -1 -1 -1 -1 -1 -1 -1 -1 -1 -1
 MicOpt= -1 -1 -1 -1 -1 -1 -1 -1 -1 -1
 NAtoms=     70 NQM=       70 NQMF=       0 NMMI=      0 NMMIF=      0
                NMic=       0 NMicF=      0.
                    Isotopes and Nuclear Properties:
 (Nuclear quadrupole moments (NQMom) in fm**2, nuclear magnetic moments (NMagM)
  in nuclear magnetons)

  Atom         1           2           3           4           5           6           7           8           9          10
 IAtWgt=          12          12          12          12          12          12          12          12          12          12
 AtmWgt=  12.0000000  12.0000000  12.0000000  12.0000000  12.0000000  12.0000000  12.0000000  12.0000000  12.0000000  12.0000000
 NucSpn=           0           0           0           0           0           0           0           0           0           0
 AtZEff=  -0.0000000  -0.0000000  -0.0000000  -0.0000000  -0.0000000  -0.0000000  -0.0000000  -0.0000000  -0.0000000  -0.0000000
 NQMom=    0.0000000   0.0000000   0.0000000   0.0000000   0.0000000   0.0000000   0.0000000   0.0000000   0.0000000   0.0000000
 NMagM=    0.0000000   0.0000000   0.0000000   0.0000000   0.0000000   0.0000000   0.0000000   0.0000000   0.0000000   0.0000000
 AtZNuc=   6.0000000   6.0000000   6.0000000   6.0000000   6.0000000   6.0000000   6.0000000   6.0000000   6.0000000   6.0000000

  Atom        11          12          13          14          15          16          17          18          19          20
 IAtWgt=          12          12          12          12          12          12          12          12          12          12
 AtmWgt=  12.0000000  12.0000000  12.0000000  12.0000000  12.0000000  12.0000000  12.0000000  12.0000000  12.0000000  12.0000000
 NucSpn=           0           0           0           0           0           0           0           0           0           0
 AtZEff=  -0.0000000  -0.0000000  -0.0000000  -0.0000000  -0.0000000  -0.0000000  -0.0000000  -0.0000000  -0.0000000  -0.0000000
 NQMom=    0.0000000   0.0000000   0.0000000   0.0000000   0.0000000   0.0000000   0.0000000   0.0000000   0.0000000   0.0000000
 NMagM=    0.0000000   0.0000000   0.0000000   0.0000000   0.0000000   0.0000000   0.0000000   0.0000000   0.0000000   0.0000000
 AtZNuc=   6.0000000   6.0000000   6.0000000   6.0000000   6.0000000   6.0000000   6.0000000   6.0000000   6.0000000   6.0000000

  Atom        21          22          23          24          25          26          27          28          29          30
 IAtWgt=          12          12          12          12          12          12          12          12          12          12
 AtmWgt=  12.0000000  12.0000000  12.0000000  12.0000000  12.0000000  12.0000000  12.0000000  12.0000000  12.0000000  12.0000000
 NucSpn=           0           0           0           0           0           0           0           0           0           0
 AtZEff=  -0.0000000  -0.0000000  -0.0000000  -0.0000000  -0.0000000  -0.0000000  -0.0000000  -0.0000000  -0.0000000  -0.0000000
 NQMom=    0.0000000   0.0000000   0.0000000   0.0000000   0.0000000   0.0000000   0.0000000   0.0000000   0.0000000   0.0000000
 NMagM=    0.0000000   0.0000000   0.0000000   0.0000000   0.0000000   0.0000000   0.0000000   0.0000000   0.0000000   0.0000000
 AtZNuc=   6.0000000   6.0000000   6.0000000   6.0000000   6.0000000   6.0000000   6.0000000   6.0000000   6.0000000   6.0000000

  Atom        31          32          33          34          35          36          37          38          39          40
 IAtWgt=          12          12          12          12          12          12          12          12          12          12
 AtmWgt=  12.0000000  12.0000000  12.0000000  12.0000000  12.0000000  12.0000000  12.0000000  12.0000000  12.0000000  12.0000000
 NucSpn=           0           0           0           0           0           0           0           0           0           0
 AtZEff=  -0.0000000  -0.0000000  -0.0000000  -0.0000000  -0.0000000  -0.0000000  -0.0000000  -0.0000000  -0.0000000  -0.0000000
 NQMom=    0.0000000   0.0000000   0.0000000   0.0000000   0.0000000   0.0000000   0.0000000   0.0000000   0.0000000   0.0000000
 NMagM=    0.0000000   0.0000000   0.0000000   0.0000000   0.0000000   0.0000000   0.0000000   0.0000000   0.0000000   0.0000000
 AtZNuc=   6.0000000   6.0000000   6.0000000   6.0000000   6.0000000   6.0000000   6.0000000   6.0000000   6.0000000   6.0000000

  Atom        41          42          43          44          45          46          47          48          49          50
 IAtWgt=          12          12          12          12          12          12          12          12          12          12
 AtmWgt=  12.0000000  12.0000000  12.0000000  12.0000000  12.0000000  12.0000000  12.0000000  12.0000000  12.0000000  12.0000000
 NucSpn=           0           0           0           0           0           0           0           0           0           0
 AtZEff=  -0.0000000  -0.0000000  -0.0000000  -0.0000000  -0.0000000  -0.0000000  -0.0000000  -0.0000000  -0.0000000  -0.0000000
 NQMom=    0.0000000   0.0000000   0.0000000   0.0000000   0.0000000   0.0000000   0.0000000   0.0000000   0.0000000   0.0000000
 NMagM=    0.0000000   0.0000000   0.0000000   0.0000000   0.0000000   0.0000000   0.0000000   0.0000000   0.0000000   0.0000000
 AtZNuc=   6.0000000   6.0000000   6.0000000   6.0000000   6.0000000   6.0000000   6.0000000   6.0000000   6.0000000   6.0000000

  Atom        51          52          53          54          55          56          57          58          59          60
 IAtWgt=          12          12          12          12          12          12          12          12          12          12
 AtmWgt=  12.0000000  12.0000000  12.0000000  12.0000000  12.0000000  12.0000000  12.0000000  12.0000000  12.0000000  12.0000000
 NucSpn=           0           0           0           0           0           0           0           0           0           0
 AtZEff=  -0.0000000  -0.0000000  -0.0000000  -0.0000000  -0.0000000  -0.0000000  -0.0000000  -0.0000000  -0.0000000  -0.0000000
 NQMom=    0.0000000   0.0000000   0.0000000   0.0000000   0.0000000   0.0000000   0.0000000   0.0000000   0.0000000   0.0000000
 NMagM=    0.0000000   0.0000000   0.0000000   0.0000000   0.0000000   0.0000000   0.0000000   0.0000000   0.0000000   0.0000000
 AtZNuc=   6.0000000   6.0000000   6.0000000   6.0000000   6.0000000   6.0000000   6.0000000   6.0000000   6.0000000   6.0000000

  Atom        61          62          63          64          65          66          67          68          69          70
 IAtWgt=          12          12          12          12          12          12          35          35          35          35
 AtmWgt=  12.0000000  12.0000000  12.0000000  12.0000000  12.0000000  12.0000000  34.9688527  34.9688527  34.9688527  34.9688527
 NucSpn=           0           0           0           0           0           0           3           3           3           3
 AtZEff=  -0.0000000  -0.0000000  -0.0000000  -0.0000000  -0.0000000  -0.0000000  -0.0000000  -0.0000000  -0.0000000  -0.0000000
 NQMom=    0.0000000   0.0000000   0.0000000   0.0000000   0.0000000   0.0000000  -8.1650000  -8.1650000  -8.1650000  -8.1650000
 NMagM=    0.0000000   0.0000000   0.0000000   0.0000000   0.0000000   0.0000000   0.8218740   0.8218740   0.8218740   0.8218740
 AtZNuc=   6.0000000   6.0000000   6.0000000   6.0000000   6.0000000   6.0000000  17.0000000  17.0000000  17.0000000  17.0000000
 Leave Link  101 at Fri Jul 15 16:16:16 2022, MaxMem=  1342177280 cpu:              12.7 elap:               0.3
 (Enter /home/mkliu/g16/l103.exe)

 GradGradGradGradGradGradGradGradGradGradGradGradGradGradGradGradGradGrad
 Berny optimization.
 Initialization pass.
                           ----------------------------
                           !    Initial Parameters    !
                           ! (Angstroms and Degrees)  !
 --------------------------                            --------------------------
 ! Name  Definition              Value          Derivative Info.                !
 --------------------------------------------------------------------------------
 ! R1    R(1,2)                  1.5811         estimate D2E/DX2                !
 ! R2    R(1,4)                  1.4994         estimate D2E/DX2                !
 ! R3    R(1,7)                  1.4924         estimate D2E/DX2                !
 ! R4    R(1,67)                 1.7947         estimate D2E/DX2                !
 ! R5    R(2,3)                  1.5835         estimate D2E/DX2                !
 ! R6    R(2,10)                 1.5702         estimate D2E/DX2                !
 ! R7    R(2,68)                 1.7706         estimate D2E/DX2                !
 ! R8    R(3,5)                  1.4887         estimate D2E/DX2                !
 ! R9    R(3,12)                 1.4971         estimate D2E/DX2                !
 ! R10   R(3,69)                 1.7864         estimate D2E/DX2                !
 ! R11   R(4,5)                  1.364          estimate D2E/DX2                !
 ! R12   R(4,6)                  1.4001         estimate D2E/DX2                !
 ! R13   R(5,15)                 1.3824         estimate D2E/DX2                !
 ! R14   R(6,8)                  1.4328         estimate D2E/DX2                !
 ! R15   R(6,17)                 1.4098         estimate D2E/DX2                !
 ! R16   R(7,8)                  1.404          estimate D2E/DX2                !
 ! R17   R(7,9)                  1.3968         estimate D2E/DX2                !
 ! R18   R(8,20)                 1.4133         estimate D2E/DX2                !
 ! R19   R(9,11)                 1.4331         estimate D2E/DX2                !
 ! R20   R(9,22)                 1.4102         estimate D2E/DX2                !
 ! R21   R(10,11)                1.5033         estimate D2E/DX2                !
 ! R22   R(10,13)                1.5101         estimate D2E/DX2                !
 ! R23   R(10,70)                1.8144         estimate D2E/DX2                !
 ! R24   R(11,25)                1.3778         estimate D2E/DX2                !
 ! R25   R(12,13)                1.3552         estimate D2E/DX2                !
 ! R26   R(12,14)                1.4323         estimate D2E/DX2                !
 ! R27   R(13,27)                1.4193         estimate D2E/DX2                !
 ! R28   R(14,16)                1.3996         estimate D2E/DX2                !
 ! R29   R(14,29)                1.4363         estimate D2E/DX2                !
 ! R30   R(15,16)                1.4416         estimate D2E/DX2                !
 ! R31   R(15,18)                1.4189         estimate D2E/DX2                !
 ! R32   R(16,32)                1.4283         estimate D2E/DX2                !
 ! R33   R(17,18)                1.4127         estimate D2E/DX2                !
 ! R34   R(17,19)                1.4533         estimate D2E/DX2                !
 ! R35   R(18,33)                1.432          estimate D2E/DX2                !
 ! R36   R(19,21)                1.4536         estimate D2E/DX2                !
 ! R37   R(19,35)                1.402          estimate D2E/DX2                !
 ! R38   R(20,21)                1.4508         estimate D2E/DX2                !
 ! R39   R(20,23)                1.3985         estimate D2E/DX2                !
 ! R40   R(21,38)                1.4039         estimate D2E/DX2                !
 ! R41   R(22,23)                1.4212         estimate D2E/DX2                !
 ! R42   R(22,24)                1.4214         estimate D2E/DX2                !
 ! R43   R(23,40)                1.4305         estimate D2E/DX2                !
 ! R44   R(24,26)                1.3771         estimate D2E/DX2                !
 ! R45   R(24,41)                1.4388         estimate D2E/DX2                !
 ! R46   R(25,26)                1.4371         estimate D2E/DX2                !
 ! R47   R(25,28)                1.4599         estimate D2E/DX2                !
 ! R48   R(26,44)                1.4357         estimate D2E/DX2                !
 ! R49   R(27,28)                1.394          estimate D2E/DX2                !
 ! R50   R(27,30)                1.4315         estimate D2E/DX2                !
 ! R51   R(28,45)                1.4174         estimate D2E/DX2                !
 ! R52   R(29,30)                1.4448         estimate D2E/DX2                !
 ! R53   R(29,31)                1.4086         estimate D2E/DX2                !
 ! R54   R(30,47)                1.4096         estimate D2E/DX2                !
 ! R55   R(31,34)                1.4352         estimate D2E/DX2                !
 ! R56   R(31,49)                1.432          estimate D2E/DX2                !
 ! R57   R(32,33)                1.4411         estimate D2E/DX2                !
 ! R58   R(32,34)                1.3771         estimate D2E/DX2                !
 ! R59   R(33,36)                1.3716         estimate D2E/DX2                !
 ! R60   R(34,51)                1.4404         estimate D2E/DX2                !
 ! R61   R(35,36)                1.4438         estimate D2E/DX2                !
 ! R62   R(35,37)                1.4332         estimate D2E/DX2                !
 ! R63   R(36,52)                1.4407         estimate D2E/DX2                !
 ! R64   R(37,39)                1.3784         estimate D2E/DX2                !
 ! R65   R(37,53)                1.4383         estimate D2E/DX2                !
 ! R66   R(38,39)                1.4342         estimate D2E/DX2                !
 ! R67   R(38,42)                1.4424         estimate D2E/DX2                !
 ! R68   R(39,57)                1.4382         estimate D2E/DX2                !
 ! R69   R(40,41)                1.4361         estimate D2E/DX2                !
 ! R70   R(40,42)                1.3777         estimate D2E/DX2                !
 ! R71   R(41,43)                1.3819         estimate D2E/DX2                !
 ! R72   R(42,58)                1.435          estimate D2E/DX2                !
 ! R73   R(43,46)                1.4436         estimate D2E/DX2                !
 ! R74   R(43,59)                1.4359         estimate D2E/DX2                !
 ! R75   R(44,45)                1.4374         estimate D2E/DX2                !
 ! R76   R(44,46)                1.3826         estimate D2E/DX2                !
 ! R77   R(45,48)                1.3871         estimate D2E/DX2                !
 ! R78   R(46,61)                1.4411         estimate D2E/DX2                !
 ! R79   R(47,48)                1.4328         estimate D2E/DX2                !
 ! R80   R(47,50)                1.4315         estimate D2E/DX2                !
 ! R81   R(48,62)                1.4362         estimate D2E/DX2                !
 ! R82   R(49,50)                1.3788         estimate D2E/DX2                !
 ! R83   R(49,54)                1.4418         estimate D2E/DX2                !
 ! R84   R(50,63)                1.4402         estimate D2E/DX2                !
 ! R85   R(51,52)                1.3865         estimate D2E/DX2                !
 ! R86   R(51,54)                1.436          estimate D2E/DX2                !
 ! R87   R(52,53)                1.4342         estimate D2E/DX2                !
 ! R88   R(53,55)                1.3873         estimate D2E/DX2                !
 ! R89   R(54,56)                1.3841         estimate D2E/DX2                !
 ! R90   R(55,56)                1.4396         estimate D2E/DX2                !
 ! R91   R(55,60)                1.4373         estimate D2E/DX2                !
 ! R92   R(56,64)                1.441          estimate D2E/DX2                !
 ! R93   R(57,58)                1.4356         estimate D2E/DX2                !
 ! R94   R(57,60)                1.3849         estimate D2E/DX2                !
 ! R95   R(58,59)                1.3885         estimate D2E/DX2                !
 ! R96   R(59,65)                1.4392         estimate D2E/DX2                !
 ! R97   R(60,66)                1.439          estimate D2E/DX2                !
 ! R98   R(61,62)                1.3859         estimate D2E/DX2                !
 ! R99   R(61,65)                1.4402         estimate D2E/DX2                !
 ! R100  R(62,63)                1.4381         estimate D2E/DX2                !
 ! R101  R(63,64)                1.3822         estimate D2E/DX2                !
 ! R102  R(64,66)                1.4398         estimate D2E/DX2                !
 ! R103  R(65,66)                1.3855         estimate D2E/DX2                !
 ! A1    A(2,1,4)              105.8528         estimate D2E/DX2                !
 ! A2    A(2,1,7)              118.8981         estimate D2E/DX2                !
 ! A3    A(2,1,67)             112.0868         estimate D2E/DX2                !
 ! A4    A(4,1,7)               97.9536         estimate D2E/DX2                !
 ! A5    A(4,1,67)             112.7007         estimate D2E/DX2                !
 ! A6    A(7,1,67)             108.5475         estimate D2E/DX2                !
 ! A7    A(1,2,3)              103.644          estimate D2E/DX2                !
 ! A8    A(1,2,10)             114.2435         estimate D2E/DX2                !
 ! A9    A(1,2,68)             111.4654         estimate D2E/DX2                !
 ! A10   A(3,2,10)             104.4117         estimate D2E/DX2                !
 ! A11   A(3,2,68)             110.6987         estimate D2E/DX2                !
 ! A12   A(10,2,68)            111.8041         estimate D2E/DX2                !
 ! A13   A(2,3,5)              106.2694         estimate D2E/DX2                !
 ! A14   A(2,3,12)             105.9567         estimate D2E/DX2                !
 ! A15   A(2,3,69)             115.302          estimate D2E/DX2                !
 ! A16   A(5,3,12)             104.433          estimate D2E/DX2                !
 ! A17   A(5,3,69)             112.9086         estimate D2E/DX2                !
 ! A18   A(12,3,69)            111.154          estimate D2E/DX2                !
 ! A19   A(1,4,5)              112.1007         estimate D2E/DX2                !
 ! A20   A(1,4,6)              112.9748         estimate D2E/DX2                !
 ! A21   A(5,4,6)              120.7688         estimate D2E/DX2                !
 ! A22   A(3,5,4)              112.0726         estimate D2E/DX2                !
 ! A23   A(3,5,15)             121.4478         estimate D2E/DX2                !
 ! A24   A(4,5,15)             117.8438         estimate D2E/DX2                !
 ! A25   A(4,6,8)              106.4135         estimate D2E/DX2                !
 ! A26   A(4,6,17)             122.2873         estimate D2E/DX2                !
 ! A27   A(8,6,17)             120.2888         estimate D2E/DX2                !
 ! A28   A(1,7,8)              111.6643         estimate D2E/DX2                !
 ! A29   A(1,7,9)              122.9408         estimate D2E/DX2                !
 ! A30   A(8,7,9)              118.1812         estimate D2E/DX2                !
 ! A31   A(6,8,7)              107.6611         estimate D2E/DX2                !
 ! A32   A(6,8,20)             120.2604         estimate D2E/DX2                !
 ! A33   A(7,8,20)             124.7296         estimate D2E/DX2                !
 ! A34   A(7,9,11)             118.312          estimate D2E/DX2                !
 ! A35   A(7,9,22)             115.2108         estimate D2E/DX2                !
 ! A36   A(11,9,22)            119.1364         estimate D2E/DX2                !
 ! A37   A(2,10,11)            117.6689         estimate D2E/DX2                !
 ! A38   A(2,10,13)            104.7435         estimate D2E/DX2                !
 ! A39   A(2,10,70)            112.1108         estimate D2E/DX2                !
 ! A40   A(11,10,13)           106.2798         estimate D2E/DX2                !
 ! A41   A(11,10,70)           106.6676         estimate D2E/DX2                !
 ! A42   A(13,10,70)           108.9866         estimate D2E/DX2                !
 ! A43   A(9,11,10)            124.3149         estimate D2E/DX2                !
 ! A44   A(9,11,25)            116.731          estimate D2E/DX2                !
 ! A45   A(10,11,25)           115.1093         estimate D2E/DX2                !
 ! A46   A(3,12,13)            111.0067         estimate D2E/DX2                !
 ! A47   A(3,12,14)            124.2042         estimate D2E/DX2                !
 ! A48   A(13,12,14)           121.8389         estimate D2E/DX2                !
 ! A49   A(10,13,12)           113.2571         estimate D2E/DX2                !
 ! A50   A(10,13,27)           123.5643         estimate D2E/DX2                !
 ! A51   A(12,13,27)           121.1663         estimate D2E/DX2                !
 ! A52   A(12,14,16)           116.3216         estimate D2E/DX2                !
 ! A53   A(12,14,29)           117.9379         estimate D2E/DX2                !
 ! A54   A(16,14,29)           120.0067         estimate D2E/DX2                !
 ! A55   A(5,15,16)            121.6086         estimate D2E/DX2                !
 ! A56   A(5,15,18)            120.8508         estimate D2E/DX2                !
 ! A57   A(16,15,18)           107.5425         estimate D2E/DX2                !
 ! A58   A(14,16,15)           116.8774         estimate D2E/DX2                !
 ! A59   A(14,16,32)           120.2574         estimate D2E/DX2                !
 ! A60   A(15,16,32)           107.3596         estimate D2E/DX2                !
 ! A61   A(6,17,18)            114.6086         estimate D2E/DX2                !
 ! A62   A(6,17,19)            119.5949         estimate D2E/DX2                !
 ! A63   A(18,17,19)           119.7378         estimate D2E/DX2                !
 ! A64   A(15,18,17)           120.5384         estimate D2E/DX2                !
 ! A65   A(15,18,33)           107.7306         estimate D2E/DX2                !
 ! A66   A(17,18,33)           120.5211         estimate D2E/DX2                !
 ! A67   A(17,19,21)           119.1217         estimate D2E/DX2                !
 ! A68   A(17,19,35)           117.2022         estimate D2E/DX2                !
 ! A69   A(21,19,35)           118.4634         estimate D2E/DX2                !
 ! A70   A(8,20,21)            120.0233         estimate D2E/DX2                !
 ! A71   A(8,20,23)            113.7852         estimate D2E/DX2                !
 ! A72   A(21,20,23)           120.4728         estimate D2E/DX2                !
 ! A73   A(19,21,20)           119.037          estimate D2E/DX2                !
 ! A74   A(19,21,38)           118.469          estimate D2E/DX2                !
 ! A75   A(20,21,38)           116.8954         estimate D2E/DX2                !
 ! A76   A(9,22,23)            122.3226         estimate D2E/DX2                !
 ! A77   A(9,22,24)            122.3259         estimate D2E/DX2                !
 ! A78   A(23,22,24)           107.1481         estimate D2E/DX2                !
 ! A79   A(20,23,22)           120.3184         estimate D2E/DX2                !
 ! A80   A(20,23,40)           120.9843         estimate D2E/DX2                !
 ! A81   A(22,23,40)           108.9329         estimate D2E/DX2                !
 ! A82   A(22,24,26)           117.5218         estimate D2E/DX2                !
 ! A83   A(22,24,41)           109.2688         estimate D2E/DX2                !
 ! A84   A(26,24,41)           120.151          estimate D2E/DX2                !
 ! A85   A(11,25,26)           123.265          estimate D2E/DX2                !
 ! A86   A(11,25,28)           122.125          estimate D2E/DX2                !
 ! A87   A(26,25,28)           106.2237         estimate D2E/DX2                !
 ! A88   A(24,26,25)           119.3987         estimate D2E/DX2                !
 ! A89   A(24,26,44)           119.8892         estimate D2E/DX2                !
 ! A90   A(25,26,44)           109.3126         estimate D2E/DX2                !
 ! A91   A(13,27,28)           115.3456         estimate D2E/DX2                !
 ! A92   A(13,27,30)           119.2251         estimate D2E/DX2                !
 ! A93   A(28,27,30)           120.6813         estimate D2E/DX2                !
 ! A94   A(25,28,27)           118.6347         estimate D2E/DX2                !
 ! A95   A(25,28,45)           108.3361         estimate D2E/DX2                !
 ! A96   A(27,28,45)           121.2255         estimate D2E/DX2                !
 ! A97   A(14,29,30)           119.4723         estimate D2E/DX2                !
 ! A98   A(14,29,31)           117.5445         estimate D2E/DX2                !
 ! A99   A(30,29,31)           118.0818         estimate D2E/DX2                !
 ! A100  A(27,30,29)           119.2355         estimate D2E/DX2                !
 ! A101  A(27,30,47)           117.097          estimate D2E/DX2                !
 ! A102  A(29,30,47)           119.0856         estimate D2E/DX2                !
 ! A103  A(29,31,34)           121.3232         estimate D2E/DX2                !
 ! A104  A(29,31,49)           121.9374         estimate D2E/DX2                !
 ! A105  A(34,31,49)           106.9019         estimate D2E/DX2                !
 ! A106  A(16,32,33)           107.591          estimate D2E/DX2                !
 ! A107  A(16,32,34)           119.9917         estimate D2E/DX2                !
 ! A108  A(33,32,34)           119.1792         estimate D2E/DX2                !
 ! A109  A(18,33,32)           107.6693         estimate D2E/DX2                !
 ! A110  A(18,33,36)           119.8632         estimate D2E/DX2                !
 ! A111  A(32,33,36)           119.9398         estimate D2E/DX2                !
 ! A112  A(31,34,32)           119.0821         estimate D2E/DX2                !
 ! A113  A(31,34,51)           108.6761         estimate D2E/DX2                !
 ! A114  A(32,34,51)           120.5415         estimate D2E/DX2                !
 ! A115  A(19,35,36)           121.6165         estimate D2E/DX2                !
 ! A116  A(19,35,37)           122.0319         estimate D2E/DX2                !
 ! A117  A(36,35,37)           106.5662         estimate D2E/DX2                !
 ! A118  A(33,36,35)           119.7422         estimate D2E/DX2                !
 ! A119  A(33,36,52)           120.4543         estimate D2E/DX2                !
 ! A120  A(35,36,52)           108.8285         estimate D2E/DX2                !
 ! A121  A(35,37,39)           119.4419         estimate D2E/DX2                !
 ! A122  A(35,37,53)           108.9203         estimate D2E/DX2                !
 ! A123  A(39,37,53)           120.4149         estimate D2E/DX2                !
 ! A124  A(21,38,39)           121.8053         estimate D2E/DX2                !
 ! A125  A(21,38,42)           121.6619         estimate D2E/DX2                !
 ! A126  A(39,38,42)           106.8695         estimate D2E/DX2                !
 ! A127  A(37,39,38)           119.6112         estimate D2E/DX2                !
 ! A128  A(37,39,57)           120.2392         estimate D2E/DX2                !
 ! A129  A(38,39,57)           108.7242         estimate D2E/DX2                !
 ! A130  A(23,40,41)           107.8448         estimate D2E/DX2                !
 ! A131  A(23,40,42)           119.1931         estimate D2E/DX2                !
 ! A132  A(41,40,42)           121.0228         estimate D2E/DX2                !
 ! A133  A(24,41,40)           106.6711         estimate D2E/DX2                !
 ! A134  A(24,41,43)           120.0204         estimate D2E/DX2                !
 ! A135  A(40,41,43)           119.4448         estimate D2E/DX2                !
 ! A136  A(38,42,40)           120.2422         estimate D2E/DX2                !
 ! A137  A(38,42,58)           108.6377         estimate D2E/DX2                !
 ! A138  A(40,42,58)           119.4875         estimate D2E/DX2                !
 ! A139  A(41,43,46)           119.9213         estimate D2E/DX2                !
 ! A140  A(41,43,59)           119.7644         estimate D2E/DX2                !
 ! A141  A(46,43,59)           107.9599         estimate D2E/DX2                !
 ! A142  A(26,44,45)           107.0092         estimate D2E/DX2                !
 ! A143  A(26,44,46)           120.4157         estimate D2E/DX2                !
 ! A144  A(45,44,46)           119.3381         estimate D2E/DX2                !
 ! A145  A(28,45,44)           108.9135         estimate D2E/DX2                !
 ! A146  A(28,45,48)           119.0614         estimate D2E/DX2                !
 ! A147  A(44,45,48)           120.6224         estimate D2E/DX2                !
 ! A148  A(43,46,44)           119.572          estimate D2E/DX2                !
 ! A149  A(43,46,61)           107.8732         estimate D2E/DX2                !
 ! A150  A(44,46,61)           120.2311         estimate D2E/DX2                !
 ! A151  A(30,47,48)           121.4103         estimate D2E/DX2                !
 ! A152  A(30,47,50)           121.3366         estimate D2E/DX2                !
 ! A153  A(48,47,50)           107.1735         estimate D2E/DX2                !
 ! A154  A(45,48,47)           119.9003         estimate D2E/DX2                !
 ! A155  A(45,48,62)           119.7946         estimate D2E/DX2                !
 ! A156  A(47,48,62)           108.6886         estimate D2E/DX2                !
 ! A157  A(31,49,50)           119.6319         estimate D2E/DX2                !
 ! A158  A(31,49,54)           108.82           estimate D2E/DX2                !
 ! A159  A(50,49,54)           120.2381         estimate D2E/DX2                !
 ! A160  A(47,50,49)           119.6156         estimate D2E/DX2                !
 ! A161  A(47,50,63)           108.726          estimate D2E/DX2                !
 ! A162  A(49,50,63)           120.3653         estimate D2E/DX2                !
 ! A163  A(34,51,52)           119.3503         estimate D2E/DX2                !
 ! A164  A(34,51,54)           107.455          estimate D2E/DX2                !
 ! A165  A(52,51,54)           119.6808         estimate D2E/DX2                !
 ! A166  A(36,52,51)           119.2856         estimate D2E/DX2                !
 ! A167  A(36,52,53)           107.2606         estimate D2E/DX2                !
 ! A168  A(51,52,53)           120.1753         estimate D2E/DX2                !
 ! A169  A(37,53,52)           107.9705         estimate D2E/DX2                !
 ! A170  A(37,53,55)           119.3005         estimate D2E/DX2                !
 ! A171  A(52,53,55)           120.0439         estimate D2E/DX2                !
 ! A172  A(49,54,51)           107.5145         estimate D2E/DX2                !
 ! A173  A(49,54,56)           119.2631         estimate D2E/DX2                !
 ! A174  A(51,54,56)           120.2286         estimate D2E/DX2                !
 ! A175  A(53,55,56)           119.7366         estimate D2E/DX2                !
 ! A176  A(53,55,60)           120.1411         estimate D2E/DX2                !
 ! A177  A(56,55,60)           107.9496         estimate D2E/DX2                !
 ! A178  A(54,56,55)           119.9348         estimate D2E/DX2                !
 ! A179  A(54,56,64)           120.2624         estimate D2E/DX2                !
 ! A180  A(55,56,64)           107.8701         estimate D2E/DX2                !
 ! A181  A(39,57,58)           107.7419         estimate D2E/DX2                !
 ! A182  A(39,57,60)           119.4323         estimate D2E/DX2                !
 ! A183  A(58,57,60)           120.1255         estimate D2E/DX2                !
 ! A184  A(42,58,57)           107.7089         estimate D2E/DX2                !
 ! A185  A(42,58,59)           119.6566         estimate D2E/DX2                !
 ! A186  A(57,58,59)           120.3069         estimate D2E/DX2                !
 ! A187  A(43,59,58)           120.3984         estimate D2E/DX2                !
 ! A188  A(43,59,65)           108.1898         estimate D2E/DX2                !
 ! A189  A(58,59,65)           119.5014         estimate D2E/DX2                !
 ! A190  A(55,60,57)           120.2166         estimate D2E/DX2                !
 ! A191  A(55,60,66)           108.2798         estimate D2E/DX2                !
 ! A192  A(57,60,66)           119.6831         estimate D2E/DX2                !
 ! A193  A(46,61,62)           120.157          estimate D2E/DX2                !
 ! A194  A(46,61,65)           107.9764         estimate D2E/DX2                !
 ! A195  A(62,61,65)           119.6547         estimate D2E/DX2                !
 ! A196  A(48,62,61)           119.6578         estimate D2E/DX2                !
 ! A197  A(48,62,63)           107.6856         estimate D2E/DX2                !
 ! A198  A(61,62,63)           120.046          estimate D2E/DX2                !
 ! A199  A(50,63,62)           107.3958         estimate D2E/DX2                !
 ! A200  A(50,63,64)           119.3777         estimate D2E/DX2                !
 ! A201  A(62,63,64)           120.2992         estimate D2E/DX2                !
 ! A202  A(56,64,63)           120.1612         estimate D2E/DX2                !
 ! A203  A(56,64,66)           108.133          estimate D2E/DX2                !
 ! A204  A(63,64,66)           119.7361         estimate D2E/DX2                !
 ! A205  A(59,65,61)           107.95           estimate D2E/DX2                !
 ! A206  A(59,65,66)           120.1077         estimate D2E/DX2                !
 ! A207  A(61,65,66)           120.1466         estimate D2E/DX2                !
 ! A208  A(60,66,64)           107.7151         estimate D2E/DX2                !
 ! A209  A(60,66,65)           120.2071         estimate D2E/DX2                !
 ! A210  A(64,66,65)           120.0348         estimate D2E/DX2                !
 ! D1    D(4,1,2,3)              2.4234         estimate D2E/DX2                !
 ! D2    D(4,1,2,10)          -110.5435         estimate D2E/DX2                !
 ! D3    D(4,1,2,68)           121.5194         estimate D2E/DX2                !
 ! D4    D(7,1,2,3)            111.1496         estimate D2E/DX2                !
 ! D5    D(7,1,2,10)            -1.8173         estimate D2E/DX2                !
 ! D6    D(7,1,2,68)          -129.7544         estimate D2E/DX2                !
 ! D7    D(67,1,2,3)          -120.8187         estimate D2E/DX2                !
 ! D8    D(67,1,2,10)          126.2144         estimate D2E/DX2                !
 ! D9    D(67,1,2,68)           -1.7228         estimate D2E/DX2                !
 ! D10   D(2,1,4,5)             -2.041          estimate D2E/DX2                !
 ! D11   D(2,1,4,6)            138.4814         estimate D2E/DX2                !
 ! D12   D(7,1,4,5)           -125.1965         estimate D2E/DX2                !
 ! D13   D(7,1,4,6)             15.3259         estimate D2E/DX2                !
 ! D14   D(67,1,4,5)           120.8123         estimate D2E/DX2                !
 ! D15   D(67,1,4,6)           -98.6653         estimate D2E/DX2                !
 ! D16   D(2,1,7,8)           -131.3078         estimate D2E/DX2                !
 ! D17   D(2,1,7,9)             18.3339         estimate D2E/DX2                !
 ! D18   D(4,1,7,8)            -18.2182         estimate D2E/DX2                !
 ! D19   D(4,1,7,9)            131.4235         estimate D2E/DX2                !
 ! D20   D(67,1,7,8)            99.0329         estimate D2E/DX2                !
 ! D21   D(67,1,7,9)          -111.3254         estimate D2E/DX2                !
 ! D22   D(1,2,3,5)             -2.0646         estimate D2E/DX2                !
 ! D23   D(1,2,3,12)          -112.7659         estimate D2E/DX2                !
 ! D24   D(1,2,3,69)           123.8441         estimate D2E/DX2                !
 ! D25   D(10,2,3,5)           117.8457         estimate D2E/DX2                !
 ! D26   D(10,2,3,12)            7.1444         estimate D2E/DX2                !
 ! D27   D(10,2,3,69)         -116.2456         estimate D2E/DX2                !
 ! D28   D(68,2,3,5)          -121.686          estimate D2E/DX2                !
 ! D29   D(68,2,3,12)          127.6127         estimate D2E/DX2                !
 ! D30   D(68,2,3,69)            4.2227         estimate D2E/DX2                !
 ! D31   D(1,2,10,11)           -9.2384         estimate D2E/DX2                !
 ! D32   D(1,2,10,13)          108.49           estimate D2E/DX2                !
 ! D33   D(1,2,10,70)         -133.4728         estimate D2E/DX2                !
 ! D34   D(3,2,10,11)         -121.7476         estimate D2E/DX2                !
 ! D35   D(3,2,10,13)           -4.0192         estimate D2E/DX2                !
 ! D36   D(3,2,10,70)          114.018          estimate D2E/DX2                !
 ! D37   D(68,2,10,11)         118.5259         estimate D2E/DX2                !
 ! D38   D(68,2,10,13)        -123.7458         estimate D2E/DX2                !
 ! D39   D(68,2,10,70)          -5.7086         estimate D2E/DX2                !
 ! D40   D(2,3,5,4)              0.9515         estimate D2E/DX2                !
 ! D41   D(2,3,5,15)          -146.0579         estimate D2E/DX2                !
 ! D42   D(12,3,5,4)           112.7179         estimate D2E/DX2                !
 ! D43   D(12,3,5,15)          -34.2916         estimate D2E/DX2                !
 ! D44   D(69,3,5,4)          -126.3977         estimate D2E/DX2                !
 ! D45   D(69,3,5,15)           86.5928         estimate D2E/DX2                !
 ! D46   D(2,3,12,13)           -8.1326         estimate D2E/DX2                !
 ! D47   D(2,3,12,14)          152.6494         estimate D2E/DX2                !
 ! D48   D(5,3,12,13)         -120.1239         estimate D2E/DX2                !
 ! D49   D(5,3,12,14)           40.658          estimate D2E/DX2                !
 ! D50   D(69,3,12,13)         117.8313         estimate D2E/DX2                !
 ! D51   D(69,3,12,14)         -81.3867         estimate D2E/DX2                !
 ! D52   D(1,4,5,3)              0.7018         estimate D2E/DX2                !
 ! D53   D(1,4,5,15)           149.0103         estimate D2E/DX2                !
 ! D54   D(6,4,5,3)           -136.3578         estimate D2E/DX2                !
 ! D55   D(6,4,5,15)            11.9508         estimate D2E/DX2                !
 ! D56   D(1,4,6,8)             -7.4512         estimate D2E/DX2                !
 ! D57   D(1,4,6,17)          -151.3602         estimate D2E/DX2                !
 ! D58   D(5,4,6,8)            129.2689         estimate D2E/DX2                !
 ! D59   D(5,4,6,17)           -14.6401         estimate D2E/DX2                !
 ! D60   D(3,5,15,16)            7.1786         estimate D2E/DX2                !
 ! D61   D(3,5,15,18)          148.4253         estimate D2E/DX2                !
 ! D62   D(4,5,15,16)         -138.025          estimate D2E/DX2                !
 ! D63   D(4,5,15,18)            3.2217         estimate D2E/DX2                !
 ! D64   D(4,6,8,7)             -4.7819         estimate D2E/DX2                !
 ! D65   D(4,6,8,20)          -156.179          estimate D2E/DX2                !
 ! D66   D(17,6,8,7)           139.9985         estimate D2E/DX2                !
 ! D67   D(17,6,8,20)          -11.3986         estimate D2E/DX2                !
 ! D68   D(4,6,17,18)            1.3532         estimate D2E/DX2                !
 ! D69   D(4,6,17,19)          153.9236         estimate D2E/DX2                !
 ! D70   D(8,6,17,18)         -137.7733         estimate D2E/DX2                !
 ! D71   D(8,6,17,19)           14.7971         estimate D2E/DX2                !
 ! D72   D(1,7,8,6)             15.4467         estimate D2E/DX2                !
 ! D73   D(1,7,8,20)           165.2387         estimate D2E/DX2                !
 ! D74   D(9,7,8,6)           -135.7898         estimate D2E/DX2                !
 ! D75   D(9,7,8,20)            14.0022         estimate D2E/DX2                !
 ! D76   D(1,7,9,11)           -22.1575         estimate D2E/DX2                !
 ! D77   D(1,7,9,22)          -172.0284         estimate D2E/DX2                !
 ! D78   D(8,7,9,11)           125.6427         estimate D2E/DX2                !
 ! D79   D(8,7,9,22)           -24.2282         estimate D2E/DX2                !
 ! D80   D(6,8,20,21)            0.0897         estimate D2E/DX2                !
 ! D81   D(6,8,20,23)          153.571          estimate D2E/DX2                !
 ! D82   D(7,8,20,21)         -146.1957         estimate D2E/DX2                !
 ! D83   D(7,8,20,23)            7.2856         estimate D2E/DX2                !
 ! D84   D(7,9,11,10)            9.4546         estimate D2E/DX2                !
 ! D85   D(7,9,11,25)         -147.3236         estimate D2E/DX2                !
 ! D86   D(22,9,11,10)         158.1272         estimate D2E/DX2                !
 ! D87   D(22,9,11,25)           1.349          estimate D2E/DX2                !
 ! D88   D(7,9,22,23)           14.9685         estimate D2E/DX2                !
 ! D89   D(7,9,22,24)          159.3869         estimate D2E/DX2                !
 ! D90   D(11,9,22,23)        -134.6389         estimate D2E/DX2                !
 ! D91   D(11,9,22,24)           9.7796         estimate D2E/DX2                !
 ! D92   D(2,10,11,9)            6.258          estimate D2E/DX2                !
 ! D93   D(2,10,11,25)         163.3717         estimate D2E/DX2                !
 ! D94   D(13,10,11,9)        -110.6447         estimate D2E/DX2                !
 ! D95   D(13,10,11,25)         46.4689         estimate D2E/DX2                !
 ! D96   D(70,10,11,9)         133.1724         estimate D2E/DX2                !
 ! D97   D(70,10,11,25)        -69.714          estimate D2E/DX2                !
 ! D98   D(2,10,13,12)          -0.8391         estimate D2E/DX2                !
 ! D99   D(2,10,13,27)        -164.8202         estimate D2E/DX2                !
 ! D100  D(11,10,13,12)        124.4063         estimate D2E/DX2                !
 ! D101  D(11,10,13,27)        -39.5747         estimate D2E/DX2                !
 ! D102  D(70,10,13,12)       -120.9816         estimate D2E/DX2                !
 ! D103  D(70,10,13,27)         75.0374         estimate D2E/DX2                !
 ! D104  D(9,11,25,26)         -10.9945         estimate D2E/DX2                !
 ! D105  D(9,11,25,28)         132.7568         estimate D2E/DX2                !
 ! D106  D(10,11,25,26)       -169.9157         estimate D2E/DX2                !
 ! D107  D(10,11,25,28)        -26.1643         estimate D2E/DX2                !
 ! D108  D(3,12,13,10)           5.7904         estimate D2E/DX2                !
 ! D109  D(3,12,13,27)         170.2017         estimate D2E/DX2                !
 ! D110  D(14,12,13,10)       -155.5196         estimate D2E/DX2                !
 ! D111  D(14,12,13,27)          8.8917         estimate D2E/DX2                !
 ! D112  D(3,12,14,16)         -17.463          estimate D2E/DX2                !
 ! D113  D(3,12,14,29)        -170.8309         estimate D2E/DX2                !
 ! D114  D(13,12,14,16)        141.3317         estimate D2E/DX2                !
 ! D115  D(13,12,14,29)        -12.0362         estimate D2E/DX2                !
 ! D116  D(10,13,27,28)          7.6868         estimate D2E/DX2                !
 ! D117  D(10,13,27,30)        163.4649         estimate D2E/DX2                !
 ! D118  D(12,13,27,28)       -155.0779         estimate D2E/DX2                !
 ! D119  D(12,13,27,30)          0.7002         estimate D2E/DX2                !
 ! D120  D(12,14,16,15)        -15.7112         estimate D2E/DX2                !
 ! D121  D(12,14,16,32)       -148.7836         estimate D2E/DX2                !
 ! D122  D(29,14,16,15)        137.0749         estimate D2E/DX2                !
 ! D123  D(29,14,16,32)          4.0025         estimate D2E/DX2                !
 ! D124  D(12,14,29,30)          5.7235         estimate D2E/DX2                !
 ! D125  D(12,14,29,31)        160.4894         estimate D2E/DX2                !
 ! D126  D(16,14,29,30)       -146.6328         estimate D2E/DX2                !
 ! D127  D(16,14,29,31)          8.1331         estimate D2E/DX2                !
 ! D128  D(5,15,16,14)          21.1913         estimate D2E/DX2                !
 ! D129  D(5,15,16,32)         159.8083         estimate D2E/DX2                !
 ! D130  D(18,15,16,14)       -124.5029         estimate D2E/DX2                !
 ! D131  D(18,15,16,32)         14.1141         estimate D2E/DX2                !
 ! D132  D(5,15,18,17)         -16.6087         estimate D2E/DX2                !
 ! D133  D(5,15,18,33)        -160.4782         estimate D2E/DX2                !
 ! D134  D(16,15,18,17)        129.3972         estimate D2E/DX2                !
 ! D135  D(16,15,18,33)        -14.4723         estimate D2E/DX2                !
 ! D136  D(14,16,32,33)        128.6684         estimate D2E/DX2                !
 ! D137  D(14,16,32,34)        -12.0026         estimate D2E/DX2                !
 ! D138  D(15,16,32,33)         -8.2784         estimate D2E/DX2                !
 ! D139  D(15,16,32,34)       -148.9495         estimate D2E/DX2                !
 ! D140  D(6,17,18,15)          13.6675         estimate D2E/DX2                !
 ! D141  D(6,17,18,33)         152.9786         estimate D2E/DX2                !
 ! D142  D(19,17,18,15)       -138.8606         estimate D2E/DX2                !
 ! D143  D(19,17,18,33)          0.4505         estimate D2E/DX2                !
 ! D144  D(6,17,19,21)          -7.0385         estimate D2E/DX2                !
 ! D145  D(6,17,19,35)        -161.1622         estimate D2E/DX2                !
 ! D146  D(18,17,19,21)        144.1231         estimate D2E/DX2                !
 ! D147  D(18,17,19,35)        -10.0006         estimate D2E/DX2                !
 ! D148  D(15,18,33,32)          9.3365         estimate D2E/DX2                !
 ! D149  D(15,18,33,36)        151.2337         estimate D2E/DX2                !
 ! D150  D(17,18,33,32)       -134.5405         estimate D2E/DX2                !
 ! D151  D(17,18,33,36)          7.3567         estimate D2E/DX2                !
 ! D152  D(17,19,21,20)         -3.9858         estimate D2E/DX2                !
 ! D153  D(17,19,21,38)       -156.8093         estimate D2E/DX2                !
 ! D154  D(35,19,21,20)        149.8125         estimate D2E/DX2                !
 ! D155  D(35,19,21,38)         -3.0109         estimate D2E/DX2                !
 ! D156  D(17,19,35,36)         12.2775         estimate D2E/DX2                !
 ! D157  D(17,19,35,37)        153.5469         estimate D2E/DX2                !
 ! D158  D(21,19,35,36)       -142.021          estimate D2E/DX2                !
 ! D159  D(21,19,35,37)         -0.7516         estimate D2E/DX2                !
 ! D160  D(8,20,21,19)           7.4405         estimate D2E/DX2                !
 ! D161  D(8,20,21,38)         160.684          estimate D2E/DX2                !
 ! D162  D(23,20,21,19)       -144.2622         estimate D2E/DX2                !
 ! D163  D(23,20,21,38)          8.9814         estimate D2E/DX2                !
 ! D164  D(8,20,23,22)         -17.0335         estimate D2E/DX2                !
 ! D165  D(8,20,23,40)        -159.1802         estimate D2E/DX2                !
 ! D166  D(21,20,23,22)        136.3166         estimate D2E/DX2                !
 ! D167  D(21,20,23,40)         -5.8301         estimate D2E/DX2                !
 ! D168  D(19,21,38,39)          4.6539         estimate D2E/DX2                !
 ! D169  D(19,21,38,42)        146.2474         estimate D2E/DX2                !
 ! D170  D(20,21,38,39)       -148.7462         estimate D2E/DX2                !
 ! D171  D(20,21,38,42)         -7.1527         estimate D2E/DX2                !
 ! D172  D(9,22,23,20)           6.4632         estimate D2E/DX2                !
 ! D173  D(9,22,23,40)         152.6718         estimate D2E/DX2                !
 ! D174  D(24,22,23,20)       -142.5689         estimate D2E/DX2                !
 ! D175  D(24,22,23,40)          3.6398         estimate D2E/DX2                !
 ! D176  D(9,22,24,26)         -11.1689         estimate D2E/DX2                !
 ! D177  D(9,22,24,41)        -152.6254         estimate D2E/DX2                !
 ! D178  D(23,22,24,26)        137.8619         estimate D2E/DX2                !
 ! D179  D(23,22,24,41)         -3.5946         estimate D2E/DX2                !
 ! D180  D(20,23,40,41)        143.6198         estimate D2E/DX2                !
 ! D181  D(20,23,40,42)          0.4826         estimate D2E/DX2                !
 ! D182  D(22,23,40,41)         -2.3234         estimate D2E/DX2                !
 ! D183  D(22,23,40,42)       -145.4606         estimate D2E/DX2                !
 ! D184  D(22,24,26,25)          1.628          estimate D2E/DX2                !
 ! D185  D(22,24,26,44)       -137.9858         estimate D2E/DX2                !
 ! D186  D(41,24,26,25)        138.766          estimate D2E/DX2                !
 ! D187  D(41,24,26,44)         -0.8478         estimate D2E/DX2                !
 ! D188  D(22,24,41,40)          2.1738         estimate D2E/DX2                !
 ! D189  D(22,24,41,43)        142.1431         estimate D2E/DX2                !
 ! D190  D(26,24,41,40)       -138.1048         estimate D2E/DX2                !
 ! D191  D(26,24,41,43)          1.8645         estimate D2E/DX2                !
 ! D192  D(11,25,26,24)          9.7034         estimate D2E/DX2                !
 ! D193  D(11,25,26,44)        153.1729         estimate D2E/DX2                !
 ! D194  D(28,25,26,24)       -138.8619         estimate D2E/DX2                !
 ! D195  D(28,25,26,44)          4.6076         estimate D2E/DX2                !
 ! D196  D(11,25,28,27)         -9.7484         estimate D2E/DX2                !
 ! D197  D(11,25,28,45)       -153.1848         estimate D2E/DX2                !
 ! D198  D(26,25,28,27)        139.2604         estimate D2E/DX2                !
 ! D199  D(26,25,28,45)         -4.176          estimate D2E/DX2                !
 ! D200  D(24,26,44,45)        139.948          estimate D2E/DX2                !
 ! D201  D(24,26,44,46)         -0.7421         estimate D2E/DX2                !
 ! D202  D(25,26,44,45)         -3.314          estimate D2E/DX2                !
 ! D203  D(25,26,44,46)       -144.004          estimate D2E/DX2                !
 ! D204  D(13,27,28,25)         18.866          estimate D2E/DX2                !
 ! D205  D(13,27,28,45)        157.4696         estimate D2E/DX2                !
 ! D206  D(30,27,28,25)       -136.5312         estimate D2E/DX2                !
 ! D207  D(30,27,28,45)          2.0724         estimate D2E/DX2                !
 ! D208  D(13,27,30,29)         -6.6716         estimate D2E/DX2                !
 ! D209  D(13,27,30,47)       -162.4738         estimate D2E/DX2                !
 ! D210  D(28,27,30,29)        147.7891         estimate D2E/DX2                !
 ! D211  D(28,27,30,47)         -8.0131         estimate D2E/DX2                !
 ! D212  D(25,28,45,44)          2.2171         estimate D2E/DX2                !
 ! D213  D(25,28,45,48)        145.9641         estimate D2E/DX2                !
 ! D214  D(27,28,45,44)       -140.0898         estimate D2E/DX2                !
 ! D215  D(27,28,45,48)          3.6571         estimate D2E/DX2                !
 ! D216  D(14,29,30,27)          3.2873         estimate D2E/DX2                !
 ! D217  D(14,29,30,47)        158.6071         estimate D2E/DX2                !
 ! D218  D(31,29,30,27)       -151.3446         estimate D2E/DX2                !
 ! D219  D(31,29,30,47)          3.9751         estimate D2E/DX2                !
 ! D220  D(14,29,31,34)        -12.8397         estimate D2E/DX2                !
 ! D221  D(14,29,31,49)       -154.1366         estimate D2E/DX2                !
 ! D222  D(30,29,31,34)        142.2833         estimate D2E/DX2                !
 ! D223  D(30,29,31,49)          0.9864         estimate D2E/DX2                !
 ! D224  D(27,30,47,48)          8.5363         estimate D2E/DX2                !
 ! D225  D(27,30,47,50)        149.511          estimate D2E/DX2                !
 ! D226  D(29,30,47,48)       -147.3034         estimate D2E/DX2                !
 ! D227  D(29,30,47,50)         -6.3287         estimate D2E/DX2                !
 ! D228  D(29,31,34,32)          5.184          estimate D2E/DX2                !
 ! D229  D(29,31,34,51)       -138.1173         estimate D2E/DX2                !
 ! D230  D(49,31,34,32)        151.5016         estimate D2E/DX2                !
 ! D231  D(49,31,34,51)          8.2002         estimate D2E/DX2                !
 ! D232  D(29,31,49,50)         -3.7687         estimate D2E/DX2                !
 ! D233  D(29,31,49,54)        139.9335         estimate D2E/DX2                !
 ! D234  D(34,31,49,50)       -149.8329         estimate D2E/DX2                !
 ! D235  D(34,31,49,54)         -6.1307         estimate D2E/DX2                !
 ! D236  D(16,32,33,18)         -0.5553         estimate D2E/DX2                !
 ! D237  D(16,32,33,36)       -142.4179         estimate D2E/DX2                !
 ! D238  D(34,32,33,18)        140.4911         estimate D2E/DX2                !
 ! D239  D(34,32,33,36)         -1.3715         estimate D2E/DX2                !
 ! D240  D(16,32,34,31)          7.3699         estimate D2E/DX2                !
 ! D241  D(16,32,34,51)        146.2729         estimate D2E/DX2                !
 ! D242  D(33,32,34,31)       -128.8459         estimate D2E/DX2                !
 ! D243  D(33,32,34,51)         10.0571         estimate D2E/DX2                !
 ! D244  D(18,33,36,35)         -5.2604         estimate D2E/DX2                !
 ! D245  D(18,33,36,52)       -145.3581         estimate D2E/DX2                !
 ! D246  D(32,33,36,35)        132.0122         estimate D2E/DX2                !
 ! D247  D(32,33,36,52)         -8.0855         estimate D2E/DX2                !
 ! D248  D(31,34,51,52)        133.396          estimate D2E/DX2                !
 ! D249  D(31,34,51,54)         -7.1671         estimate D2E/DX2                !
 ! D250  D(32,34,51,52)         -9.2749         estimate D2E/DX2                !
 ! D251  D(32,34,51,54)       -149.838          estimate D2E/DX2                !
 ! D252  D(19,35,36,33)         -4.8097         estimate D2E/DX2                !
 ! D253  D(19,35,36,52)        139.4409         estimate D2E/DX2                !
 ! D254  D(37,35,36,33)       -151.2109         estimate D2E/DX2                !
 ! D255  D(37,35,36,52)         -6.9603         estimate D2E/DX2                !
 ! D256  D(19,35,37,39)          3.0181         estimate D2E/DX2                !
 ! D257  D(19,35,37,53)       -140.884          estimate D2E/DX2                !
 ! D258  D(36,35,37,39)        149.2475         estimate D2E/DX2                !
 ! D259  D(36,35,37,53)          5.3454         estimate D2E/DX2                !
 ! D260  D(33,36,52,51)          8.8329         estimate D2E/DX2                !
 ! D261  D(33,36,52,53)        149.8872         estimate D2E/DX2                !
 ! D262  D(35,36,52,51)       -135.119          estimate D2E/DX2                !
 ! D263  D(35,36,52,53)          5.9353         estimate D2E/DX2                !
 ! D264  D(35,37,39,38)         -1.4246         estimate D2E/DX2                !
 ! D265  D(35,37,39,57)       -140.7735         estimate D2E/DX2                !
 ! D266  D(53,37,39,38)        138.3143         estimate D2E/DX2                !
 ! D267  D(53,37,39,57)         -1.0346         estimate D2E/DX2                !
 ! D268  D(35,37,53,52)         -1.7589         estimate D2E/DX2                !
 ! D269  D(35,37,53,55)        140.0152         estimate D2E/DX2                !
 ! D270  D(39,37,53,52)       -145.2495         estimate D2E/DX2                !
 ! D271  D(39,37,53,55)         -3.4754         estimate D2E/DX2                !
 ! D272  D(21,38,39,37)         -2.4417         estimate D2E/DX2                !
 ! D273  D(21,38,39,57)        141.0985         estimate D2E/DX2                !
 ! D274  D(42,38,39,37)       -148.8996         estimate D2E/DX2                !
 ! D275  D(42,38,39,57)         -5.3594         estimate D2E/DX2                !
 ! D276  D(21,38,42,40)          2.1035         estimate D2E/DX2                !
 ! D277  D(21,38,42,58)       -140.8304         estimate D2E/DX2                !
 ! D278  D(39,38,42,40)        148.6201         estimate D2E/DX2                !
 ! D279  D(39,38,42,58)          5.6862         estimate D2E/DX2                !
 ! D280  D(37,39,57,58)        146.3095         estimate D2E/DX2                !
 ! D281  D(37,39,57,60)          4.5364         estimate D2E/DX2                !
 ! D282  D(38,39,57,58)          3.0377         estimate D2E/DX2                !
 ! D283  D(38,39,57,60)       -138.7354         estimate D2E/DX2                !
 ! D284  D(23,40,41,24)          0.0933         estimate D2E/DX2                !
 ! D285  D(23,40,41,43)       -140.1508         estimate D2E/DX2                !
 ! D286  D(42,40,41,24)        142.4231         estimate D2E/DX2                !
 ! D287  D(42,40,41,43)          2.179          estimate D2E/DX2                !
 ! D288  D(23,40,42,38)          1.4383         estimate D2E/DX2                !
 ! D289  D(23,40,42,58)        140.4338         estimate D2E/DX2                !
 ! D290  D(41,40,42,38)       -136.7754         estimate D2E/DX2                !
 ! D291  D(41,40,42,58)          2.2201         estimate D2E/DX2                !
 ! D292  D(24,41,43,46)         -1.2807         estimate D2E/DX2                !
 ! D293  D(24,41,43,59)       -138.9245         estimate D2E/DX2                !
 ! D294  D(40,41,43,46)        133.6827         estimate D2E/DX2                !
 ! D295  D(40,41,43,59)         -3.9611         estimate D2E/DX2                !
 ! D296  D(38,42,58,57)         -3.8638         estimate D2E/DX2                !
 ! D297  D(38,42,58,59)        138.4524         estimate D2E/DX2                !
 ! D298  D(40,42,58,57)       -147.1231         estimate D2E/DX2                !
 ! D299  D(40,42,58,59)         -4.8069         estimate D2E/DX2                !
 ! D300  D(41,43,46,44)         -0.2962         estimate D2E/DX2                !
 ! D301  D(41,43,46,61)       -142.5973         estimate D2E/DX2                !
 ! D302  D(59,43,46,44)        141.7655         estimate D2E/DX2                !
 ! D303  D(59,43,46,61)         -0.5356         estimate D2E/DX2                !
 ! D304  D(41,43,59,58)          1.3707         estimate D2E/DX2                !
 ! D305  D(41,43,59,65)        143.9061         estimate D2E/DX2                !
 ! D306  D(46,43,59,58)       -140.7611         estimate D2E/DX2                !
 ! D307  D(46,43,59,65)          1.7743         estimate D2E/DX2                !
 ! D308  D(26,44,45,28)          0.6386         estimate D2E/DX2                !
 ! D309  D(26,44,45,48)       -142.4436         estimate D2E/DX2                !
 ! D310  D(46,44,45,28)        141.8311         estimate D2E/DX2                !
 ! D311  D(46,44,45,48)         -1.2511         estimate D2E/DX2                !
 ! D312  D(26,44,46,43)          1.3165         estimate D2E/DX2                !
 ! D313  D(26,44,46,61)        138.9703         estimate D2E/DX2                !
 ! D314  D(45,44,46,43)       -134.6616         estimate D2E/DX2                !
 ! D315  D(45,44,46,61)          2.9922         estimate D2E/DX2                !
 ! D316  D(28,45,48,47)         -3.1535         estimate D2E/DX2                !
 ! D317  D(28,45,48,62)       -142.1945         estimate D2E/DX2                !
 ! D318  D(44,45,48,47)        136.2986         estimate D2E/DX2                !
 ! D319  D(44,45,48,62)         -2.7424         estimate D2E/DX2                !
 ! D320  D(43,46,61,62)        141.2906         estimate D2E/DX2                !
 ! D321  D(43,46,61,65)         -0.9047         estimate D2E/DX2                !
 ! D322  D(44,46,61,62)         -0.7161         estimate D2E/DX2                !
 ! D323  D(44,46,61,65)       -142.9113         estimate D2E/DX2                !
 ! D324  D(30,47,48,45)         -3.0867         estimate D2E/DX2                !
 ! D325  D(30,47,48,62)        140.0053         estimate D2E/DX2                !
 ! D326  D(50,47,48,45)       -148.8294         estimate D2E/DX2                !
 ! D327  D(50,47,48,62)         -5.7374         estimate D2E/DX2                !
 ! D328  D(30,47,50,49)          3.5857         estimate D2E/DX2                !
 ! D329  D(30,47,50,63)       -140.1861         estimate D2E/DX2                !
 ! D330  D(48,47,50,49)        149.359          estimate D2E/DX2                !
 ! D331  D(48,47,50,63)          5.5872         estimate D2E/DX2                !
 ! D332  D(45,48,62,61)          5.011          estimate D2E/DX2                !
 ! D333  D(45,48,62,63)        146.8544         estimate D2E/DX2                !
 ! D334  D(47,48,62,61)       -138.1265         estimate D2E/DX2                !
 ! D335  D(47,48,62,63)          3.7169         estimate D2E/DX2                !
 ! D336  D(31,49,50,47)          1.4733         estimate D2E/DX2                !
 ! D337  D(31,49,50,63)        141.0291         estimate D2E/DX2                !
 ! D338  D(54,49,50,47)       -138.0922         estimate D2E/DX2                !
 ! D339  D(54,49,50,63)          1.4636         estimate D2E/DX2                !
 ! D340  D(31,49,54,51)          1.766          estimate D2E/DX2                !
 ! D341  D(31,49,54,56)       -139.6761         estimate D2E/DX2                !
 ! D342  D(50,49,54,51)        145.2106         estimate D2E/DX2                !
 ! D343  D(50,49,54,56)          3.7685         estimate D2E/DX2                !
 ! D344  D(47,50,63,62)         -3.3269         estimate D2E/DX2                !
 ! D345  D(47,50,63,64)        138.2177         estimate D2E/DX2                !
 ! D346  D(49,50,63,62)       -146.7798         estimate D2E/DX2                !
 ! D347  D(49,50,63,64)         -5.2352         estimate D2E/DX2                !
 ! D348  D(34,51,52,36)         -0.1943         estimate D2E/DX2                !
 ! D349  D(34,51,52,53)       -136.2174         estimate D2E/DX2                !
 ! D350  D(54,51,52,36)        135.5798         estimate D2E/DX2                !
 ! D351  D(54,51,52,53)         -0.4433         estimate D2E/DX2                !
 ! D352  D(34,51,54,49)          3.2988         estimate D2E/DX2                !
 ! D353  D(34,51,54,56)        144.2975         estimate D2E/DX2                !
 ! D354  D(52,51,54,49)       -137.1101         estimate D2E/DX2                !
 ! D355  D(52,51,54,56)          3.8887         estimate D2E/DX2                !
 ! D356  D(36,52,53,37)         -2.5656         estimate D2E/DX2                !
 ! D357  D(36,52,53,55)       -144.0041         estimate D2E/DX2                !
 ! D358  D(51,52,53,37)        138.0749         estimate D2E/DX2                !
 ! D359  D(51,52,53,55)         -3.3635         estimate D2E/DX2                !
 ! D360  D(37,53,55,56)       -133.4321         estimate D2E/DX2                !
 ! D361  D(37,53,55,60)          4.4776         estimate D2E/DX2                !
 ! D362  D(52,53,55,56)          3.7296         estimate D2E/DX2                !
 ! D363  D(52,53,55,60)        141.6393         estimate D2E/DX2                !
 ! D364  D(49,54,56,55)        133.0143         estimate D2E/DX2                !
 ! D365  D(49,54,56,64)         -5.2263         estimate D2E/DX2                !
 ! D366  D(51,54,56,55)         -3.5172         estimate D2E/DX2                !
 ! D367  D(51,54,56,64)       -141.7579         estimate D2E/DX2                !
 ! D368  D(53,55,56,54)         -0.2971         estimate D2E/DX2                !
 ! D369  D(53,55,56,64)        142.517          estimate D2E/DX2                !
 ! D370  D(60,55,56,54)       -142.7562         estimate D2E/DX2                !
 ! D371  D(60,55,56,64)          0.0578         estimate D2E/DX2                !
 ! D372  D(53,55,60,57)         -0.987          estimate D2E/DX2                !
 ! D373  D(53,55,60,66)       -143.7279         estimate D2E/DX2                !
 ! D374  D(56,55,60,57)        141.2926         estimate D2E/DX2                !
 ! D375  D(56,55,60,66)         -1.4484         estimate D2E/DX2                !
 ! D376  D(54,56,64,63)          1.4652         estimate D2E/DX2                !
 ! D377  D(54,56,64,66)        144.0221         estimate D2E/DX2                !
 ! D378  D(55,56,64,63)       -141.2044         estimate D2E/DX2                !
 ! D379  D(55,56,64,66)          1.3526         estimate D2E/DX2                !
 ! D380  D(39,57,58,42)          0.519          estimate D2E/DX2                !
 ! D381  D(39,57,58,59)       -141.5059         estimate D2E/DX2                !
 ! D382  D(60,57,58,42)        141.9778         estimate D2E/DX2                !
 ! D383  D(60,57,58,59)         -0.047          estimate D2E/DX2                !
 ! D384  D(39,57,60,55)         -3.5225         estimate D2E/DX2                !
 ! D385  D(39,57,60,66)        135.048          estimate D2E/DX2                !
 ! D386  D(58,57,60,55)       -140.5706         estimate D2E/DX2                !
 ! D387  D(58,57,60,66)         -2.0001         estimate D2E/DX2                !
 ! D388  D(42,58,59,43)          3.0354         estimate D2E/DX2                !
 ! D389  D(42,58,59,65)       -135.362          estimate D2E/DX2                !
 ! D390  D(57,58,59,43)        140.6185         estimate D2E/DX2                !
 ! D391  D(57,58,59,65)          2.2211         estimate D2E/DX2                !
 ! D392  D(43,59,65,61)         -2.3352         estimate D2E/DX2                !
 ! D393  D(43,59,65,66)       -145.2834         estimate D2E/DX2                !
 ! D394  D(58,59,65,61)        140.5935         estimate D2E/DX2                !
 ! D395  D(58,59,65,66)         -2.3547         estimate D2E/DX2                !
 ! D396  D(55,60,66,64)          2.2794         estimate D2E/DX2                !
 ! D397  D(55,60,66,65)        144.8373         estimate D2E/DX2                !
 ! D398  D(57,60,66,64)       -140.6943         estimate D2E/DX2                !
 ! D399  D(57,60,66,65)          1.8635         estimate D2E/DX2                !
 ! D400  D(46,61,62,48)         -3.288          estimate D2E/DX2                !
 ! D401  D(46,61,62,63)       -140.4453         estimate D2E/DX2                !
 ! D402  D(65,61,62,48)        134.5735         estimate D2E/DX2                !
 ! D403  D(65,61,62,63)         -2.5839         estimate D2E/DX2                !
 ! D404  D(46,61,65,59)          1.9979         estimate D2E/DX2                !
 ! D405  D(46,61,65,66)        144.929          estimate D2E/DX2                !
 ! D406  D(62,61,65,59)       -140.4206         estimate D2E/DX2                !
 ! D407  D(62,61,65,66)          2.5105         estimate D2E/DX2                !
 ! D408  D(48,62,63,50)         -0.2406         estimate D2E/DX2                !
 ! D409  D(48,62,63,64)       -141.3622         estimate D2E/DX2                !
 ! D410  D(61,62,63,50)        141.4272         estimate D2E/DX2                !
 ! D411  D(61,62,63,64)          0.3056         estimate D2E/DX2                !
 ! D412  D(50,63,64,56)          3.7679         estimate D2E/DX2                !
 ! D413  D(50,63,64,66)       -134.5191         estimate D2E/DX2                !
 ! D414  D(62,63,64,56)        140.3471         estimate D2E/DX2                !
 ! D415  D(62,63,64,66)          2.0601         estimate D2E/DX2                !
 ! D416  D(56,64,66,60)         -2.24           estimate D2E/DX2                !
 ! D417  D(56,64,66,65)       -144.8744         estimate D2E/DX2                !
 ! D418  D(63,64,66,60)        140.5038         estimate D2E/DX2                !
 ! D419  D(63,64,66,65)         -2.1305         estimate D2E/DX2                !
 ! D420  D(59,65,66,60)          0.3167         estimate D2E/DX2                !
 ! D421  D(59,65,66,64)        138.33           estimate D2E/DX2                !
 ! D422  D(61,65,66,60)       -138.1644         estimate D2E/DX2                !
 ! D423  D(61,65,66,64)         -0.1511         estimate D2E/DX2                !
 --------------------------------------------------------------------------------
 Trust Radius=3.00D-01 FncErr=1.00D-07 GrdErr=1.00D-06 EigMax=2.50D+02 EigMin=1.00D-04
 Number of steps in this run=    420 maximum allowed number of steps=    420.
 GradGradGradGradGradGradGradGradGradGradGradGradGradGradGradGradGradGrad

 Leave Link  103 at Fri Jul 15 16:16:16 2022, MaxMem=  1342177280 cpu:               1.4 elap:               0.0
 (Enter /home/mkliu/g16/l202.exe)
 Stoichiometry    C66Cl4
 Framework group  C1[X(C66Cl4)]
 Deg. of freedom   204
 Full point group                 C1      NOp   1
 Largest Abelian subgroup         C1      NOp   1
 Largest concise Abelian subgroup C1      NOp   1
                         Standard orientation:                         
 ---------------------------------------------------------------------
 Center     Atomic      Atomic             Coordinates (Angstroms)
 Number     Number       Type             X           Y           Z
 ---------------------------------------------------------------------
      1          6           0        3.472358   -0.113619    1.445958
      2          6           0        3.854681   -0.204492   -0.085546
      3          6           0        3.441221    1.212596   -0.658464
      4          6           0        2.845795    1.235824    1.632340
      5          6           0        2.839408    1.962518    0.478049
      6          6           0        1.721407    1.205839    2.466064
      7          6           0        2.339258   -0.939725    1.956670
      8          6           0        1.446535   -0.176223    2.725563
      9          6           0        1.837669   -2.048109    1.270425
     10          6           0        2.989367   -1.225606   -0.906618
     11          6           0        2.070685   -2.136323   -0.140815
     12          6           0        2.295282    0.962040   -1.588725
     13          6           0        2.104241   -0.366260   -1.777445
     14          6           0        1.274481    1.921893   -1.885551
     15          6           0        1.803453    2.857052    0.283962
     16          6           0        1.154676    2.995636   -0.995877
     17          6           0        0.663853    2.129228    2.337664
     18          6           0        0.819820    3.059834    1.286259
     19          6           0       -0.669780    1.759250    2.780957
     20          6           0        0.144821   -0.586873    3.092198
     21          6           0       -0.920199    0.391770    3.205336
     22          6           0        0.658226   -2.603971    1.807666
[...]
 Alpha virt. eigenvalues --    0.97139   0.97722   0.98082   0.98477   0.99186
 Alpha virt. eigenvalues --    0.99680   0.99980   1.00401   1.00713   1.01008
 Alpha virt. eigenvalues --    1.01506   1.02129   1.02757   1.03555   1.03714
 Alpha virt. eigenvalues --    1.04235   1.04499   1.04848   1.05471   1.05532
 Alpha virt. eigenvalues --    1.05765   1.05892   1.05967   1.06450   1.06682
 Alpha virt. eigenvalues --    1.07093   1.07341   1.07538   1.07725   1.08328
 Alpha virt. eigenvalues --    1.08488   1.08865   1.09398   1.09465   1.09733
 Alpha virt. eigenvalues --    1.10264   1.10518   1.10696   1.11392   1.11554
 Alpha virt. eigenvalues --    1.11820   1.12751   1.12997   1.13146   1.13725
 Alpha virt. eigenvalues --    1.13756   1.14227   1.15009   1.15277   1.15893
 Alpha virt. eigenvalues --    1.16636   1.16994   1.17526   1.18244   1.18495
 Alpha virt. eigenvalues --    1.19060   1.19245   1.19618   1.20006   1.20116
 Alpha virt. eigenvalues --    1.20367   1.20769   1.20929   1.21558   1.22441
 Alpha virt. eigenvalues --    1.22696   1.23010   1.23382   1.23546   1.24349
 Alpha virt. eigenvalues --    1.24880   1.25111   1.25405   1.25790   1.26179
 Alpha virt. eigenvalues --    1.26991   1.27183   1.27603   1.28197   1.28335
 Alpha virt. eigenvalues --    1.28833   1.29557   1.30366   1.30625   1.31274
 Alpha virt. eigenvalues --    1.31554   1.31786   1.32109   1.32678   1.33277
 Alpha virt. eigenvalues --    1.33385   1.33895   1.34360   1.34460   1.34751
 Alpha virt. eigenvalues --    1.35160   1.35225   1.35611   1.35677   1.36021
 Alpha virt. eigenvalues --    1.36903   1.37403   1.37845   1.37923   1.38164
 Alpha virt. eigenvalues --    1.38301   1.38837   1.39188   1.39357   1.39907
 Alpha virt. eigenvalues --    1.40220   1.40457   1.40646   1.41142   1.41273
 Alpha virt. eigenvalues --    1.41458   1.41737   1.42132   1.42441   1.42526
 Alpha virt. eigenvalues --    1.42939   1.43408   1.43566   1.44036   1.44117
 Alpha virt. eigenvalues --    1.44731   1.44807   1.45175   1.45458   1.45724
 Alpha virt. eigenvalues --    1.45825   1.46122   1.46376   1.46470   1.46488
 Alpha virt. eigenvalues --    1.46822   1.47334   1.47453   1.47734   1.48091
 Alpha virt. eigenvalues --    1.48308   1.48573   1.48880   1.48954   1.49161
 Alpha virt. eigenvalues --    1.49583   1.49778   1.49932   1.50257   1.50507
 Alpha virt. eigenvalues --    1.51239   1.51335   1.51518   1.51787   1.51973
 Alpha virt. eigenvalues --    1.52369   1.52537   1.52624   1.53494   1.53650
 Alpha virt. eigenvalues --    1.54016   1.54374   1.54608   1.54956   1.55172
 Alpha virt. eigenvalues --    1.55271   1.55941   1.56550   1.56718   1.57195
 Alpha virt. eigenvalues --    1.57540   1.57674   1.58874   1.59061   1.59368
 Alpha virt. eigenvalues --    1.60128   1.60454   1.60702   1.61383   1.61484
 Alpha virt. eigenvalues --    1.62094   1.62727   1.63139   1.63594   1.64421
 Alpha virt. eigenvalues --    1.64531   1.64893   1.65202   1.65328   1.65829
 Alpha virt. eigenvalues --    1.66206   1.66619   1.66789   1.67668   1.67846
 Alpha virt. eigenvalues --    1.68177   1.68391   1.68613   1.68856   1.69307
 Alpha virt. eigenvalues --    1.69536   1.70026   1.70314   1.70843   1.71392
 Alpha virt. eigenvalues --    1.71542   1.71959   1.72501   1.72685   1.73299
 Alpha virt. eigenvalues --    1.73640   1.73957   1.74422   1.74803   1.75617
 Alpha virt. eigenvalues --    1.75811   1.76144   1.76251   1.76812   1.76997
 Alpha virt. eigenvalues --    1.77354   1.78007   1.78251   1.78550   1.78819
 Alpha virt. eigenvalues --    1.78941   1.79563   1.79769   1.80402   1.81116
 Alpha virt. eigenvalues --    1.81270   1.81523   1.82328   1.82771   1.83424
 Alpha virt. eigenvalues --    1.83807   1.84565   1.84715   1.85423   1.86276
 Alpha virt. eigenvalues --    1.86624   1.87110   1.87873   1.88276   1.88679
 Alpha virt. eigenvalues --    1.89651   1.90149   1.90495   1.90803   1.91227
 Alpha virt. eigenvalues --    1.92305   1.92420   1.92558   1.93243   1.93574
 Alpha virt. eigenvalues --    1.93869   1.94252   1.94983   1.95143   1.95485
 Alpha virt. eigenvalues --    1.96059   1.96219   1.97550   1.98357   1.98926
 Alpha virt. eigenvalues --    1.99362   2.00098   2.00627   2.01051   2.01180
 Alpha virt. eigenvalues --    2.01510   2.01795   2.02139   2.02261   2.02452
 Alpha virt. eigenvalues --    2.02894   2.03066   2.03290   2.03749   2.04476
 Alpha virt. eigenvalues --    2.04911   2.05562   2.06207   2.06553   2.07292
 Alpha virt. eigenvalues --    2.07661   2.07942   2.08532   2.09041   2.09564
 Alpha virt. eigenvalues --    2.10153   2.10745   2.10877   2.11185   2.12035
 Alpha virt. eigenvalues --    2.12185   2.12752   2.13277   2.13557   2.14200
 Alpha virt. eigenvalues --    2.14700   2.15575   2.15867   2.16393   2.16603
 Alpha virt. eigenvalues --    2.17543   2.18030   2.18783   2.19140   2.19622
 Alpha virt. eigenvalues --    2.19824   2.20338   2.20777   2.21492   2.21869
 Alpha virt. eigenvalues --    2.22128   2.23057   2.23201   2.23436   2.23624
 Alpha virt. eigenvalues --    2.24555   2.24894   2.25531   2.25640   2.25735
 Alpha virt. eigenvalues --    2.26632   2.27119   2.27794   2.28533   2.28708
 Alpha virt. eigenvalues --    2.29171   2.29239   2.29642   2.30463   2.30920
 Alpha virt. eigenvalues --    2.31943   2.32313   2.32633   2.33348   2.33710
 Alpha virt. eigenvalues --    2.34091   2.34511   2.34982   2.35545   2.36305
 Alpha virt. eigenvalues --    2.36626   2.37051   2.38115   2.38387   2.39243
 Alpha virt. eigenvalues --    2.39512   2.39699   2.40582   2.40689   2.41411
 Alpha virt. eigenvalues --    2.41674   2.42034   2.42240   2.42350   2.42784
 Alpha virt. eigenvalues --    2.43482   2.43917   2.44494   2.45045   2.45353
 Alpha virt. eigenvalues --    2.45648   2.46578   2.47227   2.48128   2.48278
 Alpha virt. eigenvalues --    2.49550   2.49625   2.50507   2.50928   2.51580
 Alpha virt. eigenvalues --    2.51696   2.51986   2.53022   2.53405   2.53896
 Alpha virt. eigenvalues --    2.54209   2.54914   2.54939   2.55593   2.56204
 Alpha virt. eigenvalues --    2.56702   2.56853   2.57116   2.57246   2.57938
 Alpha virt. eigenvalues --    2.58614   2.58951   2.59356   2.59722   2.60442
 Alpha virt. eigenvalues --    2.60950   2.61403   2.61628   2.62064   2.62929
 Alpha virt. eigenvalues --    2.63072   2.63501   2.63985   2.64187   2.64486
 Alpha virt. eigenvalues --    2.64870   2.67399   2.68323   2.68972   2.69543
 Alpha virt. eigenvalues --    2.69942   2.71111   2.71327   2.72190   2.72518
 Alpha virt. eigenvalues --    2.72871   2.74473   2.75745   2.76341   2.76814
 Alpha virt. eigenvalues --    2.78402   2.79071   2.79806   2.80524   2.81213
 Alpha virt. eigenvalues --    2.81870   2.83213   2.83336   2.84717   2.85050
 Alpha virt. eigenvalues --    2.85141   2.86100   2.86595   2.87386   2.87604
 Alpha virt. eigenvalues --    2.89044   2.89930   2.91112   2.91376   2.92456
 Alpha virt. eigenvalues --    2.92869   2.93408   2.94249   2.94452   2.94641
 Alpha virt. eigenvalues --    2.95243   2.96329   2.96510   2.96616   2.96840
 Alpha virt. eigenvalues --    2.97306   2.97807   2.98331   2.98486   2.98649
 Alpha virt. eigenvalues --    2.98961   2.99173   3.00023   3.00205   3.00766
 Alpha virt. eigenvalues --    3.01248   3.02193   3.02257   3.02730   3.03106
 Alpha virt. eigenvalues --    3.03232   3.03478   3.03655   3.03845   3.04068
 Alpha virt. eigenvalues --    3.04162   3.05014   3.05504   3.05649   3.05788
 Alpha virt. eigenvalues --    3.05979   3.06453   3.06574   3.07277   3.07682
 Alpha virt. eigenvalues --    3.08391   3.08524   3.09123   3.09720   3.09789
 Alpha virt. eigenvalues --    3.09973   3.10308   3.11166   3.11505   3.11771
 Alpha virt. eigenvalues --    3.11853   3.12305   3.12667   3.12823   3.13005
 Alpha virt. eigenvalues --    3.13095   3.13795   3.14073   3.14311   3.14483
 Alpha virt. eigenvalues --    3.14724   3.15404   3.15769   3.16565   3.17588
 Alpha virt. eigenvalues --    3.17680   3.18464   3.18585   3.18801   3.19067
 Alpha virt. eigenvalues --    3.19205   3.19615   3.20536   3.22011   3.23373
 Alpha virt. eigenvalues --    3.24539   3.24815   3.25712   3.27668   3.32046
 Alpha virt. eigenvalues --    3.37781   3.40289   3.41107   3.42405   3.43078
 Alpha virt. eigenvalues --    3.43706   3.45515   3.47525   3.47730   3.48351
 Alpha virt. eigenvalues --    3.49284   3.51136   3.51491   3.52011   3.52522
 Alpha virt. eigenvalues --    3.52936   3.53065   3.53612   3.56648   3.56777
 Alpha virt. eigenvalues --    3.57414   3.57643   3.58373   3.59939   3.60439
 Alpha virt. eigenvalues --    3.62472   3.63432   3.63890   3.65007   3.65856
 Alpha virt. eigenvalues --    3.66912   3.67044   3.68198   3.68645   3.70294
 Alpha virt. eigenvalues --    3.70760   3.71245   3.71579   3.73212   3.73596
 Alpha virt. eigenvalues --    3.75976   3.76495   3.77184   3.78654   3.80204
 Alpha virt. eigenvalues --    3.81508   3.83077   3.83918   3.84688   3.85246
 Alpha virt. eigenvalues --    3.85599   3.86769   3.87560   3.88106   3.88444
 Alpha virt. eigenvalues --    3.89147   3.89294   3.89813   3.90354   3.90762
 Alpha virt. eigenvalues --    3.91241   3.92901   3.94804   4.01219   4.05900
 Alpha virt. eigenvalues --    4.19057   4.21724   4.22553   4.24110   4.26613
 Alpha virt. eigenvalues --    4.27970   4.34322   4.36060   4.37916   4.38333
 Alpha virt. eigenvalues --    4.39072   4.44475   4.46561   4.50849   4.54807
 Alpha virt. eigenvalues --    4.58023   4.59527   4.62090   4.63548   4.66214
 Alpha virt. eigenvalues --    4.66967   4.68525   4.72384   4.78350   4.81122
 Alpha virt. eigenvalues --    4.84834   4.85941   4.90044   4.94768   4.98499
 Alpha virt. eigenvalues --    5.00411   5.02365   5.02804   5.04850   9.50032
 Alpha virt. eigenvalues --    9.64173   9.64674   9.71742  22.99457  23.19888
 Alpha virt. eigenvalues --   23.20805  23.23346  23.43553  23.45127  23.47014
 Alpha virt. eigenvalues --   23.48367  23.49860  23.61843  23.63167  23.66590
 Alpha virt. eigenvalues --   23.67798  23.68620  23.71755  23.73745  23.74933
 Alpha virt. eigenvalues --   23.76096  23.79748  23.80543  23.81136  23.81662
 Alpha virt. eigenvalues --   23.84042  23.84456  23.86852  23.88765  23.89779
 Alpha virt. eigenvalues --   23.91182  23.91382  23.92439  23.92748  23.94057
 Alpha virt. eigenvalues --   23.94485  23.94780  23.95422  23.96016  23.96325
 Alpha virt. eigenvalues --   23.96927  23.97236  23.98163  23.98306  23.98486
 Alpha virt. eigenvalues --   23.98807  23.99445  24.01058  24.02032  24.03021
 Alpha virt. eigenvalues --   24.03526  24.05607  24.06973  24.07623  24.07914
 Alpha virt. eigenvalues --   24.08222  24.08992  24.09297  24.10086  24.10179
 Alpha virt. eigenvalues --   24.10532  24.10589  24.11085  24.12030  24.12484
 Alpha virt. eigenvalues --   24.13019  24.13799  24.17162  24.19919  25.54655
 Alpha virt. eigenvalues --   25.55568  25.71592  25.74738  25.80216  25.85262
 Alpha virt. eigenvalues --   25.88444  25.90706  26.11235  26.39794  26.44152
 Alpha virt. eigenvalues --   26.71895 215.44315 215.60765 215.61182 215.69520
          Condensed to atoms (all electrons):
 Mulliken charges:
               1
     1  C   -0.433849
     2  C   -0.149732
     3  C   -0.448358
     4  C    0.153200
     5  C    0.188463
     6  C    0.027800
     7  C    0.101614
     8  C    0.032347
     9  C    0.044273
    10  C   -0.503812
    11  C    0.164974
    12  C    0.120501
    13  C    0.169510
    14  C    0.061912
    15  C   -0.003071
    16  C    0.003154
    17  C    0.019186
    18  C    0.011977
    19  C    0.016128
    20  C    0.026401
    21  C    0.022455
    22  C   -0.016255
    23  C    0.004747
    24  C    0.002008
    25  C    0.017670
    26  C    0.005560
    27  C    0.082124
    28  C    0.014547
    29  C    0.023649
    30  C    0.026245
    31  C   -0.000784
    32  C   -0.005181
    33  C   -0.001357
    34  C   -0.003470
    35  C   -0.000304
    36  C   -0.006575
    37  C   -0.005448
    38  C   -0.006537
    39  C   -0.004818
    40  C   -0.003409
    41  C   -0.002155
    42  C   -0.002187
    43  C    0.003475
    44  C    0.002630
    45  C   -0.008812
    46  C    0.001698
    47  C   -0.002707
    48  C   -0.001749
    49  C   -0.002257
    50  C   -0.006211
    51  C    0.004111
    52  C    0.003268
    53  C    0.001914
    54  C    0.003146
    55  C    0.002189
    56  C    0.000269
    57  C    0.000638
    58  C    0.000607
    59  C    0.001671
    60  C    0.002238
    61  C    0.001743
    62  C    0.000268
    63  C    0.001532
    64  C    0.003951
    65  C    0.001596
    66  C    0.000384
    67  Cl   0.052068
    68  Cl   0.094707
    69  Cl   0.041464
    70  Cl   0.053023
 Sum of Mulliken charges =  -0.00000
 Mulliken charges with hydrogens summed into heavy atoms:
               1
     1  C   -0.433849
     2  C   -0.149732
     3  C   -0.448358
     4  C    0.153200
     5  C    0.188463
     6  C    0.027800
     7  C    0.101614
     8  C    0.032347
     9  C    0.044273
    10  C   -0.503812
    11  C    0.164974
    12  C    0.120501
    13  C    0.169510
    14  C    0.061912
    15  C   -0.003071
    16  C    0.003154
    17  C    0.019186
    18  C    0.011977
    19  C    0.016128
    20  C    0.026401
    21  C    0.022455
    22  C   -0.016255
    23  C    0.004747
    24  C    0.002008
    25  C    0.017670
    26  C    0.005560
    27  C    0.082124
    28  C    0.014547
    29  C    0.023649
    30  C    0.026245
    31  C   -0.000784
    32  C   -0.005181
    33  C   -0.001357
    34  C   -0.003470
    35  C   -0.000304
    36  C   -0.006575
    37  C   -0.005448
    38  C   -0.006537
    39  C   -0.004818
    40  C   -0.003409
    41  C   -0.002155
    42  C   -0.002187
    43  C    0.003475
    44  C    0.002630
    45  C   -0.008812
    46  C    0.001698
    47  C   -0.002707
    48  C   -0.001749
    49  C   -0.002257
    50  C   -0.006211
    51  C    0.004111
    52  C    0.003268
    53  C    0.001914
    54  C    0.003146
    55  C    0.002189
    56  C    0.000269
    57  C    0.000638
    58  C    0.000607
    59  C    0.001671
    60  C    0.002238
    61  C    0.001743
    62  C    0.000268
    63  C    0.001532
    64  C    0.003951
    65  C    0.001596
    66  C    0.000384
    67  Cl   0.052068
    68  Cl   0.094707
    69  Cl   0.041464
    70  Cl   0.053023
 Electronic spatial extent (au):  <R**2>=          28850.3398
 Charge=             -0.0000 electrons
 Dipole moment (field-independent basis, Debye):
    X=             -4.0013    Y=              0.4596    Z=              0.5165  Tot=              4.0606
 Quadrupole moment (field-independent basis, Debye-Ang):
   XX=           -436.2464   YY=           -419.5869   ZZ=           -420.6818
   XY=              0.7583   XZ=              2.4316   YZ=              0.1704
 Traceless Quadrupole moment (field-independent basis, Debye-Ang):
   XX=            -10.7413   YY=              5.9181   ZZ=              4.8232
   XY=              0.7583   XZ=              2.4316   YZ=              0.1704
 Octapole moment (field-independent basis, Debye-Ang**2):
  XXX=             63.2929  YYY=             -7.1459  ZZZ=            -10.9791  XYY=             36.2683
  XXY=             -2.3465  XXZ=              1.2759  XZZ=             37.7867  YZZ=              0.5761
  YYZ=             -0.7662  XYZ=             -0.7024
 Hexadecapole moment (field-independent basis, Debye-Ang**3):
 XXXX=         -21879.7968 YYYY=         -11428.7416 ZZZZ=          -9782.2340 XXXY=            -53.0358
 XXXZ=            -25.1070 YYYX=            -31.3212 YYYZ=             10.5164 ZZZX=            -34.9690
 ZZZY=              4.3045 XXYY=          -5548.0777 XXZZ=          -5281.0815 YYZZ=          -3535.9928
 XXYZ=             -3.9902 YYXZ=             -0.5400 ZZXY=             -4.5870
 N-N= 1.231231293266D+04 E-N=-3.482868173024D+04  KE= 4.341737055466D+03
 No NMR shielding tensors so no spin-rotation constants.
 Leave Link  601 at Fri Jul 15 17:31:29 2022, MaxMem=  1342177280 cpu:              55.8 elap:               1.4
 (Enter /home/mkliu/g16/l9999.exe)
 1\1\GINC-NODE03\FOpt\RB3LYP\6-311G(d,p)\C66Cl4\MKLIU\15-Jul-2022\0\\#P
  opt b3lyp/6-311G(d, p) empiricaldispersion=GD3\\force\\0,1\C,-1.30859
 95334,1.866844715,-3.8953026973\C,0.2192720333,2.2840349481,-4.1087723
 822\C,0.9674275672,0.8697212642,-4.300706844\C,-1.3375739141,0.3670872
 796,-3.9756945498\C,-0.0992643276,-0.1788653931,-4.208258518\C,-2.2087
 854902,-0.1798233757,-3.0165550801\C,-1.9229942369,2.0682431867,-2.534
 89603\C,-2.6467693095,0.9188507543,-2.1656042986\C,-1.4287377051,2.947
 5331438,-1.5591851224\C,0.8946784275,2.9133670838,-2.7904871782\C,-0.0
 198763448,3.2833317974,-1.6138235438\C,1.8422234105,0.7236008458,-3.08
 69720936\C,1.8513371375,1.8370098966,-2.3176295409\C,2.248259037,-0.56
 38457606,-2.5658744038\C,0.1923759177,-1.4164424967,-3.6502337659\C,1.
 4808694826,-1.671964064,-2.9919972398\C,-1.9843118209,-1.4589212801,-2
 .4618837687\C,-0.8031060138,-2.1306402793,-2.9215454804\C,-2.492826958
 3,-1.7494434405,-1.1143526799\C,-3.0901194634,0.6947062871,-0.84276166
 12\C,-3.0972472864,-0.6734507286,-0.3160408872\C,-2.0810054192,2.88555
 48207,-0.2987016413\C,-2.9550902666,1.7950599399,0.0351464719\C,-1.418
 3761297,3.2971321683,0.9076340346\C,0.6372714148,3.4680942927,-0.41334
 54741\C,-0.0567187923,3.5704031637,0.8476256416\C,2.4322234157,1.85340
 15133,-1.0064788423\C,1.9433844027,2.8309925437,-0.1274464111\C,2.9067
 239017,-0.5991421669,-1.2720257961\C,3.0408727459,0.6403638762,-0.4987
 831612\C,2.9156431426,-1.8291427734,-0.5636861766\C,1.2982658123,-2.78
 64605385,-2.1238770225\C,-0.1274456817,-3.0778005835,-2.0734754434\C,2
 .0545906989,-2.908239235,-0.9676945851\C,-1.9332106673,-2.8496017301,-
 0.4266257732\C,-0.7039049022,-3.4823779916,-0.8952311898\C,-1.91965518
 86,-2.925610549,1.0052312064\C,-3.1434204009,-0.8178739283,1.088028382
 4\C,-2.52931428,-1.9333125566,1.7537203773\C,-2.9056364066,1.604620154
 5,1.4623837979\C,-1.9478700967,2.5387330947,2.0185868922\C,-3.01916091
 77,0.3294929798,1.9787771109\C,-1.1180284776,2.1348172055,3.0603180841
 \C,0.8147719064,3.1147398129,1.9039066067\C,2.0458934249,2.6575905052,
 1.2781888118\C,0.3025652644,2.4364921884,3.0036724189\C,3.2454234621,0
 .5538906745,0.9010858291\C,2.7155789911,1.5486099099,1.7911594479\C,3.
 0164967938,-1.8772354395,0.8776481497\C,3.1983015051,-0.7147310881,1.5
 953809404\C,1.4846668102,-3.5085821978,0.2236162534\C,0.117748296,-3.7
 949788896,0.2587727042\C,-0.6489688746,-3.4883756001,1.4410611916\C,2.
 116647323,-2.9058729678,1.3729389102\C,-0.0245686109,-2.9820216867,2.5
 769010804\C,1.3946015459,-2.6821041313,2.5424960744\C,-1.9231641024,-1
 .4679685609,2.9888452822\C,-2.2263040677,-0.061861364,3.1245931612\C,-
 1.2699370815,0.8179388355,3.6393435957\C,-0.6788772879,-1.9590377156,3
 .3741756031\C,1.0240486154,1.3066849746,3.5617387244\C,2.2243530805,0.
 8905826503,2.9881256291\C,2.5224007596,-0.518696246,2.8650039543\C,1.6
 121690496,-1.4720434169,3.3138630765\C,0.0494833888,0.3162650558,3.981
 2605374\C,0.3363244439,-1.0421808396,3.8568358247\Cl,-2.5021360314,2.6
 128165082,-5.0789074479\Cl,0.4079246136,3.3335558233,-5.5366418807\Cl,
 1.9911655294,0.6654376846,-5.7999224915\Cl,1.9007913492,4.4314242975,-
 3.1474588013\\Version=ES64L-G16RevA.03\State=1-A\HF=-4356.2987422\RMSD
 =5.313e-09\RMSF=1.502e-05\Dipole=-0.2069985,-0.8688321,1.3245736\Quadr
 upole=3.4887585,1.4587375,-4.9474959,-0.8600211,1.7462844,5.3311597\PG
 =C01 [X(C66Cl4)]\\@


 Statistics are no substitute for judgment.
                            -- Henry Clay
 Job cpu time:       2 days 11 hours 45 minutes  1.4 seconds.
 Elapsed time:       0 days  1 hours 14 minutes 52.2 seconds.
 File lengths (MBytes):  RWF=   1023 Int=      0 D2E=      0 Chk=    126 Scr=      1
 Normal termination of Gaussian 16 at Fri Jul 15 17:31:31 2022.
