 Entering Gaussian System, Link 0=g16
 Input=dn2vp3gn9rw1s_addon_7.gjf
 Output=dn2vp3gn9rw1s_addon_7.log
 Initial command:
 /home/mkliu/g16/l1.exe "/data/scratch/Gau-93152.inp" -scrdir="/data/scratch/"
 Entering Link 1 = /home/mkliu/g16/l1.exe PID=     93153.
  
 Copyright (c) 1988,1990,1992,1993,1995,1998,2003,2009,2016,
            Gaussian, Inc.  All Rights Reserved.
  
 This is part of the Gaussian(R) 16 program.  It is based on
 the Gaussian(R) 09 system (copyright 2009, Gaussian, Inc.),
 the Gaussian(R) 03 system (copyright 2003, Gaussian, Inc.),
 the Gaussian(R) 98 system (copyright 1998, Gaussian, Inc.),
 the Gaussian(R) 94 system (copyright 1995, Gaussian, Inc.),
 the Gaussian 92(TM) system (copyright 1992, Gaussian, Inc.),
 the Gaussian 90(TM) system (copyright 1990, Gaussian, Inc.),
 the Gaussian 88(TM) system (copyright 1988, Gaussian, Inc.),
 the Gaussian 86(TM) system (copyright 1986, Carnegie Mellon
 University), and the Gaussian 82(TM) system (copyright 1983,
 Carnegie Mellon University). Gaussian is a federally registered
 trademark of Gaussian, Inc.
  
 This software contains proprietary and confidential information,
 including trade secrets, belonging to Gaussian, Inc.
  
 This software is provided under written license and may be
 used, copied, transmitted, or stored only in accord with that
 written license.
  
 The following legend is applicable only to US Government
 contracts under FAR:
  
                    RESTRICTED RIGHTS LEGEND
  
 Use, reproduction and disclosure by the US Government is
 subject to restrictions as set forth in subparagraphs (a)
 and (c) of the Commercial Computer Software - Restricted
 Rights clause in FAR 52.227-19.
  
 Gaussian, Inc.
 340 Quinnipiac St., Bldg. 40, Wallingford CT 06492
  
  
 ---------------------------------------------------------------
 Warning -- This program may not be used in any manner that
 competes with the business of Gaussian, Inc. or will provide
 assistance to any competitor of Gaussian, Inc.  The licensee
 of this program is prohibited from giving any competitor of
 Gaussian, Inc. access to this program.  By using this program,
 the user acknowledges that Gaussian, Inc. is engaged in the
 business of creating and licensing software in the field of
 computational chemistry and represents and warrants to the
 licensee that it is not a competitor of Gaussian, Inc. and that
 it will not use this program in any manner prohibited above.
 ---------------------------------------------------------------
  

 Cite this work as:
 Gaussian 16, Revision A.03,
 M. J. Frisch, G. W. Trucks, H. B. Schlegel, G. E. Scuseria, 
 M. A. Robb, J. R. Cheeseman, G. Scalmani, V. Barone, 
 G. A. Petersson, H. Nakatsuji, X. Li, M. Caricato, A. V. Marenich, 
 J. Bloino, B. G. Janesko, R. Gomperts, B. Mennucci, H. P. Hratchian, 
 J. V. Ortiz, A. F. Izmaylov, J. L. Sonnenberg, D. Williams-Young, 
 F. Ding, F. Lipparini, F. Egidi, J. Goings, B. Peng, A. Petrone, 
 T. Henderson, D. Ranasinghe, V. G. Zakrzewski, J. Gao, N. Rega, 
 G. Zheng, W. Liang, M. Hada, M. Ehara, K. Toyota, R. Fukuda, 
 J. Hasegawa, M. Ishida, T. Nakajima, Y. Honda, O. Kitao, H. Nakai, 
 T. Vreven, K. Throssell, J. A. Montgomery, Jr., J. E. Peralta, 
 F. Ogliaro, M. J. Bearpark, J. J. Heyd, E. N. Brothers, K. N. Kudin, 
 V. N. Staroverov, T. A. Keith, R. Kobayashi, J. Normand, 
 K. Raghavachari, A. P. Rendell, J. C. Burant, S. S. Iyengar, 
 J. Tomasi, M. Cossi, J. M. Millam, M. Klene, C. Adamo, R. Cammi, 
 J. W. Ochterski, R. L. Martin, K. Morokuma, O. Farkas, 
 J. B. Foresman, and D. J. Fox, Gaussian, Inc., Wallingford CT, 2016.
 
 ******************************************
 Gaussian 16:  ES64L-G16RevA.03 25-Dec-2016
                16-Jul-2022 
 ******************************************
 %mem=10GB
 %chk=dn2vp3gn9rw1s_addon_7.chk
 %nprocshared=48
 Will use up to   48 processors via shared memory.
 -------------------------------------------------
 #P opt b3lyp/6-311G(d, p) empiricaldispersion=GD3
 -------------------------------------------------
 1/18=20,19=15,26=3,38=1/1,3;
 2/9=110,12=2,17=6,18=5,40=1/2;
 3/5=4,6=6,7=101,11=2,25=1,30=1,71=1,74=-5,124=31/1,2,3;
 4//1;
 5/5=2,38=5/2;
 6/7=2,8=2,9=2,10=2,28=1/1;
 7//1,2,3,16;
 1/18=20,19=15,26=3/3(2);
 2/9=110/2;
 99//99;
 2/9=110/2;
 3/5=4,6=6,7=101,11=2,25=1,30=1,71=1,74=-5,124=31/1,2,3;
 4/5=5,16=3,69=1/1;
 5/5=2,38=5/2;
 7//1,2,3,16;
 1/18=20,19=15,26=3/3(-5);
 2/9=110/2;
 6/7=2,8=2,9=2,10=2,19=2,28=1/1;
 99/9=1/99;
 Leave Link    1 at Sat Jul 16 02:01:27 2022, MaxMem=  1342177280 cpu:               2.1 elap:               0.1
 (Enter /home/mkliu/g16/l101.exe)
 -----
 force
 -----
 Symbolic Z-matrix:
 Charge =  0 Multiplicity = 2
 C                    -1.30424   1.8655   -3.87328 
 C                     0.19856   2.25774  -4.08332 
 C                     0.94528   0.88953  -4.28646 
 C                    -1.3031    0.36838  -3.90002 
 C                    -0.08154  -0.18178  -4.16077 
 C                    -2.16705  -0.16284  -2.94479 
 C                    -1.94064   2.08066  -2.5393 
 C                    -2.62157   0.9257   -2.12723 
 C                    -1.39203   2.91027  -1.5549 
 C                     0.85219   2.90212  -2.81237 
 C                     0.00162   3.24723  -1.61279 
 C                     1.75662   0.69651  -3.04407 
 C                     1.78455   1.84023  -2.27358 
 C                     2.1258   -0.54199  -2.51837 
 C                     0.19585  -1.41943  -3.61284 
 C                     1.58773  -1.81089  -3.1648 
 C                    -1.94644  -1.43005  -2.38361 
 C                    -0.76897  -2.08115  -2.83509 
 C                    -2.4926   -1.73732  -1.07579 
 C                    -3.08056   0.68316  -0.81089 
 C                    -3.09889  -0.67184  -0.29558 
 C                    -2.02435   2.8238   -0.30278 
 C                    -2.9136    1.77165   0.04935 
 C                    -1.38207   3.23915   0.89486 
 C                     0.66167   3.44556  -0.42463 
 C                    -0.03775   3.5112    0.82582 
 C                     2.34557   1.81344  -1.01422 
 C                     2.09081   3.01881  -0.14634 
 C                     2.76185  -0.56469  -1.27097 
 C                     2.87651   0.62217  -0.50474 
 C                     3.09906  -1.90945  -0.63622 
 C                     1.28275  -2.82189  -2.10277 
 C                    -0.1235   -3.05054  -2.01917 
 C                     2.02474  -2.91344  -0.97205 
 C                    -1.94877  -2.83745  -0.39801 
 C                    -0.73188  -3.45497  -0.85698 
 C                    -1.94915  -2.91741   1.03455 
 C                    -3.15195  -0.8129    1.10201 
 C                    -2.5579   -1.93085   1.77468 
 C                    -2.88977   1.58508   1.46432 
 C                    -1.93372   2.50797   2.00325 
 C                    -3.03197   0.31626   1.98572 
 C                    -1.11505   2.10463   3.03818 
 C                     0.81769   3.07533   1.89312 
 C                     2.03452   2.67218   1.30677 
 C                     0.28384   2.40129   2.99359 
 C                     3.21873   0.55176   0.91647 
 C                     2.6873    1.55627   1.78941 
 C                     2.99851  -1.88544   0.8607 
 C                     3.16489  -0.71596   1.57087 
 C                     1.43701  -3.4574    0.20972 
 C                     0.08831  -3.75801   0.27201 
 C                    -0.68267  -3.46419   1.44339 
 C                     2.07586  -2.84941   1.34081 
 C                    -0.05106  -2.94939   2.56246 
 C                     1.34642  -2.64448   2.51302 
 C                    -1.95393  -1.46914   2.99714 
 C                    -2.24797  -0.06899   3.12591 
 C                    -1.29212   0.79816   3.62716 
 C                    -0.7109   -1.948     3.36451 
 C                     0.98827   1.28152   3.53852 
 C                     2.18233   0.87921   2.96482 
 C                     2.47427  -0.51821   2.8298 
 C                     1.56134  -1.45338   3.27485 
 C                     0.01272   0.30634   3.96592 
 C                     0.29778  -1.04297   3.83504 
 Cl                   -2.40198   2.6127   -5.08116 
 Cl                    0.38266   3.27732  -5.52767 
 Cl                    1.9418    0.74009  -5.74884 
 Cl                    2.70481  -2.40825  -4.4289 
 Cl                    4.74328  -2.38893  -1.24757 
 Cl                    1.79874   4.37578  -3.24428 
 Cl                    3.34874   4.29165  -0.43825 
 
 ITRead=  0  0  0  0  0  0  0  0  0  0  0  0  0  0  0  0  0  0  0  0
 ITRead=  0  0  0  0  0  0  0  0  0  0  0  0  0  0  0  0  0  0  0  0
 ITRead=  0  0  0  0  0  0  0  0  0  0  0  0  0  0  0  0  0  0  0  0
 ITRead=  0  0  0  0  0  0  0  0  0  0  0  0  0
 MicOpt= -1 -1 -1 -1 -1 -1 -1 -1 -1 -1 -1 -1 -1 -1 -1 -1 -1 -1 -1 -1
 MicOpt= -1 -1 -1 -1 -1 -1 -1 -1 -1 -1 -1 -1 -1 -1 -1 -1 -1 -1 -1 -1
 MicOpt= -1 -1 -1 -1 -1 -1 -1 -1 -1 -1 -1 -1 -1 -1 -1 -1 -1 -1 -1 -1
 MicOpt= -1 -1 -1 -1 -1 -1 -1 -1 -1 -1 -1 -1 -1
 NAtoms=     73 NQM=       73 NQMF=       0 NMMI=      0 NMMIF=      0
                NMic=       0 NMicF=      0.
                    Isotopes and Nuclear Properties:
 (Nuclear quadrupole moments (NQMom) in fm**2, nuclear magnetic moments (NMagM)
  in nuclear magnetons)

  Atom         1           2           3           4           5           6           7           8           9          10
 IAtWgt=          12          12          12          12          12          12          12          12          12          12
 AtmWgt=  12.0000000  12.0000000  12.0000000  12.0000000  12.0000000  12.0000000  12.0000000  12.0000000  12.0000000  12.0000000
 NucSpn=           0           0           0           0           0           0           0           0           0           0
 AtZEff=  -0.0000000  -0.0000000  -0.0000000  -0.0000000  -0.0000000  -0.0000000  -0.0000000  -0.0000000  -0.0000000  -0.0000000
 NQMom=    0.0000000   0.0000000   0.0000000   0.0000000   0.0000000   0.0000000   0.0000000   0.0000000   0.0000000   0.0000000
 NMagM=    0.0000000   0.0000000   0.0000000   0.0000000   0.0000000   0.0000000   0.0000000   0.0000000   0.0000000   0.0000000
 AtZNuc=   6.0000000   6.0000000   6.0000000   6.0000000   6.0000000   6.0000000   6.0000000   6.0000000   6.0000000   6.0000000

  Atom        11          12          13          14          15          16          17          18          19          20
 IAtWgt=          12          12          12          12          12          12          12          12          12          12
 AtmWgt=  12.0000000  12.0000000  12.0000000  12.0000000  12.0000000  12.0000000  12.0000000  12.0000000  12.0000000  12.0000000
 NucSpn=           0           0           0           0           0           0           0           0           0           0
 AtZEff=  -0.0000000  -0.0000000  -0.0000000  -0.0000000  -0.0000000  -0.0000000  -0.0000000  -0.0000000  -0.0000000  -0.0000000
 NQMom=    0.0000000   0.0000000   0.0000000   0.0000000   0.0000000   0.0000000   0.0000000   0.0000000   0.0000000   0.0000000
 NMagM=    0.0000000   0.0000000   0.0000000   0.0000000   0.0000000   0.0000000   0.0000000   0.0000000   0.0000000   0.0000000
 AtZNuc=   6.0000000   6.0000000   6.0000000   6.0000000   6.0000000   6.0000000   6.0000000   6.0000000   6.0000000   6.0000000

  Atom        21          22          23          24          25          26          27          28          29          30
 IAtWgt=          12          12          12          12          12          12          12          12          12          12
 AtmWgt=  12.0000000  12.0000000  12.0000000  12.0000000  12.0000000  12.0000000  12.0000000  12.0000000  12.0000000  12.0000000
 NucSpn=           0           0           0           0           0           0           0           0           0           0
 AtZEff=  -0.0000000  -0.0000000  -0.0000000  -0.0000000  -0.0000000  -0.0000000  -0.0000000  -0.0000000  -0.0000000  -0.0000000
 NQMom=    0.0000000   0.0000000   0.0000000   0.0000000   0.0000000   0.0000000   0.0000000   0.0000000   0.0000000   0.0000000
 NMagM=    0.0000000   0.0000000   0.0000000   0.0000000   0.0000000   0.0000000   0.0000000   0.0000000   0.0000000   0.0000000
 AtZNuc=   6.0000000   6.0000000   6.0000000   6.0000000   6.0000000   6.0000000   6.0000000   6.0000000   6.0000000   6.0000000

  Atom        31          32          33          34          35          36          37          38          39          40
 IAtWgt=          12          12          12          12          12          12          12          12          12          12
 AtmWgt=  12.0000000  12.0000000  12.0000000  12.0000000  12.0000000  12.0000000  12.0000000  12.0000000  12.0000000  12.0000000
 NucSpn=           0           0           0           0           0           0           0           0           0           0
 AtZEff=  -0.0000000  -0.0000000  -0.0000000  -0.0000000  -0.0000000  -0.0000000  -0.0000000  -0.0000000  -0.0000000  -0.0000000
 NQMom=    0.0000000   0.0000000   0.0000000   0.0000000   0.0000000   0.0000000   0.0000000   0.0000000   0.0000000   0.0000000
 NMagM=    0.0000000   0.0000000   0.0000000   0.0000000   0.0000000   0.0000000   0.0000000   0.0000000   0.0000000   0.0000000
 AtZNuc=   6.0000000   6.0000000   6.0000000   6.0000000   6.0000000   6.0000000   6.0000000   6.0000000   6.0000000   6.0000000

  Atom        41          42          43          44          45          46          47          48          49          50
 IAtWgt=          12          12          12          12          12          12          12          12          12          12
 AtmWgt=  12.0000000  12.0000000  12.0000000  12.0000000  12.0000000  12.0000000  12.0000000  12.0000000  12.0000000  12.0000000
 NucSpn=           0           0           0           0           0           0           0           0           0           0
 AtZEff=  -0.0000000  -0.0000000  -0.0000000  -0.0000000  -0.0000000  -0.0000000  -0.0000000  -0.0000000  -0.0000000  -0.0000000
 NQMom=    0.0000000   0.0000000   0.0000000   0.0000000   0.0000000   0.0000000   0.0000000   0.0000000   0.0000000   0.0000000
 NMagM=    0.0000000   0.0000000   0.0000000   0.0000000   0.0000000   0.0000000   0.0000000   0.0000000   0.0000000   0.0000000
 AtZNuc=   6.0000000   6.0000000   6.0000000   6.0000000   6.0000000   6.0000000   6.0000000   6.0000000   6.0000000   6.0000000

  Atom        51          52          53          54          55          56          57          58          59          60
 IAtWgt=          12          12          12          12          12          12          12          12          12          12
 AtmWgt=  12.0000000  12.0000000  12.0000000  12.0000000  12.0000000  12.0000000  12.0000000  12.0000000  12.0000000  12.0000000
 NucSpn=           0           0           0           0           0           0           0           0           0           0
 AtZEff=  -0.0000000  -0.0000000  -0.0000000  -0.0000000  -0.0000000  -0.0000000  -0.0000000  -0.0000000  -0.0000000  -0.0000000
 NQMom=    0.0000000   0.0000000   0.0000000   0.0000000   0.0000000   0.0000000   0.0000000   0.0000000   0.0000000   0.0000000
 NMagM=    0.0000000   0.0000000   0.0000000   0.0000000   0.0000000   0.0000000   0.0000000   0.0000000   0.0000000   0.0000000
 AtZNuc=   6.0000000   6.0000000   6.0000000   6.0000000   6.0000000   6.0000000   6.0000000   6.0000000   6.0000000   6.0000000

  Atom        61          62          63          64          65          66          67          68          69          70
 IAtWgt=          12          12          12          12          12          12          35          35          35          35
 AtmWgt=  12.0000000  12.0000000  12.0000000  12.0000000  12.0000000  12.0000000  34.9688527  34.9688527  34.9688527  34.9688527
 NucSpn=           0           0           0           0           0           0           3           3           3           3
 AtZEff=  -0.0000000  -0.0000000  -0.0000000  -0.0000000  -0.0000000  -0.0000000  -0.0000000  -0.0000000  -0.0000000  -0.0000000
 NQMom=    0.0000000   0.0000000   0.0000000   0.0000000   0.0000000   0.0000000  -8.1650000  -8.1650000  -8.1650000  -8.1650000
 NMagM=    0.0000000   0.0000000   0.0000000   0.0000000   0.0000000   0.0000000   0.8218740   0.8218740   0.8218740   0.8218740
 AtZNuc=   6.0000000   6.0000000   6.0000000   6.0000000   6.0000000   6.0000000  17.0000000  17.0000000  17.0000000  17.0000000

  Atom        71          72          73
 IAtWgt=          35          35          35
 AtmWgt=  34.9688527  34.9688527  34.9688527
 NucSpn=           3           3           3
 AtZEff=  -0.0000000  -0.0000000  -0.0000000
 NQMom=   -8.1650000  -8.1650000  -8.1650000
 NMagM=    0.8218740   0.8218740   0.8218740
 AtZNuc=  17.0000000  17.0000000  17.0000000
 Leave Link  101 at Sat Jul 16 02:01:27 2022, MaxMem=  1342177280 cpu:              12.9 elap:               0.3
 (Enter /home/mkliu/g16/l103.exe)

 GradGradGradGradGradGradGradGradGradGradGradGradGradGradGradGradGradGrad
 Berny optimization.
 Initialization pass.
                           ----------------------------
                           !    Initial Parameters    !
                           ! (Angstroms and Degrees)  !
 --------------------------                            --------------------------
 ! Name  Definition              Value          Derivative Info.                !
 --------------------------------------------------------------------------------
 ! R1    R(1,2)                  1.5673         estimate D2E/DX2                !
 ! R2    R(1,4)                  1.4974         estimate D2E/DX2                !
 ! R3    R(1,7)                  1.4936         estimate D2E/DX2                !
 ! R4    R(1,67)                 1.7951         estimate D2E/DX2                !
 ! R5    R(2,3)                  1.5719         estimate D2E/DX2                !
 ! R6    R(2,10)                 1.5677         estimate D2E/DX2                !
 ! R7    R(2,68)                 1.7775         estimate D2E/DX2                !
 ! R8    R(3,5)                  1.4893         estimate D2E/DX2                !
 ! R9    R(3,12)                 1.4963         estimate D2E/DX2                !
 ! R10   R(3,69)                 1.7759         estimate D2E/DX2                !
 ! R11   R(4,5)                  1.3649         estimate D2E/DX2                !
 ! R12   R(4,6)                  1.3932         estimate D2E/DX2                !
 ! R13   R(5,15)                 1.3816         estimate D2E/DX2                !
 ! R14   R(6,8)                  1.4352         estimate D2E/DX2                !
 ! R15   R(6,17)                 1.4034         estimate D2E/DX2                !
 ! R16   R(7,8)                  1.4026         estimate D2E/DX2                !
 ! R17   R(7,9)                  1.3994         estimate D2E/DX2                !
 ! R18   R(8,20)                 1.415          estimate D2E/DX2                !
 ! R19   R(9,11)                 1.435          estimate D2E/DX2                !
 ! R20   R(9,22)                 1.4054         estimate D2E/DX2                !
 ! R21   R(10,11)                1.5105         estimate D2E/DX2                !
 ! R22   R(10,13)                1.5124         estimate D2E/DX2                !
 ! R23   R(10,72)                1.8039         estimate D2E/DX2                !
 ! R24   R(11,25)                1.3736         estimate D2E/DX2                !
 ! R25   R(12,13)                1.3793         estimate D2E/DX2                !
 ! R26   R(12,14)                1.3952         estimate D2E/DX2                !
 ! R27   R(13,27)                1.3789         estimate D2E/DX2                !
 ! R28   R(14,16)                1.5223         estimate D2E/DX2                !
 ! R29   R(14,29)                1.4004         estimate D2E/DX2                !
 ! R30   R(15,16)                1.5137         estimate D2E/DX2                !
 ! R31   R(15,18)                1.4049         estimate D2E/DX2                !
 ! R32   R(16,32)                1.4977         estimate D2E/DX2                !
 ! R33   R(16,70)                1.7896         estimate D2E/DX2                !
 ! R34   R(17,18)                1.4192         estimate D2E/DX2                !
 ! R35   R(17,19)                1.4502         estimate D2E/DX2                !
 ! R36   R(18,33)                1.422          estimate D2E/DX2                !
 ! R37   R(19,21)                1.4531         estimate D2E/DX2                !
 ! R38   R(19,35)                1.4019         estimate D2E/DX2                !
 ! R39   R(20,21)                1.4498         estimate D2E/DX2                !
 ! R40   R(20,23)                1.3974         estimate D2E/DX2                !
 ! R41   R(21,38)                1.4057         estimate D2E/DX2                !
 ! R42   R(22,23)                1.4219         estimate D2E/DX2                !
 ! R43   R(22,24)                1.421          estimate D2E/DX2                !
 ! R44   R(23,40)                1.4274         estimate D2E/DX2                !
 ! R45   R(24,26)                1.3733         estimate D2E/DX2                !
 ! R46   R(24,41)                1.4379         estimate D2E/DX2                !
 ! R47   R(25,26)                1.4343         estimate D2E/DX2                !
 ! R48   R(25,28)                1.5172         estimate D2E/DX2                !
 ! R49   R(26,44)                1.4356         estimate D2E/DX2                !
 ! R50   R(27,28)                1.507          estimate D2E/DX2                !
 ! R51   R(27,30)                1.4002         estimate D2E/DX2                !
 ! R52   R(28,45)                1.4949         estimate D2E/DX2                !
 ! R53   R(28,73)                1.8132         estimate D2E/DX2                !
 ! R54   R(29,30)                1.4174         estimate D2E/DX2                !
 ! R55   R(29,31)                1.5248         estimate D2E/DX2                !
 ! R56   R(30,47)                1.4635         estimate D2E/DX2                !
 ! R57   R(31,34)                1.5083         estimate D2E/DX2                !
 ! R58   R(31,49)                1.5005         estimate D2E/DX2                !
 ! R59   R(31,71)                1.8185         estimate D2E/DX2                !
 ! R60   R(32,33)                1.4272         estimate D2E/DX2                !
 ! R61   R(32,34)                1.3555         estimate D2E/DX2                !
 ! R62   R(33,36)                1.3727         estimate D2E/DX2                !
 ! R63   R(34,51)                1.4275         estimate D2E/DX2                !
 ! R64   R(35,36)                1.4397         estimate D2E/DX2                !
 ! R65   R(35,37)                1.4348         estimate D2E/DX2                !
 ! R66   R(36,52)                1.428          estimate D2E/DX2                !
 ! R67   R(37,39)                1.3754         estimate D2E/DX2                !
 ! R68   R(37,53)                1.4388         estimate D2E/DX2                !
 ! R69   R(38,39)                1.4336         estimate D2E/DX2                !
 ! R70   R(38,42)                1.4389         estimate D2E/DX2                !
 ! R71   R(39,57)                1.4396         estimate D2E/DX2                !
 ! R72   R(40,41)                1.4339         estimate D2E/DX2                !
 ! R73   R(40,42)                1.3791         estimate D2E/DX2                !
 ! R74   R(41,43)                1.3799         estimate D2E/DX2                !
 ! R75   R(42,58)                1.4363         estimate D2E/DX2                !
 ! R76   R(43,46)                1.4307         estimate D2E/DX2                !
 ! R77   R(43,59)                1.444          estimate D2E/DX2                !
 ! R78   R(44,45)                1.4096         estimate D2E/DX2                !
 ! R79   R(44,46)                1.3966         estimate D2E/DX2                !
 ! R80   R(45,48)                1.38           estimate D2E/DX2                !
 ! R81   R(46,61)                1.4307         estimate D2E/DX2                !
 ! R82   R(47,48)                1.433          estimate D2E/DX2                !
 ! R83   R(47,50)                1.4277         estimate D2E/DX2                !
 ! R84   R(48,62)                1.4474         estimate D2E/DX2                !
 ! R85   R(49,50)                1.3783         estimate D2E/DX2                !
 ! R86   R(49,54)                1.4181         estimate D2E/DX2                !
 ! R87   R(50,63)                1.4495         estimate D2E/DX2                !
 ! R88   R(51,52)                1.3832         estimate D2E/DX2                !
 ! R89   R(51,54)                1.4343         estimate D2E/DX2                !
 ! R90   R(52,53)                1.4328         estimate D2E/DX2                !
 ! R91   R(53,55)                1.3843         estimate D2E/DX2                !
 ! R92   R(54,56)                1.3958         estimate D2E/DX2                !
 ! R93   R(55,56)                1.4312         estimate D2E/DX2                !
 ! R94   R(55,60)                1.4427         estimate D2E/DX2                !
 ! R95   R(56,64)                1.4301         estimate D2E/DX2                !
 ! R96   R(57,58)                1.4365         estimate D2E/DX2                !
 ! R97   R(57,60)                1.3818         estimate D2E/DX2                !
 ! R98   R(58,59)                1.3845         estimate D2E/DX2                !
 ! R99   R(59,65)                1.435          estimate D2E/DX2                !
 ! R100  R(60,66)                1.4345         estimate D2E/DX2                !
 ! R101  R(61,62)                1.3845         estimate D2E/DX2                !
 ! R102  R(61,65)                1.4441         estimate D2E/DX2                !
 ! R103  R(62,63)                1.434          estimate D2E/DX2                !
 ! R104  R(63,64)                1.3806         estimate D2E/DX2                !
 ! R105  R(64,66)                1.4418         estimate D2E/DX2                !
 ! R106  R(65,66)                1.3853         estimate D2E/DX2                !
 ! A1    A(2,1,4)              104.3064         estimate D2E/DX2                !
 ! A2    A(2,1,7)              119.4852         estimate D2E/DX2                !
 ! A3    A(2,1,67)             113.08           estimate D2E/DX2                !
 ! A4    A(4,1,7)               99.2247         estimate D2E/DX2                !
 ! A5    A(4,1,67)             113.868          estimate D2E/DX2                !
 ! A6    A(7,1,67)             106.287          estimate D2E/DX2                !
 ! A7    A(1,2,3)              104.7726         estimate D2E/DX2                !
 ! A8    A(1,2,10)             113.2036         estimate D2E/DX2                !
 ! A9    A(1,2,68)             110.595          estimate D2E/DX2                !
 ! A10   A(3,2,10)             105.3357         estimate D2E/DX2                !
 ! A11   A(3,2,68)             110.1855         estimate D2E/DX2                !
 ! A12   A(10,2,68)            112.3206         estimate D2E/DX2                !
 ! A13   A(2,3,5)              106.7202         estimate D2E/DX2                !
 ! A14   A(2,3,12)             105.2219         estimate D2E/DX2                !
 ! A15   A(2,3,69)             116.5012         estimate D2E/DX2                !
 ! A16   A(5,3,12)             102.1799         estimate D2E/DX2                !
 ! A17   A(5,3,69)             113.3194         estimate D2E/DX2                !
 ! A18   A(12,3,69)            111.6284         estimate D2E/DX2                !
 ! A19   A(1,4,5)              114.0235         estimate D2E/DX2                !
 ! A20   A(1,4,6)              111.6236         estimate D2E/DX2                !
 ! A21   A(5,4,6)              122.1603         estimate D2E/DX2                !
 ! A22   A(3,5,4)              110.0752         estimate D2E/DX2                !
 ! A23   A(3,5,15)             122.6448         estimate D2E/DX2                !
 ! A24   A(4,5,15)             117.7105         estimate D2E/DX2                !
 ! A25   A(4,6,8)              107.3233         estimate D2E/DX2                !
 ! A26   A(4,6,17)             121.3984         estimate D2E/DX2                !
 ! A27   A(8,6,17)             120.4543         estimate D2E/DX2                !
 ! A28   A(1,7,8)              110.5254         estimate D2E/DX2                !
 ! A29   A(1,7,9)              123.137          estimate D2E/DX2                !
 ! A30   A(8,7,9)              118.1519         estimate D2E/DX2                !
 ! A31   A(6,8,7)              107.6628         estimate D2E/DX2                !
 ! A32   A(6,8,20)             120.1748         estimate D2E/DX2                !
 ! A33   A(7,8,20)             124.8836         estimate D2E/DX2                !
 ! A34   A(7,9,11)             119.444          estimate D2E/DX2                !
 ! A35   A(7,9,22)             114.4481         estimate D2E/DX2                !
 ! A36   A(11,9,22)            119.1676         estimate D2E/DX2                !
 ! A37   A(2,10,11)            120.1961         estimate D2E/DX2                !
 ! A38   A(2,10,13)            104.9069         estimate D2E/DX2                !
 ! A39   A(2,10,72)            111.1276         estimate D2E/DX2                !
 ! A40   A(11,10,13)           102.982          estimate D2E/DX2                !
 ! A41   A(11,10,72)           107.3961         estimate D2E/DX2                !
 ! A42   A(13,10,72)           109.5972         estimate D2E/DX2                !
 ! A43   A(9,11,10)            121.6875         estimate D2E/DX2                !
 ! A44   A(9,11,25)            117.7554         estimate D2E/DX2                !
 ! A45   A(10,11,25)           116.7029         estimate D2E/DX2                !
 ! A46   A(3,12,13)            111.5808         estimate D2E/DX2                !
 ! A47   A(3,12,14)            124.8082         estimate D2E/DX2                !
 ! A48   A(13,12,14)           121.3477         estimate D2E/DX2                !
 ! A49   A(10,13,12)           111.7604         estimate D2E/DX2                !
 ! A50   A(10,13,27)           126.1452         estimate D2E/DX2                !
 ! A51   A(12,13,27)           120.1515         estimate D2E/DX2                !
 ! A52   A(12,14,16)           119.1032         estimate D2E/DX2                !
 ! A53   A(12,14,29)           118.0478         estimate D2E/DX2                !
 ! A54   A(16,14,29)           121.6866         estimate D2E/DX2                !
 ! A55   A(5,15,16)            122.2528         estimate D2E/DX2                !
 ! A56   A(5,15,18)            120.2379         estimate D2E/DX2                !
 ! A57   A(16,15,18)           110.232          estimate D2E/DX2                !
 ! A58   A(14,16,15)           103.5995         estimate D2E/DX2                !
 ! A59   A(14,16,32)           109.4828         estimate D2E/DX2                !
 ! A60   A(14,16,70)           110.9492         estimate D2E/DX2                !
 ! A61   A(15,16,32)           101.3747         estimate D2E/DX2                !
 ! A62   A(15,16,70)           116.8218         estimate D2E/DX2                !
 ! A63   A(32,16,70)           113.7456         estimate D2E/DX2                !
 ! A64   A(6,17,18)            114.6751         estimate D2E/DX2                !
 ! A65   A(6,17,19)            119.521          estimate D2E/DX2                !
 ! A66   A(18,17,19)           120.1414         estimate D2E/DX2                !
 ! A67   A(15,18,17)           121.9928         estimate D2E/DX2                !
 ! A68   A(15,18,33)           109.0874         estimate D2E/DX2                !
 ! A69   A(17,18,33)           120.452          estimate D2E/DX2                !
 ! A70   A(17,19,21)           119.0764         estimate D2E/DX2                !
 ! A71   A(17,19,35)           117.1399         estimate D2E/DX2                !
 ! A72   A(21,19,35)           118.533          estimate D2E/DX2                !
 ! A73   A(8,20,21)            119.6667         estimate D2E/DX2                !
 ! A74   A(8,20,23)            113.6036         estimate D2E/DX2                !
 ! A75   A(21,20,23)           120.7111         estimate D2E/DX2                !
 ! A76   A(19,21,20)           119.2866         estimate D2E/DX2                !
 ! A77   A(19,21,38)           118.4239         estimate D2E/DX2                !
 ! A78   A(20,21,38)           116.5936         estimate D2E/DX2                !
 ! A79   A(9,22,23)            123.1994         estimate D2E/DX2                !
 ! A80   A(9,22,24)            121.9736         estimate D2E/DX2                !
 ! A81   A(23,22,24)           106.872          estimate D2E/DX2                !
 ! A82   A(20,23,22)           119.9115         estimate D2E/DX2                !
 ! A83   A(20,23,40)           120.692          estimate D2E/DX2                !
 ! A84   A(22,23,40)           109.3758         estimate D2E/DX2                !
 ! A85   A(22,24,26)           117.2562         estimate D2E/DX2                !
 ! A86   A(22,24,41)           109.1247         estimate D2E/DX2                !
 ! A87   A(26,24,41)           121.0007         estimate D2E/DX2                !
 ! A88   A(11,25,26)           121.7643         estimate D2E/DX2                !
 ! A89   A(11,25,28)           124.7976         estimate D2E/DX2                !
 ! A90   A(26,25,28)           108.1977         estimate D2E/DX2                !
 ! A91   A(24,26,25)           120.8053         estimate D2E/DX2                !
 ! A92   A(24,26,44)           119.0641         estimate D2E/DX2                !
 ! A93   A(25,26,44)           110.1024         estimate D2E/DX2                !
 ! A94   A(13,27,28)           116.2088         estimate D2E/DX2                !
 ! A95   A(13,27,30)           120.2063         estimate D2E/DX2                !
 ! A96   A(28,27,30)           122.3471         estimate D2E/DX2                !
 ! A97   A(25,28,27)           106.1751         estimate D2E/DX2                !
 ! A98   A(25,28,45)           102.0073         estimate D2E/DX2                !
 ! A99   A(25,28,73)           115.2459         estimate D2E/DX2                !
 ! A100  A(27,28,45)           112.3768         estimate D2E/DX2                !
 ! A101  A(27,28,73)           110.578          estimate D2E/DX2                !
 ! A102  A(45,28,73)           110.205          estimate D2E/DX2                !
 ! A103  A(14,29,30)           120.313          estimate D2E/DX2                !
 ! A104  A(14,29,31)           119.0484         estimate D2E/DX2                !
 ! A105  A(30,29,31)           119.707          estimate D2E/DX2                !
 ! A106  A(27,30,29)           119.0148         estimate D2E/DX2                !
 ! A107  A(27,30,47)           118.8775         estimate D2E/DX2                !
 ! A108  A(29,30,47)           120.2391         estimate D2E/DX2                !
 ! A109  A(29,31,34)           109.6845         estimate D2E/DX2                !
 ! A110  A(29,31,49)           112.7284         estimate D2E/DX2                !
 ! A111  A(29,31,71)           107.0098         estimate D2E/DX2                !
 ! A112  A(34,31,49)           100.6637         estimate D2E/DX2                !
 ! A113  A(34,31,71)           113.1814         estimate D2E/DX2                !
 ! A114  A(49,31,71)           113.59           estimate D2E/DX2                !
 ! A115  A(16,32,33)           110.508          estimate D2E/DX2                !
 ! A116  A(16,32,34)           121.7115         estimate D2E/DX2                !
 ! A117  A(33,32,34)           118.6641         estimate D2E/DX2                !
 ! A118  A(18,33,32)           107.7243         estimate D2E/DX2                !
 ! A119  A(18,33,36)           119.0419         estimate D2E/DX2                !
 ! A120  A(32,33,36)           122.2415         estimate D2E/DX2                !
 ! A121  A(31,34,32)           122.0499         estimate D2E/DX2                !
 ! A122  A(31,34,51)           111.2579         estimate D2E/DX2                !
 ! A123  A(32,34,51)           119.4007         estimate D2E/DX2                !
 ! A124  A(19,35,36)           120.6861         estimate D2E/DX2                !
 ! A125  A(19,35,37)           121.7581         estimate D2E/DX2                !
 ! A126  A(36,35,37)           107.1346         estimate D2E/DX2                !
 ! A127  A(33,36,35)           121.2068         estimate D2E/DX2                !
 ! A128  A(33,36,52)           118.511          estimate D2E/DX2                !
 ! A129  A(35,36,52)           108.9322         estimate D2E/DX2                !
 ! A130  A(35,37,39)           119.8303         estimate D2E/DX2                !
 ! A131  A(35,37,53)           107.7376         estimate D2E/DX2                !
 ! A132  A(39,37,53)           120.616          estimate D2E/DX2                !
 ! A133  A(21,38,39)           121.9462         estimate D2E/DX2                !
 ! A134  A(21,38,42)           121.9197         estimate D2E/DX2                !
 ! A135  A(39,38,42)           106.8124         estimate D2E/DX2                !
 ! A136  A(37,39,38)           119.3589         estimate D2E/DX2                !
 ! A137  A(37,39,57)           120.0885         estimate D2E/DX2                !
 ! A138  A(38,39,57)           108.7954         estimate D2E/DX2                !
 ! A139  A(23,40,41)           107.4314         estimate D2E/DX2                !
 ! A140  A(23,40,42)           119.5574         estimate D2E/DX2                !
 ! A141  A(41,40,42)           121.2509         estimate D2E/DX2                !
 ! A142  A(24,41,40)           107.0597         estimate D2E/DX2                !
 ! A143  A(24,41,43)           119.9458         estimate D2E/DX2                !
 ! A144  A(40,41,43)           119.2965         estimate D2E/DX2                !
 ! A145  A(38,42,40)           119.8938         estimate D2E/DX2                !
 ! A146  A(38,42,58)           108.8185         estimate D2E/DX2                !
 ! A147  A(40,42,58)           119.3793         estimate D2E/DX2                !
 ! A148  A(41,43,46)           119.7444         estimate D2E/DX2                !
 ! A149  A(41,43,59)           119.8438         estimate D2E/DX2                !
 ! A150  A(46,43,59)           108.6759         estimate D2E/DX2                !
 ! A151  A(26,44,45)           106.9759         estimate D2E/DX2                !
 ! A152  A(26,44,46)           120.3045         estimate D2E/DX2                !
 ! A153  A(45,44,46)           121.3137         estimate D2E/DX2                !
 ! A154  A(28,45,44)           111.7476         estimate D2E/DX2                !
 ! A155  A(28,45,48)           120.6401         estimate D2E/DX2                !
 ! A156  A(44,45,48)           119.6127         estimate D2E/DX2                !
 ! A157  A(43,46,44)           119.8942         estimate D2E/DX2                !
 ! A158  A(43,46,61)           107.8936         estimate D2E/DX2                !
 ! A159  A(44,46,61)           119.3181         estimate D2E/DX2                !
 ! A160  A(30,47,48)           118.1064         estimate D2E/DX2                !
 ! A161  A(30,47,50)           118.6212         estimate D2E/DX2                !
 ! A162  A(48,47,50)           109.2226         estimate D2E/DX2                !
 ! A163  A(45,48,47)           121.9533         estimate D2E/DX2                !
 ! A164  A(45,48,62)           119.8185         estimate D2E/DX2                !
 ! A165  A(47,48,62)           107.2277         estimate D2E/DX2                !
 ! A166  A(31,49,50)           121.2996         estimate D2E/DX2                !
 ! A167  A(31,49,54)           111.7453         estimate D2E/DX2                !
 ! A168  A(50,49,54)           118.742          estimate D2E/DX2                !
 ! A169  A(47,50,49)           121.4536         estimate D2E/DX2                !
 ! A170  A(47,50,63)           107.1539         estimate D2E/DX2                !
 ! A171  A(49,50,63)           120.3822         estimate D2E/DX2                !
 ! A172  A(34,51,52)           121.4349         estimate D2E/DX2                !
 ! A173  A(34,51,54)           107.935          estimate D2E/DX2                !
 ! A174  A(52,51,54)           119.401          estimate D2E/DX2                !
 ! A175  A(36,52,51)           118.5754         estimate D2E/DX2                !
 ! A176  A(36,52,53)           107.0849         estimate D2E/DX2                !
 ! A177  A(51,52,53)           121.1264         estimate D2E/DX2                !
 ! A178  A(37,53,52)           108.6192         estimate D2E/DX2                !
 ! A179  A(37,53,55)           119.3415         estimate D2E/DX2                !
 ! A180  A(52,53,55)           119.4497         estimate D2E/DX2                !
 ! A181  A(49,54,51)           108.1164         estimate D2E/DX2                !
 ! A182  A(49,54,56)           121.6378         estimate D2E/DX2                !
 ! A183  A(51,54,56)           119.457          estimate D2E/DX2                !
 ! A184  A(53,55,56)           119.7896         estimate D2E/DX2                !
 ! A185  A(53,55,60)           119.9246         estimate D2E/DX2                !
 ! A186  A(56,55,60)           108.5364         estimate D2E/DX2                !
 ! A187  A(54,56,55)           120.5322         estimate D2E/DX2                !
 ! A188  A(54,56,64)           119.4146         estimate D2E/DX2                !
 ! A189  A(55,56,64)           107.8046         estimate D2E/DX2                !
 ! A190  A(39,57,58)           107.6295         estimate D2E/DX2                !
 ! A191  A(39,57,60)           119.4738         estimate D2E/DX2                !
 ! A192  A(58,57,60)           119.8741         estimate D2E/DX2                !
 ! A193  A(42,58,57)           107.5776         estimate D2E/DX2                !
 ! A194  A(42,58,59)           119.7519         estimate D2E/DX2                !
 ! A195  A(57,58,59)           120.1067         estimate D2E/DX2                !
 ! A196  A(43,59,58)           120.2424         estimate D2E/DX2                !
 ! A197  A(43,59,65)           107.1498         estimate D2E/DX2                !
 ! A198  A(58,59,65)           119.9062         estimate D2E/DX2                !
 ! A199  A(55,60,57)           120.276          estimate D2E/DX2                !
 ! A200  A(55,60,66)           107.3768         estimate D2E/DX2                !
 ! A201  A(57,60,66)           120.072          estimate D2E/DX2                !
 ! A202  A(46,61,62)           119.6192         estimate D2E/DX2                !
 ! A203  A(46,61,65)           107.9773         estimate D2E/DX2                !
 ! A204  A(62,61,65)           120.6004         estimate D2E/DX2                !
 ! A205  A(48,62,61)           120.0975         estimate D2E/DX2                !
 ! A206  A(48,62,63)           107.9605         estimate D2E/DX2                !
 ! A207  A(61,62,63)           119.8543         estimate D2E/DX2                !
 ! A208  A(50,63,62)           108.1641         estimate D2E/DX2                !
 ! A209  A(50,63,64)           120.174          estimate D2E/DX2                !
 ! A210  A(62,63,64)           119.678          estimate D2E/DX2                !
 ! A211  A(56,64,63)           119.4593         estimate D2E/DX2                !
 ! A212  A(56,64,66)           108.2003         estimate D2E/DX2                !
 ! A213  A(63,64,66)           120.7929         estimate D2E/DX2                !
 ! A214  A(59,65,61)           108.2379         estimate D2E/DX2                !
 ! A215  A(59,65,66)           119.9093         estimate D2E/DX2                !
 ! A216  A(61,65,66)           119.3924         estimate D2E/DX2                !
 ! A217  A(60,66,64)           108.0104         estimate D2E/DX2                !
 ! A218  A(60,66,65)           120.0531         estimate D2E/DX2                !
 ! A219  A(64,66,65)           119.6235         estimate D2E/DX2                !
 ! D1    D(4,1,2,3)              2.6504         estimate D2E/DX2                !
 ! D2    D(4,1,2,10)          -111.5938         estimate D2E/DX2                !
 ! D3    D(4,1,2,68)           121.3562         estimate D2E/DX2                !
 ! D4    D(7,1,2,3)            112.1771         estimate D2E/DX2                !
 ! D5    D(7,1,2,10)            -2.0671         estimate D2E/DX2                !
 ! D6    D(7,1,2,68)          -129.117          estimate D2E/DX2                !
 ! D7    D(67,1,2,3)          -121.5841         estimate D2E/DX2                !
 ! D8    D(67,1,2,10)          124.1717         estimate D2E/DX2                !
 ! D9    D(67,1,2,68)           -2.8783         estimate D2E/DX2                !
 ! D10   D(2,1,4,5)             -3.3943         estimate D2E/DX2                !
 ! D11   D(2,1,4,6)            140.0785         estimate D2E/DX2                !
 ! D12   D(7,1,4,5)           -127.1755         estimate D2E/DX2                !
 ! D13   D(7,1,4,6)             16.2973         estimate D2E/DX2                !
 ! D14   D(67,1,4,5)           120.3326         estimate D2E/DX2                !
 ! D15   D(67,1,4,6)           -96.1947         estimate D2E/DX2                !
 ! D16   D(2,1,7,8)           -131.3294         estimate D2E/DX2                !
 ! D17   D(2,1,7,9)             16.4548         estimate D2E/DX2                !
 ! D18   D(4,1,7,8)            -19.0313         estimate D2E/DX2                !
 ! D19   D(4,1,7,9)            128.7528         estimate D2E/DX2                !
 ! D20   D(67,1,7,8)            99.2969         estimate D2E/DX2                !
 ! D21   D(67,1,7,9)          -112.9189         estimate D2E/DX2                !
 ! D22   D(1,2,3,5)             -1.3049         estimate D2E/DX2                !
 ! D23   D(1,2,3,12)          -109.3669         estimate D2E/DX2                !
 ! D24   D(1,2,3,69)           126.4036         estimate D2E/DX2                !
 ! D25   D(10,2,3,5)           118.3536         estimate D2E/DX2                !
 ! D26   D(10,2,3,12)           10.2916         estimate D2E/DX2                !
 ! D27   D(10,2,3,69)         -113.938          estimate D2E/DX2                !
 ! D28   D(68,2,3,5)          -120.2871         estimate D2E/DX2                !
 ! D29   D(68,2,3,12)          131.6509         estimate D2E/DX2                !
 ! D30   D(68,2,3,69)            7.4213         estimate D2E/DX2                !
 ! D31   D(1,2,10,11)           -7.632          estimate D2E/DX2                !
 ! D32   D(1,2,10,13)          107.4476         estimate D2E/DX2                !
 ! D33   D(1,2,10,72)         -134.1952         estimate D2E/DX2                !
 ! D34   D(3,2,10,11)         -121.5373         estimate D2E/DX2                !
 ! D35   D(3,2,10,13)           -6.4577         estimate D2E/DX2                !
 ! D36   D(3,2,10,72)          111.8996         estimate D2E/DX2                !
 ! D37   D(68,2,10,11)         118.5043         estimate D2E/DX2                !
 ! D38   D(68,2,10,13)        -126.416          estimate D2E/DX2                !
 ! D39   D(68,2,10,72)          -8.0588         estimate D2E/DX2                !
 ! D40   D(2,3,5,4)             -0.7152         estimate D2E/DX2                !
 ! D41   D(2,3,5,15)          -146.0095         estimate D2E/DX2                !
 ! D42   D(12,3,5,4)           109.4849         estimate D2E/DX2                !
 ! D43   D(12,3,5,15)          -35.8094         estimate D2E/DX2                !
 ! D44   D(69,3,5,4)          -130.2728         estimate D2E/DX2                !
 ! D45   D(69,3,5,15)           84.4329         estimate D2E/DX2                !
 ! D46   D(2,3,12,13)          -10.9682         estimate D2E/DX2                !
 ! D47   D(2,3,12,14)          152.042          estimate D2E/DX2                !
 ! D48   D(5,3,12,13)         -122.2992         estimate D2E/DX2                !
 ! D49   D(5,3,12,14)           40.7109         estimate D2E/DX2                !
 ! D50   D(69,3,12,13)         116.2862         estimate D2E/DX2                !
 ! D51   D(69,3,12,14)         -80.7036         estimate D2E/DX2                !
 ! D52   D(1,4,5,3)              2.6619         estimate D2E/DX2                !
 ! D53   D(1,4,5,15)           149.8742         estimate D2E/DX2                !
 ! D54   D(6,4,5,3)           -136.5241         estimate D2E/DX2                !
 ! D55   D(6,4,5,15)            10.6882         estimate D2E/DX2                !
 ! D56   D(1,4,6,8)             -8.168          estimate D2E/DX2                !
 ! D57   D(1,4,6,17)          -152.499          estimate D2E/DX2                !
 ! D58   D(5,4,6,8)            131.8772         estimate D2E/DX2                !
 ! D59   D(5,4,6,17)           -12.4538         estimate D2E/DX2                !
 ! D60   D(3,5,15,16)           -3.4082         estimate D2E/DX2                !
 ! D61   D(3,5,15,18)          143.8523         estimate D2E/DX2                !
 ! D62   D(4,5,15,16)         -146.2479         estimate D2E/DX2                !
 ! D63   D(4,5,15,18)            1.0126         estimate D2E/DX2                !
 ! D64   D(4,6,8,7)             -4.5505         estimate D2E/DX2                !
 ! D65   D(4,6,8,20)          -156.1237         estimate D2E/DX2                !
 ! D66   D(17,6,8,7)           140.1834         estimate D2E/DX2                !
 ! D67   D(17,6,8,20)          -11.3897         estimate D2E/DX2                !
 ! D68   D(4,6,17,18)            1.9766         estimate D2E/DX2                !
 ! D69   D(4,6,17,19)          155.5091         estimate D2E/DX2                !
 ! D70   D(8,6,17,18)         -137.8019         estimate D2E/DX2                !
 ! D71   D(8,6,17,19)           15.7306         estimate D2E/DX2                !
 ! D72   D(1,7,8,6)             15.6362         estimate D2E/DX2                !
 ! D73   D(1,7,8,20)           165.5254         estimate D2E/DX2                !
 ! D74   D(9,7,8,6)           -133.9458         estimate D2E/DX2                !
 ! D75   D(9,7,8,20)            15.9433         estimate D2E/DX2                !
 ! D76   D(1,7,9,11)           -20.1128         estimate D2E/DX2                !
 ! D77   D(1,7,9,22)          -170.7356         estimate D2E/DX2                !
 ! D78   D(8,7,9,11)           125.3978         estimate D2E/DX2                !
 ! D79   D(8,7,9,22)           -25.225          estimate D2E/DX2                !
 ! D80   D(6,8,20,21)           -0.4624         estimate D2E/DX2                !
 ! D81   D(6,8,20,23)          152.4509         estimate D2E/DX2                !
 ! D82   D(7,8,20,21)         -146.8926         estimate D2E/DX2                !
 ! D83   D(7,8,20,23)            6.0207         estimate D2E/DX2                !
 ! D84   D(7,9,11,10)            9.16           estimate D2E/DX2                !
 ! D85   D(7,9,11,25)         -148.0019         estimate D2E/DX2                !
 ! D86   D(22,9,11,10)         158.4014         estimate D2E/DX2                !
 ! D87   D(22,9,11,25)           1.2396         estimate D2E/DX2                !
 ! D88   D(7,9,22,23)           14.8593         estimate D2E/DX2                !
 ! D89   D(7,9,22,24)          159.6801         estimate D2E/DX2                !
 ! D90   D(11,9,22,23)        -135.8507         estimate D2E/DX2                !
 ! D91   D(11,9,22,24)           8.9702         estimate D2E/DX2                !
 ! D92   D(2,10,11,9)            4.7564         estimate D2E/DX2                !
 ! D93   D(2,10,11,25)         162.1451         estimate D2E/DX2                !
 ! D94   D(13,10,11,9)        -111.3218         estimate D2E/DX2                !
 ! D95   D(13,10,11,25)         46.0669         estimate D2E/DX2                !
 ! D96   D(72,10,11,9)         133.0246         estimate D2E/DX2                !
 ! D97   D(72,10,11,25)        -69.5867         estimate D2E/DX2                !
 ! D98   D(2,10,13,12)          -0.0427         estimate D2E/DX2                !
 ! D99   D(2,10,13,27)        -164.0493         estimate D2E/DX2                !
 ! D100  D(11,10,13,12)        126.5057         estimate D2E/DX2                !
 ! D101  D(11,10,13,27)        -37.5009         estimate D2E/DX2                !
 ! D102  D(72,10,13,12)       -119.4301         estimate D2E/DX2                !
 ! D103  D(72,10,13,27)         76.5633         estimate D2E/DX2                !
 ! D104  D(9,11,25,26)          -8.9723         estimate D2E/DX2                !
 ! D105  D(9,11,25,28)         142.3809         estimate D2E/DX2                !
 ! D106  D(10,11,25,26)       -167.2753         estimate D2E/DX2                !
 ! D107  D(10,11,25,28)        -15.9221         estimate D2E/DX2                !
 ! D108  D(3,12,13,10)           7.1093         estimate D2E/DX2                !
 ! D109  D(3,12,13,27)         172.199          estimate D2E/DX2                !
 ! D110  D(14,12,13,10)       -156.5752         estimate D2E/DX2                !
 ! D111  D(14,12,13,27)          8.5144         estimate D2E/DX2                !
 ! D112  D(3,12,14,16)          -5.2999         estimate D2E/DX2                !
 ! D113  D(3,12,14,29)        -173.1919         estimate D2E/DX2                !
 ! D114  D(13,12,14,16)        156.1483         estimate D2E/DX2                !
 ! D115  D(13,12,14,29)        -11.7437         estimate D2E/DX2                !
 ! D116  D(10,13,27,28)         -5.5094         estimate D2E/DX2                !
 ! D117  D(10,13,27,30)        162.0777         estimate D2E/DX2                !
 ! D118  D(12,13,27,28)       -168.296          estimate D2E/DX2                !
 ! D119  D(12,13,27,30)         -0.7089         estimate D2E/DX2                !
 ! D120  D(12,14,16,15)        -34.6322         estimate D2E/DX2                !
 ! D121  D(12,14,16,32)       -142.1393         estimate D2E/DX2                !
 ! D122  D(12,14,16,70)         91.5041         estimate D2E/DX2                !
 ! D123  D(29,14,16,15)        132.8027         estimate D2E/DX2                !
 ! D124  D(29,14,16,32)         25.2956         estimate D2E/DX2                !
 ! D125  D(29,14,16,70)       -101.061          estimate D2E/DX2                !
 ! D126  D(12,14,29,30)          7.3989         estimate D2E/DX2                !
 ! D127  D(12,14,29,31)        176.3236         estimate D2E/DX2                !
 ! D128  D(16,14,29,30)       -160.1634         estimate D2E/DX2                !
 ! D129  D(16,14,29,31)          8.7613         estimate D2E/DX2                !
 ! D130  D(5,15,16,14)          39.6641         estimate D2E/DX2                !
 ! D131  D(5,15,16,32)         153.1603         estimate D2E/DX2                !
 ! D132  D(5,15,16,70)         -82.647          estimate D2E/DX2                !
 ! D133  D(18,15,16,14)       -110.4707         estimate D2E/DX2                !
 ! D134  D(18,15,16,32)          3.0255         estimate D2E/DX2                !
 ! D135  D(18,15,16,70)        127.2183         estimate D2E/DX2                !
 ! D136  D(5,15,18,17)         -11.435          estimate D2E/DX2                !
 ! D137  D(5,15,18,33)        -159.4851         estimate D2E/DX2                !
 ! D138  D(16,15,18,17)        139.3919         estimate D2E/DX2                !
 ! D139  D(16,15,18,33)         -8.6582         estimate D2E/DX2                !
 ! D140  D(14,16,32,33)        112.6537         estimate D2E/DX2                !
 ! D141  D(14,16,32,34)        -33.7673         estimate D2E/DX2                !
 ! D142  D(15,16,32,33)          3.6527         estimate D2E/DX2                !
 ! D143  D(15,16,32,34)       -142.7682         estimate D2E/DX2                !
 ! D144  D(70,16,32,33)       -122.5984         estimate D2E/DX2                !
 ! D145  D(70,16,32,34)         90.9806         estimate D2E/DX2                !
 ! D146  D(6,17,18,15)           9.5808         estimate D2E/DX2                !
 ! D147  D(6,17,18,33)         154.1227         estimate D2E/DX2                !
 ! D148  D(19,17,18,15)       -143.7739         estimate D2E/DX2                !
 ! D149  D(19,17,18,33)          0.768          estimate D2E/DX2                !
 ! D150  D(6,17,19,21)          -8.3491         estimate D2E/DX2                !
 ! D151  D(6,17,19,35)        -162.4025         estimate D2E/DX2                !
 ! D152  D(18,17,19,21)        143.7259         estimate D2E/DX2                !
 ! D153  D(18,17,19,35)        -10.3275         estimate D2E/DX2                !
 ! D154  D(15,18,33,32)         10.8224         estimate D2E/DX2                !
 ! D155  D(15,18,33,36)        155.7165         estimate D2E/DX2                !
 ! D156  D(17,18,33,32)       -137.8037         estimate D2E/DX2                !
 ! D157  D(17,18,33,36)          7.0904         estimate D2E/DX2                !
 ! D158  D(17,19,21,20)         -3.2264         estimate D2E/DX2                !
 ! D159  D(17,19,21,38)       -155.7473         estimate D2E/DX2                !
 ! D160  D(35,19,21,20)        150.4662         estimate D2E/DX2                !
 ! D161  D(35,19,21,38)         -2.0547         estimate D2E/DX2                !
 ! D162  D(17,19,35,36)         12.2987         estimate D2E/DX2                !
 ! D163  D(17,19,35,37)        152.6755         estimate D2E/DX2                !
 ! D164  D(21,19,35,36)       -141.8996         estimate D2E/DX2                !
 ! D165  D(21,19,35,37)         -1.5228         estimate D2E/DX2                !
 ! D166  D(8,20,21,19)           7.5678         estimate D2E/DX2                !
 ! D167  D(8,20,21,38)         160.5793         estimate D2E/DX2                !
 ! D168  D(23,20,21,19)       -143.3996         estimate D2E/DX2                !
 ! D169  D(23,20,21,38)          9.6118         estimate D2E/DX2                !
 ! D170  D(8,20,23,22)         -16.9573         estimate D2E/DX2                !
 ! D171  D(8,20,23,40)        -158.8235         estimate D2E/DX2                !
 ! D172  D(21,20,23,22)        135.6431         estimate D2E/DX2                !
 ! D173  D(21,20,23,40)         -6.223          estimate D2E/DX2                !
 ! D174  D(19,21,38,39)          3.7929         estimate D2E/DX2                !
 ! D175  D(19,21,38,42)        145.9805         estimate D2E/DX2                !
 ! D176  D(20,21,38,39)       -149.4594         estimate D2E/DX2                !
 ! D177  D(20,21,38,42)         -7.2718         estimate D2E/DX2                !
 ! D178  D(9,22,23,20)           7.0492         estimate D2E/DX2                !
 ! D179  D(9,22,23,40)         152.7937         estimate D2E/DX2                !
 ! D180  D(24,22,23,20)       -142.2394         estimate D2E/DX2                !
 ! D181  D(24,22,23,40)          3.5052         estimate D2E/DX2                !
 ! D182  D(9,22,24,26)         -11.1305         estimate D2E/DX2                !
 ! D183  D(9,22,24,41)        -153.4907         estimate D2E/DX2                !
 ! D184  D(23,22,24,26)        138.6192         estimate D2E/DX2                !
 ! D185  D(23,22,24,41)         -3.7409         estimate D2E/DX2                !
 ! D186  D(20,23,40,41)        143.4932         estimate D2E/DX2                !
 ! D187  D(20,23,40,42)          0.0596         estimate D2E/DX2                !
 ! D188  D(22,23,40,41)         -1.9388         estimate D2E/DX2                !
 ! D189  D(22,23,40,42)       -145.3725         estimate D2E/DX2                !
 ! D190  D(22,24,26,25)          3.3044         estimate D2E/DX2                !
 ! D191  D(22,24,26,44)       -138.8046         estimate D2E/DX2                !
 ! D192  D(41,24,26,25)        140.9945         estimate D2E/DX2                !
 ! D193  D(41,24,26,44)         -1.1146         estimate D2E/DX2                !
 ! D194  D(22,24,41,40)          2.5774         estimate D2E/DX2                !
 ! D195  D(22,24,41,43)        142.7072         estimate D2E/DX2                !
 ! D196  D(26,24,41,40)       -138.1244         estimate D2E/DX2                !
 ! D197  D(26,24,41,43)          2.0054         estimate D2E/DX2                !
 ! D198  D(11,25,26,24)          6.8203         estimate D2E/DX2                !
 ! D199  D(11,25,26,44)        151.955          estimate D2E/DX2                !
 ! D200  D(28,25,26,24)       -148.6979         estimate D2E/DX2                !
 ! D201  D(28,25,26,44)         -3.5632         estimate D2E/DX2                !
 ! D202  D(11,25,28,27)        -28.7581         estimate D2E/DX2                !
 ! D203  D(11,25,28,45)       -146.5943         estimate D2E/DX2                !
 ! D204  D(11,25,28,73)         94.0201         estimate D2E/DX2                !
 ! D205  D(26,25,28,27)        125.8337         estimate D2E/DX2                !
 ! D206  D(26,25,28,45)          7.9976         estimate D2E/DX2                !
 ! D207  D(26,25,28,73)       -111.3881         estimate D2E/DX2                !
 ! D208  D(24,26,44,45)        142.9756         estimate D2E/DX2                !
 ! D209  D(24,26,44,46)         -0.9083         estimate D2E/DX2                !
 ! D210  D(25,26,44,45)         -2.8488         estimate D2E/DX2                !
 ! D211  D(25,26,44,46)       -146.7327         estimate D2E/DX2                !
 ! D212  D(13,27,28,25)         37.9752         estimate D2E/DX2                !
 ! D213  D(13,27,28,45)        148.6868         estimate D2E/DX2                !
 ! D214  D(13,27,28,73)        -87.704          estimate D2E/DX2                !
 ! D215  D(30,27,28,25)       -129.3223         estimate D2E/DX2                !
 ! D216  D(30,27,28,45)        -18.6107         estimate D2E/DX2                !
 ! D217  D(30,27,28,73)        104.9986         estimate D2E/DX2                !
 ! D218  D(13,27,30,29)         -3.4267         estimate D2E/DX2                !
 ! D219  D(13,27,30,47)       -167.9119         estimate D2E/DX2                !
 ! D220  D(28,27,30,29)        163.3776         estimate D2E/DX2                !
 ! D221  D(28,27,30,47)         -1.1076         estimate D2E/DX2                !
 ! D222  D(25,28,45,44)        -10.13           estimate D2E/DX2                !
 ! D223  D(25,28,45,48)        138.5877         estimate D2E/DX2                !
 ! D224  D(27,28,45,44)       -123.4309         estimate D2E/DX2                !
 ! D225  D(27,28,45,48)         25.2868         estimate D2E/DX2                !
 ! D226  D(73,28,45,44)        112.752          estimate D2E/DX2                !
 ! D227  D(73,28,45,48)        -98.5302         estimate D2E/DX2                !
 ! D228  D(14,29,30,27)         -0.0229         estimate D2E/DX2                !
 ! D229  D(14,29,30,47)        164.2464         estimate D2E/DX2                !
 ! D230  D(31,29,30,27)       -168.8748         estimate D2E/DX2                !
 ! D231  D(31,29,30,47)         -4.6056         estimate D2E/DX2                !
 ! D232  D(14,29,31,34)        -34.9577         estimate D2E/DX2                !
 ! D233  D(14,29,31,49)       -146.2381         estimate D2E/DX2                !
 ! D234  D(14,29,31,71)         88.1792         estimate D2E/DX2                !
 ! D235  D(30,29,31,34)        134.0353         estimate D2E/DX2                !
 ! D236  D(30,29,31,49)         22.7549         estimate D2E/DX2                !
 ! D237  D(30,29,31,71)       -102.8278         estimate D2E/DX2                !
 ! D238  D(27,30,47,48)         15.8917         estimate D2E/DX2                !
 ! D239  D(27,30,47,50)        151.6718         estimate D2E/DX2                !
 ! D240  D(29,30,47,48)       -148.3989         estimate D2E/DX2                !
 ! D241  D(29,30,47,50)        -12.6188         estimate D2E/DX2                !
 ! D242  D(29,31,34,32)         27.6966         estimate D2E/DX2                !
 ! D243  D(29,31,34,51)       -122.1916         estimate D2E/DX2                !
 ! D244  D(49,31,34,32)        146.7036         estimate D2E/DX2                !
 ! D245  D(49,31,34,51)         -3.1846         estimate D2E/DX2                !
 ! D246  D(71,31,34,32)        -91.7211         estimate D2E/DX2                !
 ! D247  D(71,31,34,51)        118.3908         estimate D2E/DX2                !
 ! D248  D(29,31,49,50)        -26.0835         estimate D2E/DX2                !
 ! D249  D(29,31,49,54)        121.9541         estimate D2E/DX2                !
 ! D250  D(34,31,49,50)       -142.8588         estimate D2E/DX2                !
 ! D251  D(34,31,49,54)          5.1789         estimate D2E/DX2                !
 ! D252  D(71,31,49,50)         95.855          estimate D2E/DX2                !
 ! D253  D(71,31,49,54)       -116.1073         estimate D2E/DX2                !
 ! D254  D(16,32,33,18)         -8.9559         estimate D2E/DX2                !
 ! D255  D(16,32,33,36)       -152.4834         estimate D2E/DX2                !
 ! D256  D(34,32,33,18)        138.6167         estimate D2E/DX2                !
 ! D257  D(34,32,33,36)         -4.9108         estimate D2E/DX2                !
 ! D258  D(16,32,34,31)          7.1554         estimate D2E/DX2                !
 ! D259  D(16,32,34,51)        154.6979         estimate D2E/DX2                !
 ! D260  D(33,32,34,31)       -136.6601         estimate D2E/DX2                !
 ! D261  D(33,32,34,51)         10.8824         estimate D2E/DX2                !
 ! D262  D(18,33,36,35)         -5.2102         estimate D2E/DX2                !
 ! D263  D(18,33,36,52)       -144.741          estimate D2E/DX2                !
 ! D264  D(32,33,36,35)        134.4249         estimate D2E/DX2                !
 ! D265  D(32,33,36,52)         -5.106          estimate D2E/DX2                !
 ! D266  D(31,34,51,52)        143.6034         estimate D2E/DX2                !
 ! D267  D(31,34,51,54)          0.2255         estimate D2E/DX2                !
 ! D268  D(32,34,51,52)         -7.1817         estimate D2E/DX2                !
 ! D269  D(32,34,51,54)       -150.5596         estimate D2E/DX2                !
 ! D270  D(19,35,36,33)         -4.7639         estimate D2E/DX2                !
 ! D271  D(19,35,36,52)        138.1551         estimate D2E/DX2                !
 ! D272  D(37,35,36,33)       -150.1921         estimate D2E/DX2                !
 ! D273  D(37,35,36,52)         -7.2732         estimate D2E/DX2                !
 ! D274  D(19,35,37,39)          3.5126         estimate D2E/DX2                !
 ! D275  D(19,35,37,53)       -139.5966         estimate D2E/DX2                !
 ! D276  D(36,35,37,39)        148.4893         estimate D2E/DX2                !
 ! D277  D(36,35,37,53)          5.3801         estimate D2E/DX2                !
 ! D278  D(33,36,52,51)          8.7992         estimate D2E/DX2                !
 ! D279  D(33,36,52,53)        150.3544         estimate D2E/DX2                !
 ! D280  D(35,36,52,51)       -135.2654         estimate D2E/DX2                !
 ! D281  D(35,36,52,53)          6.2898         estimate D2E/DX2                !
 ! D282  D(35,37,39,38)         -1.7912         estimate D2E/DX2                !
 ! D283  D(35,37,39,57)       -140.6571         estimate D2E/DX2                !
 ! D284  D(53,37,39,38)        136.5749         estimate D2E/DX2                !
 ! D285  D(53,37,39,57)         -2.2909         estimate D2E/DX2                !
 ! D286  D(35,37,53,52)         -1.5731         estimate D2E/DX2                !
 ! D287  D(35,37,53,55)        140.106          estimate D2E/DX2                !
 ! D288  D(39,37,53,52)       -144.3366         estimate D2E/DX2                !
 ! D289  D(39,37,53,55)         -2.6575         estimate D2E/DX2                !
 ! D290  D(21,38,39,37)         -1.8696         estimate D2E/DX2                !
 ! D291  D(21,38,39,57)        141.1712         estimate D2E/DX2                !
 ! D292  D(42,38,39,37)       -148.9398         estimate D2E/DX2                !
 ! D293  D(42,38,39,57)         -5.899          estimate D2E/DX2                !
 ! D294  D(21,38,42,40)          1.467          estimate D2E/DX2                !
 ! D295  D(21,38,42,58)       -141.0703         estimate D2E/DX2                !
 ! D296  D(39,38,42,40)        148.5479         estimate D2E/DX2                !
 ! D297  D(39,38,42,58)          6.0106         estimate D2E/DX2                !
 ! D298  D(37,39,57,58)        146.3157         estimate D2E/DX2                !
 ! D299  D(37,39,57,60)          5.0606         estimate D2E/DX2                !
 ! D300  D(38,39,57,58)          3.5901         estimate D2E/DX2                !
 ! D301  D(38,39,57,60)       -137.665          estimate D2E/DX2                !
 ! D302  D(23,40,41,24)         -0.3882         estimate D2E/DX2                !
 ! D303  D(23,40,41,43)       -140.8246         estimate D2E/DX2                !
 ! D304  D(42,40,41,24)        142.2982         estimate D2E/DX2                !
 ! D305  D(42,40,41,43)          1.8618         estimate D2E/DX2                !
 ! D306  D(23,40,42,38)          2.3518         estimate D2E/DX2                !
 ! D307  D(23,40,42,58)        140.9983         estimate D2E/DX2                !
 ! D308  D(41,40,42,38)       -135.9763         estimate D2E/DX2                !
 ! D309  D(41,40,42,58)          2.6701         estimate D2E/DX2                !
 ! D310  D(24,41,43,46)         -0.8385         estimate D2E/DX2                !
 ! D311  D(24,41,43,59)       -139.6917         estimate D2E/DX2                !
 ! D312  D(40,41,43,46)        134.5155         estimate D2E/DX2                !
 ! D313  D(40,41,43,59)         -4.3377         estimate D2E/DX2                !
 ! D314  D(38,42,58,57)         -3.8503         estimate D2E/DX2                !
 ! D315  D(38,42,58,59)        138.0693         estimate D2E/DX2                !
 ! D316  D(40,42,58,57)       -146.611          estimate D2E/DX2                !
 ! D317  D(40,42,58,59)         -4.6914         estimate D2E/DX2                !
 ! D318  D(41,43,46,44)         -1.1604         estimate D2E/DX2                !
 ! D319  D(41,43,46,61)       -142.3414         estimate D2E/DX2                !
 ! D320  D(59,43,46,44)        141.7938         estimate D2E/DX2                !
 ! D321  D(59,43,46,61)          0.6128         estimate D2E/DX2                !
 ! D322  D(41,43,59,58)          2.3179         estimate D2E/DX2                !
 ! D323  D(41,43,59,65)        143.9363         estimate D2E/DX2                !
 ! D324  D(46,43,59,58)       -140.5933         estimate D2E/DX2                !
 ! D325  D(46,43,59,65)          1.0251         estimate D2E/DX2                !
 ! D326  D(26,44,45,28)          8.4106         estimate D2E/DX2                !
 ! D327  D(26,44,45,48)       -140.6668         estimate D2E/DX2                !
 ! D328  D(46,44,45,28)        151.8518         estimate D2E/DX2                !
 ! D329  D(46,44,45,48)          2.7744         estimate D2E/DX2                !
 ! D330  D(26,44,46,43)          2.051          estimate D2E/DX2                !
 ! D331  D(26,44,46,61)        138.8804         estimate D2E/DX2                !
 ! D332  D(45,44,46,43)       -136.6598         estimate D2E/DX2                !
 ! D333  D(45,44,46,61)          0.1696         estimate D2E/DX2                !
 ! D334  D(28,45,48,47)        -12.2974         estimate D2E/DX2                !
 ! D335  D(28,45,48,62)       -151.7449         estimate D2E/DX2                !
 ! D336  D(44,45,48,47)        134.0086         estimate D2E/DX2                !
 ! D337  D(44,45,48,62)         -5.4388         estimate D2E/DX2                !
 ! D338  D(43,46,61,62)        141.1302         estimate D2E/DX2                !
 ! D339  D(43,46,61,65)         -2.0087         estimate D2E/DX2                !
 ! D340  D(44,46,61,62)         -0.3129         estimate D2E/DX2                !
 ! D341  D(44,46,61,65)       -143.4518         estimate D2E/DX2                !
 ! D342  D(30,47,48,45)         -9.3526         estimate D2E/DX2                !
 ! D343  D(30,47,48,62)        134.4503         estimate D2E/DX2                !
 ! D344  D(50,47,48,45)       -148.9359         estimate D2E/DX2                !
 ! D345  D(50,47,48,62)         -5.133          estimate D2E/DX2                !
 ! D346  D(30,47,50,49)          9.8817         estimate D2E/DX2                !
 ! D347  D(30,47,50,63)       -134.1452         estimate D2E/DX2                !
 ! D348  D(48,47,50,49)        149.2274         estimate D2E/DX2                !
 ! D349  D(48,47,50,63)          5.2005         estimate D2E/DX2                !
 ! D350  D(45,48,62,61)          5.3191         estimate D2E/DX2                !
 ! D351  D(45,48,62,63)        147.7609         estimate D2E/DX2                !
 ! D352  D(47,48,62,61)       -139.4028         estimate D2E/DX2                !
 ! D353  D(47,48,62,63)          3.0391         estimate D2E/DX2                !
 ! D354  D(31,49,50,47)         10.508          estimate D2E/DX2                !
 ! D355  D(31,49,50,63)        149.9193         estimate D2E/DX2                !
 ! D356  D(54,49,50,47)       -135.3819         estimate D2E/DX2                !
 ! D357  D(54,49,50,63)          4.0293         estimate D2E/DX2                !
 ! D358  D(31,49,54,51)         -5.4001         estimate D2E/DX2                !
 ! D359  D(31,49,54,56)       -149.4292         estimate D2E/DX2                !
 ! D360  D(50,49,54,51)        143.5436         estimate D2E/DX2                !
 ! D361  D(50,49,54,56)         -0.4854         estimate D2E/DX2                !
 ! D362  D(47,50,63,62)         -3.2503         estimate D2E/DX2                !
 ! D363  D(47,50,63,64)        139.2653         estimate D2E/DX2                !
 ! D364  D(49,50,63,62)       -147.739          estimate D2E/DX2                !
 ! D365  D(49,50,63,64)         -5.2234         estimate D2E/DX2                !
 ! D366  D(34,51,52,36)         -2.8947         estimate D2E/DX2                !
 ! D367  D(34,51,52,53)       -138.925          estimate D2E/DX2                !
 ! D368  D(54,51,52,36)        136.4543         estimate D2E/DX2                !
 ! D369  D(54,51,52,53)          0.424          estimate D2E/DX2                !
 ! D370  D(34,51,54,49)          3.116          estimate D2E/DX2                !
 ! D371  D(34,51,54,56)        148.0636         estimate D2E/DX2                !
 ! D372  D(52,51,54,49)       -141.1355         estimate D2E/DX2                !
 ! D373  D(52,51,54,56)          3.8121         estimate D2E/DX2                !
 ! D374  D(36,52,53,37)         -2.8929         estimate D2E/DX2                !
 ! D375  D(36,52,53,55)       -144.5238         estimate D2E/DX2                !
 ! D376  D(51,52,53,37)        137.475          estimate D2E/DX2                !
 ! D377  D(51,52,53,55)         -4.1559         estimate D2E/DX2                !
 ! D378  D(37,53,55,56)       -133.9733         estimate D2E/DX2                !
 ! D379  D(37,53,55,60)          4.8055         estimate D2E/DX2                !
 ! D380  D(52,53,55,56)          3.5877         estimate D2E/DX2                !
 ! D381  D(52,53,55,60)        142.3664         estimate D2E/DX2                !
 ! D382  D(49,54,56,55)        135.7537         estimate D2E/DX2                !
 ! D383  D(49,54,56,64)         -1.9832         estimate D2E/DX2                !
 ! D384  D(51,54,56,55)         -4.3694         estimate D2E/DX2                !
 ! D385  D(51,54,56,64)       -142.1063         estimate D2E/DX2                !
 ! D386  D(53,55,56,54)          0.6431         estimate D2E/DX2                !
 ! D387  D(53,55,56,64)        142.6687         estimate D2E/DX2                !
 ! D388  D(60,55,56,54)       -142.3173         estimate D2E/DX2                !
 ! D389  D(60,55,56,64)         -0.2917         estimate D2E/DX2                !
 ! D390  D(53,55,60,57)         -2.0417         estimate D2E/DX2                !
 ! D391  D(53,55,60,66)       -144.2891         estimate D2E/DX2                !
 ! D392  D(56,55,60,57)        140.8602         estimate D2E/DX2                !
 ! D393  D(56,55,60,66)         -1.3872         estimate D2E/DX2                !
 ! D394  D(54,56,64,63)          0.8068         estimate D2E/DX2                !
 ! D395  D(54,56,64,66)        144.3815         estimate D2E/DX2                !
 ! D396  D(55,56,64,63)       -141.7175         estimate D2E/DX2                !
 ! D397  D(55,56,64,66)          1.8572         estimate D2E/DX2                !
 ! D398  D(39,57,58,42)          0.1669         estimate D2E/DX2                !
 ! D399  D(39,57,58,59)       -141.5921         estimate D2E/DX2                !
 ! D400  D(60,57,58,42)        141.2383         estimate D2E/DX2                !
 ! D401  D(60,57,58,59)         -0.5207         estimate D2E/DX2                !
 ! D402  D(39,57,60,55)         -2.896          estimate D2E/DX2                !
 ! D403  D(39,57,60,66)        134.6347         estimate D2E/DX2                !
 ! D404  D(58,57,60,55)       -139.4349         estimate D2E/DX2                !
 ! D405  D(58,57,60,66)         -1.9041         estimate D2E/DX2                !
 ! D406  D(42,58,59,43)          2.2323         estimate D2E/DX2                !
 ! D407  D(42,58,59,65)       -134.5772         estimate D2E/DX2                !
 ! D408  D(57,58,59,43)        139.4152         estimate D2E/DX2                !
 ! D409  D(57,58,59,65)          2.6056         estimate D2E/DX2                !
 ! D410  D(43,59,65,61)         -2.2589         estimate D2E/DX2                !
 ! D411  D(43,59,65,66)       -144.0439         estimate D2E/DX2                !
 ! D412  D(58,59,65,61)        139.5133         estimate D2E/DX2                !
 ! D413  D(58,59,65,66)         -2.2717         estimate D2E/DX2                !
 ! D414  D(55,60,66,64)          2.5204         estimate D2E/DX2                !
 ! D415  D(55,60,66,65)        144.5759         estimate D2E/DX2                !
 ! D416  D(57,60,66,64)       -139.8187         estimate D2E/DX2                !
 ! D417  D(57,60,66,65)          2.2368         estimate D2E/DX2                !
 ! D418  D(46,61,62,48)         -2.3711         estimate D2E/DX2                !
 ! D419  D(46,61,62,63)       -140.413          estimate D2E/DX2                !
 ! D420  D(65,61,62,48)        136.1069         estimate D2E/DX2                !
 ! D421  D(65,61,62,63)         -1.935          estimate D2E/DX2                !
 ! D422  D(46,61,65,59)          2.6601         estimate D2E/DX2                !
 ! D423  D(46,61,65,66)        144.6758         estimate D2E/DX2                !
 ! D424  D(62,61,65,59)       -140.0488         estimate D2E/DX2                !
 ! D425  D(62,61,65,66)          1.9669         estimate D2E/DX2                !
 ! D426  D(48,62,63,50)          0.1243         estimate D2E/DX2                !
 ! D427  D(48,62,63,64)       -142.6094         estimate D2E/DX2                !
 ! D428  D(61,62,63,50)        142.6739         estimate D2E/DX2                !
 ! D429  D(61,62,63,64)         -0.0598         estimate D2E/DX2                !
 ! D430  D(50,63,64,56)          2.6969         estimate D2E/DX2                !
 ! D431  D(50,63,64,66)       -136.2591         estimate D2E/DX2                !
 ! D432  D(62,63,64,56)        140.9744         estimate D2E/DX2                !
 ! D433  D(62,63,64,66)          2.0184         estimate D2E/DX2                !
 ! D434  D(56,64,66,60)         -2.7272         estimate D2E/DX2                !
 ! D435  D(56,64,66,65)       -144.9741         estimate D2E/DX2                !
 ! D436  D(63,64,66,60)        140.2704         estimate D2E/DX2                !
 ! D437  D(63,64,66,65)         -1.9765         estimate D2E/DX2                !
[...]
    11 C(13)  Bbb    -0.0011    -0.148    -0.053    -0.049  0.1174 -0.2444  0.9625
              Bcc     0.0051     0.684     0.244     0.228  0.7628  0.6428  0.0701
 
              Baa    -0.0692    -9.287    -3.314    -3.098  0.3564  0.9041 -0.2356
    12 C(13)  Bbb    -0.0625    -8.382    -2.991    -2.796  0.7162 -0.1023  0.6904
              Bcc     0.1317    17.669     6.305     5.894 -0.6001  0.4148  0.6840
 
              Baa    -0.0570    -7.651    -2.730    -2.552 -0.6208  0.1869  0.7614
    13 C(13)  Bbb     0.0241     3.229     1.152     1.077  0.4245  0.8966  0.1261
              Bcc     0.0330     4.422     1.578     1.475  0.6591 -0.4015  0.6360
 
              Baa    -0.0619    -8.305    -2.964    -2.770 -0.5101  0.5860  0.6295
    14 C(13)  Bbb     0.0279     3.745     1.336     1.249  0.1313  0.7764 -0.6164
              Bcc     0.0340     4.560     1.627     1.521  0.8500  0.2318  0.4730
 
              Baa    -0.0040    -0.535    -0.191    -0.178  0.1475  0.6118  0.7772
    15 C(13)  Bbb    -0.0032    -0.431    -0.154    -0.144  0.8690  0.2950 -0.3972
              Bcc     0.0072     0.966     0.345     0.322 -0.4723  0.7340 -0.4881
 
              Baa    -0.0011    -0.141    -0.050    -0.047 -0.1846  0.5927  0.7840
    16 C(13)  Bbb    -0.0006    -0.080    -0.028    -0.027  0.8847  0.4477 -0.1301
              Bcc     0.0016     0.221     0.079     0.074 -0.4281  0.6696 -0.6070
 
              Baa    -0.0026    -0.351    -0.125    -0.117  0.2393  0.9533  0.1843
    17 C(13)  Bbb    -0.0022    -0.295    -0.105    -0.098  0.9431 -0.1831 -0.2774
              Bcc     0.0048     0.646     0.231     0.215  0.2307 -0.2402  0.9429
 
              Baa    -0.0054    -0.727    -0.259    -0.242  0.3455 -0.6621  0.6650
    18 C(13)  Bbb     0.0027     0.358     0.128     0.119  0.6161  0.6946  0.3715
              Bcc     0.0027     0.369     0.132     0.123  0.7079 -0.2813 -0.6479
 
              Baa    -0.0111    -1.492    -0.532    -0.498 -0.0086 -0.0661  0.9978
    19 C(13)  Bbb     0.0049     0.661     0.236     0.220  0.9877 -0.1567 -0.0019
              Bcc     0.0062     0.831     0.296     0.277  0.1564  0.9854  0.0667
 
              Baa    -0.0067    -0.906    -0.323    -0.302  0.0809  0.4345  0.8970
    20 C(13)  Bbb     0.0027     0.367     0.131     0.122  0.7403 -0.6288  0.2378
              Bcc     0.0040     0.539     0.192     0.180  0.6674  0.6448 -0.3726
 
              Baa    -0.0249    -3.339    -1.191    -1.114  0.8783 -0.4753  0.0520
    21 C(13)  Bbb    -0.0243    -3.257    -1.162    -1.086  0.4767  0.8621 -0.1721
              Bcc     0.0492     6.596     2.354     2.200  0.0369  0.1760  0.9837
 
              Baa    -0.0019    -0.253    -0.090    -0.084  0.5594  0.8253  0.0768
    22 C(13)  Bbb     0.0003     0.047     0.017     0.016  0.7179 -0.5287  0.4528
              Bcc     0.0015     0.206     0.074     0.069 -0.4143  0.1982  0.8883
 
              Baa    -0.0057    -0.770    -0.275    -0.257  0.9849 -0.1724 -0.0173
    23 C(13)  Bbb    -0.0051    -0.683    -0.244    -0.228 -0.1028 -0.6618  0.7426
              Bcc     0.0108     1.453     0.518     0.485  0.1395  0.7296  0.6695
 
              Baa    -0.0180    -2.418    -0.863    -0.807  0.1764  0.9818 -0.0708
    24 C(13)  Bbb     0.0075     1.008     0.360     0.336  0.8296 -0.1096  0.5475
              Bcc     0.0105     1.410     0.503     0.470 -0.5298  0.1553  0.8338
 
              Baa    -0.0064    -0.853    -0.304    -0.284 -0.0732 -0.3068  0.9490
    25 C(13)  Bbb    -0.0039    -0.518    -0.185    -0.173  0.8319 -0.5435 -0.1115
              Bcc     0.0102     1.370     0.489     0.457  0.5500  0.7813  0.2950
 
              Baa    -0.0199    -2.668    -0.952    -0.890  0.9447 -0.1635  0.2843
    26 C(13)  Bbb    -0.0176    -2.362    -0.843    -0.788 -0.1877  0.4412  0.8775
              Bcc     0.0375     5.030     1.795     1.678  0.2689  0.8824 -0.3861
 
              Baa    -0.0741    -9.948    -3.550    -3.318  0.3917  0.9155  0.0916
    27 C(13)  Bbb    -0.0704    -9.453    -3.373    -3.153  0.7878 -0.3851  0.4807
              Bcc     0.1446    19.401     6.923     6.472 -0.4754  0.1162  0.8721
 
              Baa    -0.0075    -1.010    -0.360    -0.337 -0.1280  0.0538  0.9903
    28 C(13)  Bbb     0.0011     0.151     0.054     0.050 -0.5902  0.7983 -0.1196
              Bcc     0.0064     0.859     0.307     0.287  0.7970  0.5998  0.0705
 
              Baa    -0.0606    -8.130    -2.901    -2.712 -0.0703  0.7678 -0.6368
    29 C(13)  Bbb    -0.0582    -7.805    -2.785    -2.604  0.9166  0.3016  0.2624
              Bcc     0.1188    15.936     5.686     5.316 -0.3935  0.5653  0.7250
 
              Baa    -0.0777   -10.425    -3.720    -3.477 -0.3377  0.3314  0.8810
    30 C(13)  Bbb     0.0315     4.233     1.511     1.412  0.2856  0.9279 -0.2396
              Bcc     0.0461     6.192     2.209     2.065  0.8969 -0.1707  0.4080
 
              Baa    -0.0072    -0.962    -0.343    -0.321  0.1317  0.3869  0.9127
    31 C(13)  Bbb     0.0006     0.082     0.029     0.027  0.8414  0.4432 -0.3093
              Bcc     0.0066     0.880     0.314     0.294 -0.5242  0.8086 -0.2671
 
              Baa    -0.0024    -0.329    -0.117    -0.110  0.8568  0.1169 -0.5022
    32 C(13)  Bbb    -0.0012    -0.155    -0.055    -0.052  0.3612  0.5589  0.7464
              Bcc     0.0036     0.484     0.173     0.161 -0.3680  0.8209 -0.4366
 
              Baa    -0.0029    -0.388    -0.139    -0.130  0.9504  0.3071 -0.0484
    33 C(13)  Bbb    -0.0021    -0.279    -0.099    -0.093 -0.1311  0.5371  0.8332
              Bcc     0.0050     0.667     0.238     0.223 -0.2819  0.7856 -0.5508
 
              Baa    -0.0059    -0.797    -0.284    -0.266  0.5148  0.4981  0.6977
    34 C(13)  Bbb    -0.0039    -0.530    -0.189    -0.177  0.8476 -0.1740 -0.5012
              Bcc     0.0099     1.326     0.473     0.442 -0.1283  0.8495 -0.5118
 
              Baa    -0.0136    -1.832    -0.654    -0.611  0.9862 -0.1337  0.0974
    35 C(13)  Bbb    -0.0131    -1.756    -0.626    -0.586  0.0949  0.9397  0.3287
              Bcc     0.0267     3.587     1.280     1.197 -0.1355 -0.3149  0.9394
 
              Baa    -0.0013    -0.170    -0.061    -0.057  0.3527  0.7815 -0.5147
    36 C(13)  Bbb    -0.0001    -0.014    -0.005    -0.005  0.8696 -0.0707  0.4886
              Bcc     0.0014     0.184     0.066     0.061 -0.3454  0.6199  0.7045
 
              Baa    -0.0130    -1.740    -0.621    -0.580 -0.4896 -0.3141  0.8134
    37 C(13)  Bbb     0.0058     0.774     0.276     0.258  0.7585 -0.6136  0.2196
              Bcc     0.0072     0.966     0.345     0.322  0.4301  0.7245  0.5387
 
              Baa    -0.0171    -2.291    -0.817    -0.764 -0.1819  0.2593  0.9485
    38 C(13)  Bbb     0.0076     1.019     0.364     0.340  0.3790  0.9086 -0.1756
              Bcc     0.0095     1.272     0.454     0.424  0.9073 -0.3276  0.2636
 
              Baa    -0.0097    -1.305    -0.466    -0.435 -0.4830  0.7719 -0.4134
    39 C(13)  Bbb    -0.0094    -1.263    -0.451    -0.421  0.6857  0.6270  0.3697
              Bcc     0.0191     2.568     0.916     0.856 -0.5446  0.1049  0.8321
 
              Baa    -0.0145    -1.949    -0.696    -0.650 -0.1892  0.8054  0.5617
    40 C(13)  Bbb     0.0063     0.849     0.303     0.283  0.9620  0.0374  0.2704
              Bcc     0.0082     1.100     0.393     0.367 -0.1967 -0.5916  0.7819
 
              Baa    -0.0256    -3.431    -1.224    -1.144  0.9682  0.1377  0.2091
    41 C(13)  Bbb    -0.0239    -3.212    -1.146    -1.071 -0.1744 -0.2283  0.9579
              Bcc     0.0495     6.642     2.370     2.216 -0.1796  0.9638  0.1970
 
              Baa    -0.0133    -1.786    -0.637    -0.596  0.8367  0.5443  0.0614
    42 C(13)  Bbb    -0.0126    -1.689    -0.603    -0.563  0.3619 -0.6335  0.6839
              Bcc     0.0259     3.475     1.240     1.159 -0.4111  0.5500  0.7270
 
              Baa    -0.0237    -3.184    -1.136    -1.062 -0.4121  0.9026 -0.1242
    43 C(13)  Bbb     0.0097     1.307     0.466     0.436  0.8970  0.3780 -0.2289
              Bcc     0.0140     1.877     0.670     0.626  0.1597  0.2057  0.9655
 
              Baa    -0.0467    -6.268    -2.237    -2.091  0.0108 -0.6859  0.7276
    44 C(13)  Bbb     0.0182     2.441     0.871     0.814  0.8317  0.4102  0.3743
              Bcc     0.0285     3.827     1.366     1.277 -0.5552  0.6011  0.5748
 
              Baa    -0.1129   -15.150    -5.406    -5.053  0.7840  0.5276  0.3271
    45 C(13)  Bbb    -0.1073   -14.404    -5.140    -4.805 -0.6116  0.7468  0.2613
              Bcc     0.2202    29.554    10.546     9.858 -0.1064 -0.4049  0.9082
 
              Baa    -0.0522    -7.008    -2.501    -2.338  0.9112  0.4116 -0.0159
    46 C(13)  Bbb    -0.0493    -6.613    -2.360    -2.206 -0.1944  0.4639  0.8643
              Bcc     0.1015    13.621     4.860     4.544 -0.3632  0.7845 -0.5027
 
              Baa    -0.2735   -36.696   -13.094   -12.240  0.9260 -0.2639  0.2700
    47 C(13)  Bbb    -0.2665   -35.760   -12.760   -11.928  0.3218  0.9257 -0.1987
              Bcc     0.5399    72.456    25.854    24.169 -0.1975  0.2708  0.9421
 
              Baa    -0.0954   -12.806    -4.569    -4.272  0.0259 -0.0540  0.9982
    48 C(13)  Bbb     0.0361     4.849     1.730     1.617  0.9883  0.1515 -0.0175
              Bcc     0.0593     7.957     2.839     2.654 -0.1503  0.9870  0.0573
 
              Baa    -0.1115   -14.957    -5.337    -4.989 -0.4761  0.6875 -0.5484
    49 C(13)  Bbb    -0.1064   -14.274    -5.093    -4.761  0.8460  0.1878 -0.4989
              Bcc     0.2178    29.230    10.430     9.750  0.2400  0.7015  0.6711
 
              Baa    -0.0947   -12.709    -4.535    -4.239  0.1649  0.4018  0.9008
    50 C(13)  Bbb     0.0351     4.704     1.679     1.569  0.7242 -0.6693  0.1660
              Bcc     0.0597     8.005     2.856     2.670  0.6696  0.6249 -0.4013
 
              Baa    -0.0193    -2.593    -0.925    -0.865  0.8810 -0.3376  0.3314
    51 C(13)  Bbb    -0.0173    -2.316    -0.826    -0.773 -0.3039  0.1329  0.9434
              Bcc     0.0366     4.909     1.752     1.638  0.3626  0.9318 -0.0145
 
              Baa    -0.0161    -2.163    -0.772    -0.722  0.4654  0.8128 -0.3504
    52 C(13)  Bbb     0.0066     0.891     0.318     0.297  0.7598 -0.1638  0.6292
              Bcc     0.0095     1.272     0.454     0.424 -0.4540  0.5591  0.6938
 
              Baa    -0.0285    -3.829    -1.366    -1.277  0.7157 -0.6208  0.3199
    53 C(13)  Bbb    -0.0270    -3.617    -1.291    -1.207  0.1643  0.5949  0.7868
              Bcc     0.0555     7.447     2.657     2.484  0.6788  0.5106 -0.5278
 
              Baa    -0.0468    -6.275    -2.239    -2.093  0.4892  0.7678  0.4137
    54 C(13)  Bbb     0.0182     2.446     0.873     0.816 -0.4955  0.6350 -0.5927
              Bcc     0.0285     3.828     1.366     1.277  0.7178 -0.0850 -0.6911
 
              Baa    -0.0244    -3.275    -1.169    -1.092  0.8515  0.4916 -0.1824
    55 C(13)  Bbb     0.0101     1.359     0.485     0.453 -0.4978  0.8672  0.0131
              Bcc     0.0143     1.916     0.684     0.639  0.1647  0.0796  0.9831
 
              Baa    -0.0515    -6.905    -2.464    -2.303 -0.5199  0.8277 -0.2112
    56 C(13)  Bbb    -0.0485    -6.509    -2.323    -2.171 -0.2850  0.0650  0.9563
              Bcc     0.1000    13.414     4.786     4.474  0.8053  0.5573  0.2021
 
              Baa    -0.0114    -1.526    -0.544    -0.509  0.8437 -0.0947 -0.5285
    57 C(13)  Bbb     0.0055     0.733     0.262     0.244  0.0291  0.9909 -0.1313
              Bcc     0.0059     0.793     0.283     0.264  0.5361  0.0954  0.8387
 
              Baa    -0.0126    -1.687    -0.602    -0.563  0.6851 -0.5950 -0.4202
    58 C(13)  Bbb     0.0059     0.791     0.282     0.264  0.5170  0.8036 -0.2948
              Bcc     0.0067     0.896     0.320     0.299  0.5131 -0.0153  0.8582
 
              Baa    -0.0070    -0.936    -0.334    -0.312  0.6618  0.7461  0.0734
    59 C(13)  Bbb    -0.0066    -0.890    -0.318    -0.297  0.0727 -0.1613  0.9842
              Bcc     0.0136     1.826     0.652     0.609  0.7461 -0.6460 -0.1610
 
              Baa    -0.0049    -0.660    -0.235    -0.220 -0.1007  0.9407 -0.3240
    60 C(13)  Bbb    -0.0048    -0.638    -0.228    -0.213  0.3138  0.3391  0.8869
              Bcc     0.0097     1.298     0.463     0.433  0.9441 -0.0124 -0.3293
 
              Baa    -0.0246    -3.295    -1.176    -1.099  0.4664 -0.5305  0.7078
    61 C(13)  Bbb     0.0111     1.494     0.533     0.498  0.7294 -0.2220 -0.6470
              Bcc     0.0134     1.801     0.643     0.601  0.5004  0.8181  0.2834
 
              Baa    -0.0267    -3.578    -1.277    -1.194  0.8327  0.1555 -0.5315
    62 C(13)  Bbb    -0.0246    -3.304    -1.179    -1.102  0.0318  0.9448  0.3261
              Bcc     0.0513     6.882     2.456     2.296  0.5528 -0.2885  0.7818
 
              Baa    -0.0283    -3.795    -1.354    -1.266 -0.5010  0.8256  0.2597
    63 C(13)  Bbb    -0.0264    -3.549    -1.266    -1.184 -0.5085 -0.5236  0.6835
              Bcc     0.0547     7.344     2.620     2.450  0.7003  0.2104  0.6821
 
              Baa    -0.0277    -3.717    -1.326    -1.240  0.7804  0.3643  0.5082
    64 C(13)  Bbb     0.0127     1.703     0.608     0.568  0.6119 -0.6119 -0.5012
              Bcc     0.0150     2.014     0.719     0.672  0.1284  0.7021 -0.7004
 
              Baa    -0.0060    -0.807    -0.288    -0.269  0.7536 -0.4868  0.4418
    65 C(13)  Bbb     0.0029     0.384     0.137     0.128 -0.5719 -0.1541  0.8057
              Bcc     0.0032     0.423     0.151     0.141  0.3242  0.8598  0.3945
 
              Baa    -0.0051    -0.680    -0.243    -0.227  0.9364  0.1254  0.3277
    66 C(13)  Bbb     0.0024     0.327     0.117     0.109 -0.2916  0.7976  0.5281
              Bcc     0.0026     0.353     0.126     0.118 -0.1951 -0.5901  0.7834
 
              Baa    -0.0086    -0.448    -0.160    -0.149  0.7952 -0.4579  0.3975
    67 Cl(35) Bbb    -0.0017    -0.087    -0.031    -0.029 -0.4413  0.0126  0.8973
              Bcc     0.0102     0.535     0.191     0.178  0.4159  0.8889  0.1920
 
              Baa    -0.0019    -0.100    -0.036    -0.033  0.8058 -0.5740 -0.1455
    68 Cl(35) Bbb    -0.0007    -0.037    -0.013    -0.012  0.0371 -0.1962  0.9799
              Bcc     0.0026     0.137     0.049     0.046  0.5910  0.7950  0.1368
 
              Baa    -0.0483    -2.530    -0.903    -0.844 -0.0019  0.5160  0.8566
    69 Cl(35) Bbb    -0.0409    -2.143    -0.765    -0.715  0.4016  0.7848 -0.4720
              Bcc     0.0893     4.672     1.667     1.559  0.9158 -0.3431  0.2087
 
              Baa    -0.0288    -1.510    -0.539    -0.504 -0.3923  0.8804 -0.2666
    70 Cl(35) Bbb     0.0133     0.696     0.248     0.232  0.8664  0.4510  0.2143
              Bcc     0.0155     0.814     0.290     0.271 -0.3089  0.1469  0.9397
 
              Baa    -0.1077    -5.634    -2.010    -1.879  0.0617 -0.4339  0.8988
    71 Cl(35) Bbb    -0.0924    -4.835    -1.725    -1.613  0.9613  0.2681  0.0634
              Bcc     0.2000    10.469     3.736     3.492 -0.2685  0.8601  0.4337
 
              Baa    -0.0289    -1.515    -0.541    -0.505  0.6585  0.7008 -0.2742
    72 Cl(35) Bbb     0.0104     0.545     0.194     0.182  0.7197 -0.6930 -0.0428
              Bcc     0.0185     0.970     0.346     0.324  0.2200  0.1692  0.9607
 
              Baa    -0.1372    -7.180    -2.562    -2.395  0.4739  0.5411  0.6947
    73 Cl(35) Bbb    -0.1180    -6.173    -2.203    -2.059 -0.6150  0.7680 -0.1787
              Bcc     0.2551    13.353     4.765     4.454 -0.6302 -0.3426  0.6968
 

 ---------------------------------------------------------------------------------

 No NMR shielding tensors so no spin-rotation constants.
 Leave Link  601 at Sat Jul 16 04:44:54 2022, MaxMem=  1342177280 cpu:             110.5 elap:               2.6
 (Enter /home/mkliu/g16/l9999.exe)
 1\1\GINC-NODE05\FOpt\UB3LYP\6-311G(d,p)\C66Cl7(2)\MKLIU\16-Jul-2022\0\
 \#P opt b3lyp/6-311G(d, p) empiricaldispersion=GD3\\force\\0,2\C,-1.32
 23078145,1.8520198067,-3.8899162119\C,0.19142713,2.2738680048,-4.11655
 93626\C,0.9488782665,0.8599274858,-4.3067029529\C,-1.3457913336,0.3518
 737938,-3.970319889\C,-0.112007277,-0.201969495,-4.22621146\C,-2.21203
 56152,-0.1836642486,-3.0048546548\C,-1.9202131894,2.0626308123,-2.5255
 244453\C,-2.647616243,0.9198682454,-2.1550153635\C,-1.4183369327,2.940
 8402299,-1.5520805141\C,0.8806237959,2.9333704286,-2.8063900931\C,-0.0
 125331188,3.2990029575,-1.6068032554\C,1.7823421222,0.699512217,-3.064
 3579274\C,1.8220909897,1.8494549188,-2.3008910176\C,2.1696150199,-0.54
 37967353,-2.5313643951\C,0.1768481255,-1.4460282552,-3.6790635137\C,1.
 5773528931,-1.8073780428,-3.1822332685\C,-1.983773462,-1.449761925,-2.
 4408825049\C,-0.7879182259,-2.1063517852,-2.8928002428\C,-2.4999551385
 ,-1.7444347711,-1.0982078685\C,-3.0894957454,0.694309235,-0.8318748727
 \C,-3.1073978739,-0.669411464,-0.3035125841\C,-2.0712026707,2.87572611
 64,-0.2932074945\C,-2.9544986294,1.7954592079,0.0438637309\C,-1.411099
 7959,3.2863006405,0.9102948864\C,0.6457984183,3.5131716544,-0.41295898
 92\C,-0.0493202185,3.5522355155,0.8421148047\C,2.3852980384,1.84622700
 62,-1.0265808358\C,2.0864823735,3.0426363514,-0.1397840533\C,2.7900869
 321,-0.576572743,-1.2770486504\C,2.9341388379,0.6372033823,-0.51420101
 15\C,3.1055276275,-1.9328422274,-0.6300105026\C,1.2809598849,-2.832445
 5708,-2.11305954\C,-0.1268850347,-3.0641288486,-2.0443746218\C,2.03266
 99722,-2.952366348,-0.9830003592\C,-1.9536834687,-2.8492523954,-0.4133
 148186\C,-0.7274934679,-3.4880836268,-0.8775059334\C,-1.9434659171,-2.
 9238321862,1.020401359\C,-3.1608416056,-0.8126331075,1.1035776441\C,-2
 .5541883688,-1.9295949447,1.7693967593\C,-2.9085887547,1.6070797466,1.
 472424111\C,-1.9473472019,2.533441162,2.0246203119\C,-3.034990147,0.33
 32217255,1.9922781087\C,-1.1247041144,2.1305499214,3.072741661\C,0.814
 9037296,3.0931664466,1.9080028101\C,2.033390647,2.6645751754,1.3171874
 609\C,0.2907759368,2.4269774487,3.022616907\C,3.2310726614,0.556686501
 1,0.9017052886\C,2.6895149889,1.5534494198,1.7980975568\C,3.0019875927
 ,-1.8897560319,0.8816276526\C,3.1650598082,-0.7140988475,1.5815306876\
 C,1.4494690089,-3.4820737602,0.2109127141\C,0.0843814329,-3.793974878,
 0.2630083626\C,-0.6771687553,-3.4868600832,1.4524289092\C,2.0847267054
 ,-2.8736489345,1.3566464269\C,-0.0472629893,-2.9780705761,2.5837381311
 \C,1.3686135747,-2.6745986909,2.5448545356\C,-1.9468268744,-1.46681531
 2,3.004363031\C,-2.2456155418,-0.0616940988,3.14087062\C,-1.2858961239
 ,0.8142984425,3.6576046194\C,-0.7004277233,-1.960530586,3.3878223573\C
 ,1.0057543795,1.3032175551,3.5793713042\C,2.1941198765,0.8845130108,2.
 9849251077\C,2.4896331943,-0.5217941804,2.8510226704\C,1.5892746601,-1
 .476851113,3.3161412222\C,0.0296123258,0.3103695465,4.0014315093\C,0.3
 149696839,-1.0463382007,3.8710276973\Cl,-2.5404441185,2.5833031129,-5.
 0611552903\Cl,0.3484548801,3.3009168587,-5.5635434517\Cl,2.0016047434,
 0.7126273994,-5.7795858215\Cl,2.6883757401,-2.504959054,-4.464118232\C
 l,4.802875323,-2.4627593536,-1.1591917623\Cl,1.8332465717,4.4378906618
 ,-3.238453597\Cl,3.4007085273,4.3507167724,-0.2986560078\\Version=ES64
 L-G16RevA.03\State=2-A\HF=-5736.9849122\S2=0.781847\S2-1=0.\S2A=0.7509
 7\RMSD=8.464e-09\RMSF=1.460e-05\Dipole=-1.2970216,-0.7260719,1.6587023
 \Quadrupole=-0.2678676,0.1808778,0.0869898,1.5962112,1.7416546,1.66487
 23\PG=C01 [X(C66Cl7)]\\@


 THOSE WHO ARE UNABLE TO LEARN FROM PAST MEETINGS
 ARE CONDEMNED TO REPEAT THEM.
 Job cpu time:       5 days 10 hours  6 minutes 46.8 seconds.
 Elapsed time:       0 days  2 hours 42 minutes 54.4 seconds.
 File lengths (MBytes):  RWF=   2038 Int=      0 D2E=      0 Chk=    184 Scr=      1
 Normal termination of Gaussian 16 at Sat Jul 16 04:44:55 2022.
