 Entering Gaussian System, Link 0=g16
 Input=dn2vp3gna34lc_addon_8.gjf
 Output=dn2vp3gna34lc_addon_8.log
 Initial command:
 /home/mkliu/g16/l1.exe "/data/scratch/Gau-192233.inp" -scrdir="/data/scratch/"
 Entering Link 1 = /home/mkliu/g16/l1.exe PID=    192234.
  
 Copyright (c) 1988,1990,1992,1993,1995,1998,2003,2009,2016,
            Gaussian, Inc.  All Rights Reserved.
  
 This is part of the Gaussian(R) 16 program.  It is based on
 the Gaussian(R) 09 system (copyright 2009, Gaussian, Inc.),
 the Gaussian(R) 03 system (copyright 2003, Gaussian, Inc.),
 the Gaussian(R) 98 system (copyright 1998, Gaussian, Inc.),
 the Gaussian(R) 94 system (copyright 1995, Gaussian, Inc.),
 the Gaussian 92(TM) system (copyright 1992, Gaussian, Inc.),
 the Gaussian 90(TM) system (copyright 1990, Gaussian, Inc.),
 the Gaussian 88(TM) system (copyright 1988, Gaussian, Inc.),
 the Gaussian 86(TM) system (copyright 1986, Carnegie Mellon
 University), and the Gaussian 82(TM) system (copyright 1983,
 Carnegie Mellon University). Gaussian is a federally registered
 trademark of Gaussian, Inc.
  
 This software contains proprietary and confidential information,
 including trade secrets, belonging to Gaussian, Inc.
  
 This software is provided under written license and may be
 used, copied, transmitted, or stored only in accord with that
 written license.
  
 The following legend is applicable only to US Government
 contracts under FAR:
  
                    RESTRICTED RIGHTS LEGEND
  
 Use, reproduction and disclosure by the US Government is
 subject to restrictions as set forth in subparagraphs (a)
 and (c) of the Commercial Computer Software - Restricted
 Rights clause in FAR 52.227-19.
  
 Gaussian, Inc.
 340 Quinnipiac St., Bldg. 40, Wallingford CT 06492
  
  
 ---------------------------------------------------------------
 Warning -- This program may not be used in any manner that
 competes with the business of Gaussian, Inc. or will provide
 assistance to any competitor of Gaussian, Inc.  The licensee
 of this program is prohibited from giving any competitor of
 Gaussian, Inc. access to this program.  By using this program,
 the user acknowledges that Gaussian, Inc. is engaged in the
 business of creating and licensing software in the field of
 computational chemistry and represents and warrants to the
 licensee that it is not a competitor of Gaussian, Inc. and that
 it will not use this program in any manner prohibited above.
 ---------------------------------------------------------------
  

 Cite this work as:
 Gaussian 16, Revision A.03,
 M. J. Frisch, G. W. Trucks, H. B. Schlegel, G. E. Scuseria, 
 M. A. Robb, J. R. Cheeseman, G. Scalmani, V. Barone, 
 G. A. Petersson, H. Nakatsuji, X. Li, M. Caricato, A. V. Marenich, 
 J. Bloino, B. G. Janesko, R. Gomperts, B. Mennucci, H. P. Hratchian, 
 J. V. Ortiz, A. F. Izmaylov, J. L. Sonnenberg, D. Williams-Young, 
 F. Ding, F. Lipparini, F. Egidi, J. Goings, B. Peng, A. Petrone, 
 T. Henderson, D. Ranasinghe, V. G. Zakrzewski, J. Gao, N. Rega, 
 G. Zheng, W. Liang, M. Hada, M. Ehara, K. Toyota, R. Fukuda, 
 J. Hasegawa, M. Ishida, T. Nakajima, Y. Honda, O. Kitao, H. Nakai, 
 T. Vreven, K. Throssell, J. A. Montgomery, Jr., J. E. Peralta, 
 F. Ogliaro, M. J. Bearpark, J. J. Heyd, E. N. Brothers, K. N. Kudin, 
 V. N. Staroverov, T. A. Keith, R. Kobayashi, J. Normand, 
 K. Raghavachari, A. P. Rendell, J. C. Burant, S. S. Iyengar, 
 J. Tomasi, M. Cossi, J. M. Millam, M. Klene, C. Adamo, R. Cammi, 
 J. W. Ochterski, R. L. Martin, K. Morokuma, O. Farkas, 
 J. B. Foresman, and D. J. Fox, Gaussian, Inc., Wallingford CT, 2016.
 
 ******************************************
 Gaussian 16:  ES64L-G16RevA.03 25-Dec-2016
                14-Jul-2022 
 ******************************************
 %mem=10GB
 %chk=dn2vp3gna34lc_addon_8.chk
 %nprocshared=48
 Will use up to   48 processors via shared memory.
 -------------------------------------------------
 #P opt b3lyp/6-311G(d, p) empiricaldispersion=GD3
 -------------------------------------------------
 1/18=20,19=15,26=3,38=1/1,3;
 2/9=110,12=2,17=6,18=5,40=1/2;
 3/5=4,6=6,7=101,11=2,25=1,30=1,71=1,74=-5,124=31/1,2,3;
 4//1;
 5/5=2,38=5/2;
 6/7=2,8=2,9=2,10=2,28=1/1;
 7//1,2,3,16;
 1/18=20,19=15,26=3/3(2);
 2/9=110/2;
 99//99;
 2/9=110/2;
 3/5=4,6=6,7=101,11=2,25=1,30=1,71=1,74=-5,124=31/1,2,3;
 4/5=5,16=3,69=1/1;
 5/5=2,38=5/2;
 7//1,2,3,16;
 1/18=20,19=15,26=3/3(-5);
 2/9=110/2;
 6/7=2,8=2,9=2,10=2,19=2,28=1/1;
 99/9=1/99;
 Leave Link    1 at Thu Jul 14 20:08:46 2022, MaxMem=  1342177280 cpu:               2.2 elap:               0.1
 (Enter /home/mkliu/g16/l101.exe)
 -----
 force
 -----
 Symbolic Z-matrix:
 Charge =  0 Multiplicity = 1
 C                    -1.30931   1.86262  -3.87225 
 C                     0.19365   2.25523  -4.07736 
 C                     0.93736   0.88701  -4.27382 
 C                    -1.3135    0.36466  -3.90122 
 C                    -0.08891  -0.1836   -4.15708 
 C                    -2.1718   -0.16195  -2.94424 
 C                    -1.93844   2.08197  -2.53639 
 C                    -2.62545   0.92994  -2.12693 
 C                    -1.38432   2.90267  -1.54523 
 C                     0.84604   2.8993   -2.80554 
 C                     0.00586   3.25052  -1.59807 
 C                     1.73749   0.68794  -3.01717 
 C                     1.77714   1.83744  -2.26085 
 C                     2.12033  -0.54106  -2.49378 
 C                     0.19346  -1.41882  -3.60273 
 C                     1.58468  -1.80871  -3.15421 
 C                    -1.94846  -1.42817  -2.37929 
 C                    -0.76939  -2.07821  -2.82499 
 C                    -2.49916  -1.73523  -1.07489 
 C                    -3.08823   0.68484  -0.81218 
 C                    -3.10925  -0.67083  -0.29703 
 C                    -2.0219    2.81701  -0.29782 
 C                    -2.91974   1.76876   0.051 
 C                    -1.38629   3.23269   0.8983 
 C                     0.67005   3.44053  -0.41086 
 C                    -0.03788   3.49724   0.83639 
 C                     2.33433   1.81332  -0.99929 
 C                     2.1001    3.02849  -0.13034 
 C                     2.75139  -0.56629  -1.24533 
 C                     2.87071   0.62138  -0.50429 
 C                     3.10734  -1.91555  -0.62768 
 C                     1.28603  -2.82027  -2.09213 
 C                    -0.12121  -3.04137  -2.0053 
 C                     2.03011  -2.91392  -0.96198 
 C                    -1.95608  -2.83402  -0.39505 
 C                    -0.73386  -3.44755  -0.84941 
 C                    -1.96358  -2.91819   1.03389 
 C                    -3.16838  -0.81477   1.09832 
 C                    -2.57671  -1.93412   1.7728 
 C                    -2.90429   1.58159   1.46346 
 C                    -1.9458    2.50321   2.00337 
 C                    -3.05169   0.31345   1.98509 
 C                    -1.1354    2.09333   3.03651 
 C                     0.8097    3.05564   1.89565 
 C                     2.04693   2.64963   1.31628 
 C                     0.27211   2.38287   2.97638 
 C                     3.44866   0.60085   0.90312 
 C                     2.69128   1.55268   1.78904 
 C                     2.99888  -1.86381   0.87005 
 C                     3.1731   -0.71535   1.56992 
 C                     1.43443  -3.44892   0.2203 
 C                     0.08259  -3.75263   0.27665 
 C                    -0.6949   -3.46357   1.44389 
 C                     2.06089  -2.8379    1.34389 
 C                    -0.07338  -2.94763   2.56252 
 C                     1.32807  -2.63225   2.49813 
 C                    -1.9804   -1.47497   2.99748 
 C                    -2.27461  -0.0754    3.12614 
 C                    -1.31677   0.79227   3.62126 
 C                    -0.73602  -1.95307   3.35949 
 C                     0.9707    1.26764   3.51518 
 C                     2.15856   0.86938   2.92641 
 C                     2.45069  -0.51858   2.79115 
 C                     1.53967  -1.44732   3.25268 
 C                    -0.00502   0.30088   3.94303 
 C                     0.27968  -1.04358   3.81342 
 Cl                   -2.40125   2.58711  -5.1002 
 Cl                    0.3794    3.27976  -5.52182 
 Cl                    1.95839   0.7475   -5.71651 
 Cl                    2.70662  -2.3989   -4.41807 
 Cl                    4.75144  -2.37116  -1.2156 
 Cl                    5.20494   0.99792   0.75738 
 Cl                    3.38266   4.25425  -0.42325 
 Cl                    1.79857   4.36661  -3.23616 
 
 ITRead=  0  0  0  0  0  0  0  0  0  0  0  0  0  0  0  0  0  0  0  0
 ITRead=  0  0  0  0  0  0  0  0  0  0  0  0  0  0  0  0  0  0  0  0
 ITRead=  0  0  0  0  0  0  0  0  0  0  0  0  0  0  0  0  0  0  0  0
 ITRead=  0  0  0  0  0  0  0  0  0  0  0  0  0  0
 MicOpt= -1 -1 -1 -1 -1 -1 -1 -1 -1 -1 -1 -1 -1 -1 -1 -1 -1 -1 -1 -1
 MicOpt= -1 -1 -1 -1 -1 -1 -1 -1 -1 -1 -1 -1 -1 -1 -1 -1 -1 -1 -1 -1
 MicOpt= -1 -1 -1 -1 -1 -1 -1 -1 -1 -1 -1 -1 -1 -1 -1 -1 -1 -1 -1 -1
 MicOpt= -1 -1 -1 -1 -1 -1 -1 -1 -1 -1 -1 -1 -1 -1
 NAtoms=     74 NQM=       74 NQMF=       0 NMMI=      0 NMMIF=      0
                NMic=       0 NMicF=      0.
                    Isotopes and Nuclear Properties:
 (Nuclear quadrupole moments (NQMom) in fm**2, nuclear magnetic moments (NMagM)
  in nuclear magnetons)

  Atom         1           2           3           4           5           6           7           8           9          10
 IAtWgt=          12          12          12          12          12          12          12          12          12          12
 AtmWgt=  12.0000000  12.0000000  12.0000000  12.0000000  12.0000000  12.0000000  12.0000000  12.0000000  12.0000000  12.0000000
 NucSpn=           0           0           0           0           0           0           0           0           0           0
 AtZEff=  -0.0000000  -0.0000000  -0.0000000  -0.0000000  -0.0000000  -0.0000000  -0.0000000  -0.0000000  -0.0000000  -0.0000000
 NQMom=    0.0000000   0.0000000   0.0000000   0.0000000   0.0000000   0.0000000   0.0000000   0.0000000   0.0000000   0.0000000
 NMagM=    0.0000000   0.0000000   0.0000000   0.0000000   0.0000000   0.0000000   0.0000000   0.0000000   0.0000000   0.0000000
 AtZNuc=   6.0000000   6.0000000   6.0000000   6.0000000   6.0000000   6.0000000   6.0000000   6.0000000   6.0000000   6.0000000

  Atom        11          12          13          14          15          16          17          18          19          20
 IAtWgt=          12          12          12          12          12          12          12          12          12          12
 AtmWgt=  12.0000000  12.0000000  12.0000000  12.0000000  12.0000000  12.0000000  12.0000000  12.0000000  12.0000000  12.0000000
 NucSpn=           0           0           0           0           0           0           0           0           0           0
 AtZEff=  -0.0000000  -0.0000000  -0.0000000  -0.0000000  -0.0000000  -0.0000000  -0.0000000  -0.0000000  -0.0000000  -0.0000000
 NQMom=    0.0000000   0.0000000   0.0000000   0.0000000   0.0000000   0.0000000   0.0000000   0.0000000   0.0000000   0.0000000
 NMagM=    0.0000000   0.0000000   0.0000000   0.0000000   0.0000000   0.0000000   0.0000000   0.0000000   0.0000000   0.0000000
 AtZNuc=   6.0000000   6.0000000   6.0000000   6.0000000   6.0000000   6.0000000   6.0000000   6.0000000   6.0000000   6.0000000

  Atom        21          22          23          24          25          26          27          28          29          30
 IAtWgt=          12          12          12          12          12          12          12          12          12          12
 AtmWgt=  12.0000000  12.0000000  12.0000000  12.0000000  12.0000000  12.0000000  12.0000000  12.0000000  12.0000000  12.0000000
 NucSpn=           0           0           0           0           0           0           0           0           0           0
 AtZEff=  -0.0000000  -0.0000000  -0.0000000  -0.0000000  -0.0000000  -0.0000000  -0.0000000  -0.0000000  -0.0000000  -0.0000000
 NQMom=    0.0000000   0.0000000   0.0000000   0.0000000   0.0000000   0.0000000   0.0000000   0.0000000   0.0000000   0.0000000
 NMagM=    0.0000000   0.0000000   0.0000000   0.0000000   0.0000000   0.0000000   0.0000000   0.0000000   0.0000000   0.0000000
 AtZNuc=   6.0000000   6.0000000   6.0000000   6.0000000   6.0000000   6.0000000   6.0000000   6.0000000   6.0000000   6.0000000

  Atom        31          32          33          34          35          36          37          38          39          40
 IAtWgt=          12          12          12          12          12          12          12          12          12          12
 AtmWgt=  12.0000000  12.0000000  12.0000000  12.0000000  12.0000000  12.0000000  12.0000000  12.0000000  12.0000000  12.0000000
 NucSpn=           0           0           0           0           0           0           0           0           0           0
 AtZEff=  -0.0000000  -0.0000000  -0.0000000  -0.0000000  -0.0000000  -0.0000000  -0.0000000  -0.0000000  -0.0000000  -0.0000000
 NQMom=    0.0000000   0.0000000   0.0000000   0.0000000   0.0000000   0.0000000   0.0000000   0.0000000   0.0000000   0.0000000
 NMagM=    0.0000000   0.0000000   0.0000000   0.0000000   0.0000000   0.0000000   0.0000000   0.0000000   0.0000000   0.0000000
 AtZNuc=   6.0000000   6.0000000   6.0000000   6.0000000   6.0000000   6.0000000   6.0000000   6.0000000   6.0000000   6.0000000

  Atom        41          42          43          44          45          46          47          48          49          50
 IAtWgt=          12          12          12          12          12          12          12          12          12          12
 AtmWgt=  12.0000000  12.0000000  12.0000000  12.0000000  12.0000000  12.0000000  12.0000000  12.0000000  12.0000000  12.0000000
 NucSpn=           0           0           0           0           0           0           0           0           0           0
 AtZEff=  -0.0000000  -0.0000000  -0.0000000  -0.0000000  -0.0000000  -0.0000000  -0.0000000  -0.0000000  -0.0000000  -0.0000000
 NQMom=    0.0000000   0.0000000   0.0000000   0.0000000   0.0000000   0.0000000   0.0000000   0.0000000   0.0000000   0.0000000
 NMagM=    0.0000000   0.0000000   0.0000000   0.0000000   0.0000000   0.0000000   0.0000000   0.0000000   0.0000000   0.0000000
 AtZNuc=   6.0000000   6.0000000   6.0000000   6.0000000   6.0000000   6.0000000   6.0000000   6.0000000   6.0000000   6.0000000

  Atom        51          52          53          54          55          56          57          58          59          60
 IAtWgt=          12          12          12          12          12          12          12          12          12          12
 AtmWgt=  12.0000000  12.0000000  12.0000000  12.0000000  12.0000000  12.0000000  12.0000000  12.0000000  12.0000000  12.0000000
 NucSpn=           0           0           0           0           0           0           0           0           0           0
 AtZEff=  -0.0000000  -0.0000000  -0.0000000  -0.0000000  -0.0000000  -0.0000000  -0.0000000  -0.0000000  -0.0000000  -0.0000000
 NQMom=    0.0000000   0.0000000   0.0000000   0.0000000   0.0000000   0.0000000   0.0000000   0.0000000   0.0000000   0.0000000
 NMagM=    0.0000000   0.0000000   0.0000000   0.0000000   0.0000000   0.0000000   0.0000000   0.0000000   0.0000000   0.0000000
 AtZNuc=   6.0000000   6.0000000   6.0000000   6.0000000   6.0000000   6.0000000   6.0000000   6.0000000   6.0000000   6.0000000

  Atom        61          62          63          64          65          66          67          68          69          70
 IAtWgt=          12          12          12          12          12          12          35          35          35          35
 AtmWgt=  12.0000000  12.0000000  12.0000000  12.0000000  12.0000000  12.0000000  34.9688527  34.9688527  34.9688527  34.9688527
 NucSpn=           0           0           0           0           0           0           3           3           3           3
 AtZEff=  -0.0000000  -0.0000000  -0.0000000  -0.0000000  -0.0000000  -0.0000000  -0.0000000  -0.0000000  -0.0000000  -0.0000000
 NQMom=    0.0000000   0.0000000   0.0000000   0.0000000   0.0000000   0.0000000  -8.1650000  -8.1650000  -8.1650000  -8.1650000
 NMagM=    0.0000000   0.0000000   0.0000000   0.0000000   0.0000000   0.0000000   0.8218740   0.8218740   0.8218740   0.8218740
 AtZNuc=   6.0000000   6.0000000   6.0000000   6.0000000   6.0000000   6.0000000  17.0000000  17.0000000  17.0000000  17.0000000

  Atom        71          72          73          74
 IAtWgt=          35          35          35          35
 AtmWgt=  34.9688527  34.9688527  34.9688527  34.9688527
 NucSpn=           3           3           3           3
 AtZEff=  -0.0000000  -0.0000000  -0.0000000  -0.0000000
 NQMom=   -8.1650000  -8.1650000  -8.1650000  -8.1650000
 NMagM=    0.8218740   0.8218740   0.8218740   0.8218740
 AtZNuc=  17.0000000  17.0000000  17.0000000  17.0000000
 Leave Link  101 at Thu Jul 14 20:08:46 2022, MaxMem=  1342177280 cpu:              13.1 elap:               0.3
 (Enter /home/mkliu/g16/l103.exe)

 GradGradGradGradGradGradGradGradGradGradGradGradGradGradGradGradGradGrad
 Berny optimization.
 Initialization pass.
                           ----------------------------
                           !    Initial Parameters    !
                           ! (Angstroms and Degrees)  !
 --------------------------                            --------------------------
 ! Name  Definition              Value          Derivative Info.                !
 --------------------------------------------------------------------------------
 ! R1    R(1,2)                  1.5669         estimate D2E/DX2                !
 ! R2    R(1,4)                  1.4982         estimate D2E/DX2                !
 ! R3    R(1,7)                  1.4928         estimate D2E/DX2                !
 ! R4    R(1,67)                 1.7959         estimate D2E/DX2                !
 ! R5    R(2,3)                  1.5696         estimate D2E/DX2                !
 ! R6    R(2,10)                 1.5678         estimate D2E/DX2                !
 ! R7    R(2,68)                 1.7806         estimate D2E/DX2                !
 ! R8    R(3,5)                  1.4876         estimate D2E/DX2                !
 ! R9    R(3,12)                 1.503          estimate D2E/DX2                !
 ! R10   R(3,69)                 1.7729         estimate D2E/DX2                !
 ! R11   R(4,5)                  1.3659         estimate D2E/DX2                !
 ! R12   R(4,6)                  1.3892         estimate D2E/DX2                !
 ! R13   R(5,15)                 1.3831         estimate D2E/DX2                !
 ! R14   R(6,8)                  1.4374         estimate D2E/DX2                !
 ! R15   R(6,17)                 1.4044         estimate D2E/DX2                !
 ! R16   R(7,8)                  1.4024         estimate D2E/DX2                !
 ! R17   R(7,9)                  1.4011         estimate D2E/DX2                !
 ! R18   R(8,20)                 1.4152         estimate D2E/DX2                !
 ! R19   R(9,11)                 1.434          estimate D2E/DX2                !
 ! R20   R(9,22)                 1.4035         estimate D2E/DX2                !
 ! R21   R(10,11)                1.5124         estimate D2E/DX2                !
 ! R22   R(10,13)                1.5137         estimate D2E/DX2                !
 ! R23   R(10,74)                1.8016         estimate D2E/DX2                !
 ! R24   R(11,25)                1.3736         estimate D2E/DX2                !
 ! R25   R(12,13)                1.3766         estimate D2E/DX2                !
 ! R26   R(12,14)                1.3896         estimate D2E/DX2                !
 ! R27   R(13,27)                1.3793         estimate D2E/DX2                !
 ! R28   R(14,16)                1.5264         estimate D2E/DX2                !
 ! R29   R(14,29)                1.3991         estimate D2E/DX2                !
 ! R30   R(15,16)                1.5128         estimate D2E/DX2                !
 ! R31   R(15,18)                1.4024         estimate D2E/DX2                !
 ! R32   R(16,32)                1.4968         estimate D2E/DX2                !
 ! R33   R(16,70)                1.7901         estimate D2E/DX2                !
 ! R34   R(17,18)                1.4182         estimate D2E/DX2                !
 ! R35   R(17,19)                1.4488         estimate D2E/DX2                !
 ! R36   R(18,33)                1.4212         estimate D2E/DX2                !
 ! R37   R(19,21)                1.4527         estimate D2E/DX2                !
 ! R38   R(19,35)                1.4016         estimate D2E/DX2                !
 ! R39   R(20,21)                1.4504         estimate D2E/DX2                !
 ! R40   R(20,23)                1.3958         estimate D2E/DX2                !
 ! R41   R(21,38)                1.404          estimate D2E/DX2                !
 ! R42   R(22,23)                1.4236         estimate D2E/DX2                !
 ! R43   R(22,24)                1.4169         estimate D2E/DX2                !
 ! R44   R(23,40)                1.4249         estimate D2E/DX2                !
 ! R45   R(24,26)                1.3755         estimate D2E/DX2                !
 ! R46   R(24,41)                1.4375         estimate D2E/DX2                !
 ! R47   R(25,26)                1.4353         estimate D2E/DX2                !
 ! R48   R(25,28)                1.5144         estimate D2E/DX2                !
 ! R49   R(26,44)                1.4267         estimate D2E/DX2                !
 ! R50   R(27,28)                1.5121         estimate D2E/DX2                !
 ! R51   R(27,30)                1.3977         estimate D2E/DX2                !
 ! R52   R(28,45)                1.4963         estimate D2E/DX2                !
 ! R53   R(28,73)                1.7981         estimate D2E/DX2                !
 ! R54   R(29,30)                1.405          estimate D2E/DX2                !
 ! R55   R(29,31)                1.526          estimate D2E/DX2                !
 ! R56   R(30,47)                1.5216         estimate D2E/DX2                !
 ! R57   R(31,34)                1.5063         estimate D2E/DX2                !
 ! R58   R(31,49)                1.5025         estimate D2E/DX2                !
 ! R59   R(31,71)                1.8045         estimate D2E/DX2                !
 ! R60   R(32,33)                1.4272         estimate D2E/DX2                !
 ! R61   R(32,34)                1.3563         estimate D2E/DX2                !
 ! R62   R(33,36)                1.3698         estimate D2E/DX2                !
 ! R63   R(34,51)                1.4279         estimate D2E/DX2                !
 ! R64   R(35,36)                1.4411         estimate D2E/DX2                !
 ! R65   R(35,37)                1.4314         estimate D2E/DX2                !
 ! R66   R(36,52)                1.424          estimate D2E/DX2                !
 ! R67   R(37,39)                1.3749         estimate D2E/DX2                !
 ! R68   R(37,53)                1.4405         estimate D2E/DX2                !
 ! R69   R(38,39)                1.4346         estimate D2E/DX2                !
 ! R70   R(38,42)                1.4397         estimate D2E/DX2                !
 ! R71   R(39,57)                1.4374         estimate D2E/DX2                !
 ! R72   R(40,41)                1.4351         estimate D2E/DX2                !
 ! R73   R(40,42)                1.3791         estimate D2E/DX2                !
 ! R74   R(41,43)                1.3755         estimate D2E/DX2                !
 ! R75   R(42,58)                1.4342         estimate D2E/DX2                !
 ! R76   R(43,46)                1.4382         estimate D2E/DX2                !
 ! R77   R(43,59)                1.4379         estimate D2E/DX2                !
 ! R78   R(44,45)                1.4252         estimate D2E/DX2                !
 ! R79   R(44,46)                1.3819         estimate D2E/DX2                !
 ! R80   R(45,48)                1.3572         estimate D2E/DX2                !
 ! R81   R(46,61)                1.422          estimate D2E/DX2                !
 ! R82   R(47,48)                1.5048         estimate D2E/DX2                !
 ! R83   R(47,50)                1.501          estimate D2E/DX2                !
 ! R84   R(47,72)                1.8065         estimate D2E/DX2                !
 ! R85   R(48,62)                1.4298         estimate D2E/DX2                !
 ! R86   R(49,50)                1.3561         estimate D2E/DX2                !
 ! R87   R(49,54)                1.4329         estimate D2E/DX2                !
 ! R88   R(50,63)                1.4325         estimate D2E/DX2                !
 ! R89   R(51,52)                1.3867         estimate D2E/DX2                !
 ! R90   R(51,54)                1.4242         estimate D2E/DX2                !
 ! R91   R(52,53)                1.432          estimate D2E/DX2                !
 ! R92   R(53,55)                1.3798         estimate D2E/DX2                !
 ! R93   R(54,56)                1.3826         estimate D2E/DX2                !
 ! R94   R(55,56)                1.4379         estimate D2E/DX2                !
 ! R95   R(55,60)                1.4365         estimate D2E/DX2                !
 ! R96   R(56,64)                1.4206         estimate D2E/DX2                !
 ! R97   R(57,58)                1.4359         estimate D2E/DX2                !
 ! R98   R(57,60)                1.3813         estimate D2E/DX2                !
 ! R99   R(58,59)                1.384          estimate D2E/DX2                !
 ! R100  R(59,65)                1.4373         estimate D2E/DX2                !
 ! R101  R(60,66)                1.437          estimate D2E/DX2                !
 ! R102  R(61,62)                1.3843         estimate D2E/DX2                !
 ! R103  R(61,65)                1.4387         estimate D2E/DX2                !
 ! R104  R(62,63)                1.4248         estimate D2E/DX2                !
 ! R105  R(63,64)                1.3804         estimate D2E/DX2                !
 ! R106  R(64,66)                1.437          estimate D2E/DX2                !
 ! R107  R(65,66)                1.3804         estimate D2E/DX2                !
 ! A1    A(2,1,4)              104.5172         estimate D2E/DX2                !
 ! A2    A(2,1,7)              118.9847         estimate D2E/DX2                !
 ! A3    A(2,1,67)             113.1188         estimate D2E/DX2                !
 ! A4    A(4,1,7)               99.383          estimate D2E/DX2                !
 ! A5    A(4,1,67)             112.8565         estimate D2E/DX2                !
 ! A6    A(7,1,67)             107.239          estimate D2E/DX2                !
 ! A7    A(1,2,3)              104.6227         estimate D2E/DX2                !
 ! A8    A(1,2,10)             113.3214         estimate D2E/DX2                !
 ! A9    A(1,2,68)             110.5131         estimate D2E/DX2                !
 ! A10   A(3,2,10)             105.217          estimate D2E/DX2                !
 ! A11   A(3,2,68)             110.5233         estimate D2E/DX2                !
 ! A12   A(10,2,68)            112.2276         estimate D2E/DX2                !
 ! A13   A(2,3,5)              106.8962         estimate D2E/DX2                !
 ! A14   A(2,3,12)             105.2507         estimate D2E/DX2                !
 ! A15   A(2,3,69)             116.3151         estimate D2E/DX2                !
 ! A16   A(5,3,12)             101.9071         estimate D2E/DX2                !
 ! A17   A(5,3,69)             113.8607         estimate D2E/DX2                !
 ! A18   A(12,3,69)            111.306          estimate D2E/DX2                !
 ! A19   A(1,4,5)              113.7299         estimate D2E/DX2                !
 ! A20   A(1,4,6)              111.5564         estimate D2E/DX2                !
 ! A21   A(5,4,6)              122.0607         estimate D2E/DX2                !
 ! A22   A(3,5,4)              110.1409         estimate D2E/DX2                !
 ! A23   A(3,5,15)             122.2324         estimate D2E/DX2                !
 ! A24   A(4,5,15)             117.8039         estimate D2E/DX2                !
 ! A25   A(4,6,8)              107.3821         estimate D2E/DX2                !
 ! A26   A(4,6,17)             121.3754         estimate D2E/DX2                !
 ! A27   A(8,6,17)             120.4213         estimate D2E/DX2                !
 ! A28   A(1,7,8)              110.3056         estimate D2E/DX2                !
 ! A29   A(1,7,9)              123.5356         estimate D2E/DX2                !
 ! A30   A(8,7,9)              117.9286         estimate D2E/DX2                !
 ! A31   A(6,8,7)              107.6609         estimate D2E/DX2                !
 ! A32   A(6,8,20)             119.9931         estimate D2E/DX2                !
 ! A33   A(7,8,20)             125.0089         estimate D2E/DX2                !
 ! A34   A(7,9,11)             119.9621         estimate D2E/DX2                !
 ! A35   A(7,9,22)             114.4148         estimate D2E/DX2                !
 ! A36   A(11,9,22)            119.2049         estimate D2E/DX2                !
 ! A37   A(2,10,11)            120.7911         estimate D2E/DX2                !
 ! A38   A(2,10,13)            105.0515         estimate D2E/DX2                !
 ! A39   A(2,10,74)            111.1432         estimate D2E/DX2                !
 ! A40   A(11,10,13)           102.5527         estimate D2E/DX2                !
 ! A41   A(11,10,74)           107.1828         estimate D2E/DX2                !
 ! A42   A(13,10,74)           109.3982         estimate D2E/DX2                !
 ! A43   A(9,11,10)            120.7737         estimate D2E/DX2                !
 ! A44   A(9,11,25)            118.0652         estimate D2E/DX2                !
 ! A45   A(10,11,25)           116.9725         estimate D2E/DX2                !
 ! A46   A(3,12,13)            111.3524         estimate D2E/DX2                !
 ! A47   A(3,12,14)            125.3612         estimate D2E/DX2                !
 ! A48   A(13,12,14)           121.5787         estimate D2E/DX2                !
 ! A49   A(10,13,12)           111.7385         estimate D2E/DX2                !
 ! A50   A(10,13,27)           126.1483         estimate D2E/DX2                !
 ! A51   A(12,13,27)           119.9695         estimate D2E/DX2                !
 ! A52   A(12,14,16)           118.3492         estimate D2E/DX2                !
 ! A53   A(12,14,29)           118.4447         estimate D2E/DX2                !
 ! A54   A(16,14,29)           121.9632         estimate D2E/DX2                !
 ! A55   A(5,15,16)            122.4633         estimate D2E/DX2                !
 ! A56   A(5,15,18)            120.1351         estimate D2E/DX2                !
 ! A57   A(16,15,18)           110.2296         estimate D2E/DX2                !
 ! A58   A(14,16,15)           103.7071         estimate D2E/DX2                !
 ! A59   A(14,16,32)           108.92           estimate D2E/DX2                !
 ! A60   A(14,16,70)           111.0593         estimate D2E/DX2                !
 ! A61   A(15,16,32)           101.5986         estimate D2E/DX2                !
 ! A62   A(15,16,70)           116.8733         estimate D2E/DX2                !
 ! A63   A(32,16,70)           113.7786         estimate D2E/DX2                !
 ! A64   A(6,17,18)            114.7736         estimate D2E/DX2                !
 ! A65   A(6,17,19)            119.526          estimate D2E/DX2                !
 ! A66   A(18,17,19)           120.1194         estimate D2E/DX2                !
 ! A67   A(15,18,17)           121.9759         estimate D2E/DX2                !
 ! A68   A(15,18,33)           108.9891         estimate D2E/DX2                !
 ! A69   A(17,18,33)           120.567          estimate D2E/DX2                !
 ! A70   A(17,19,21)           119.1073         estimate D2E/DX2                !
 ! A71   A(17,19,35)           117.1025         estimate D2E/DX2                !
 ! A72   A(21,19,35)           118.5171         estimate D2E/DX2                !
 ! A73   A(8,20,21)            119.7742         estimate D2E/DX2                !
 ! A74   A(8,20,23)            113.6122         estimate D2E/DX2                !
 ! A75   A(21,20,23)           120.5258         estimate D2E/DX2                !
 ! A76   A(19,21,20)           119.2483         estimate D2E/DX2                !
 ! A77   A(19,21,38)           118.3431         estimate D2E/DX2                !
 ! A78   A(20,21,38)           116.7063         estimate D2E/DX2                !
 ! A79   A(9,22,23)            123.3131         estimate D2E/DX2                !
 ! A80   A(9,22,24)            121.9122         estimate D2E/DX2                !
 ! A81   A(23,22,24)           106.9838         estimate D2E/DX2                !
 ! A82   A(20,23,22)           119.762          estimate D2E/DX2                !
 ! A83   A(20,23,40)           120.818          estimate D2E/DX2                !
 ! A84   A(22,23,40)           109.4375         estimate D2E/DX2                !
 ! A85   A(22,24,26)           117.2701         estimate D2E/DX2                !
 ! A86   A(22,24,41)           108.9951         estimate D2E/DX2                !
 ! A87   A(26,24,41)           120.9147         estimate D2E/DX2                !
 ! A88   A(11,25,26)           121.2017         estimate D2E/DX2                !
 ! A89   A(11,25,28)           125.3854         estimate D2E/DX2                !
 ! A90   A(26,25,28)           108.3929         estimate D2E/DX2                !
 ! A91   A(24,26,25)           120.9997         estimate D2E/DX2                !
 ! A92   A(24,26,44)           119.3034         estimate D2E/DX2                !
 ! A93   A(25,26,44)           109.8733         estimate D2E/DX2                !
 ! A94   A(13,27,28)           116.6762         estimate D2E/DX2                !
 ! A95   A(13,27,30)           119.5951         estimate D2E/DX2                !
 ! A96   A(28,27,30)           122.769          estimate D2E/DX2                !
 ! A97   A(25,28,27)           104.9789         estimate D2E/DX2                !
 ! A98   A(25,28,45)           102.3811         estimate D2E/DX2                !
 ! A99   A(25,28,73)           117.2511         estimate D2E/DX2                !
 ! A100  A(27,28,45)           110.9518         estimate D2E/DX2                !
 ! A101  A(27,28,73)           110.1032         estimate D2E/DX2                !
 ! A102  A(45,28,73)           110.8198         estimate D2E/DX2                !
 ! A103  A(14,29,30)           119.5845         estimate D2E/DX2                !
 ! A104  A(14,29,31)           118.837          estimate D2E/DX2                !
 ! A105  A(30,29,31)           120.9397         estimate D2E/DX2                !
 ! A106  A(27,30,29)           120.1005         estimate D2E/DX2                !
 ! A107  A(27,30,47)           119.0038         estimate D2E/DX2                !
 ! A108  A(29,30,47)           120.5779         estimate D2E/DX2                !
 ! A109  A(29,31,34)           109.2318         estimate D2E/DX2                !
 ! A110  A(29,31,49)           110.8649         estimate D2E/DX2                !
 ! A111  A(29,31,71)           107.6915         estimate D2E/DX2                !
 ! A112  A(34,31,49)           101.0945         estimate D2E/DX2                !
 ! A113  A(34,31,71)           114.3253         estimate D2E/DX2                !
 ! A114  A(49,31,71)           113.5297         estimate D2E/DX2                !
 ! A115  A(16,32,33)           110.1576         estimate D2E/DX2                !
 ! A116  A(16,32,34)           121.8997         estimate D2E/DX2                !
 ! A117  A(33,32,34)           118.656          estimate D2E/DX2                !
 ! A118  A(18,33,32)           108.0374         estimate D2E/DX2                !
 ! A119  A(18,33,36)           118.9257         estimate D2E/DX2                !
 ! A120  A(32,33,36)           122.5671         estimate D2E/DX2                !
 ! A121  A(31,34,32)           122.1061         estimate D2E/DX2                !
 ! A122  A(31,34,51)           111.2797         estimate D2E/DX2                !
 ! A123  A(32,34,51)           119.1385         estimate D2E/DX2                !
 ! A124  A(19,35,36)           120.6276         estimate D2E/DX2                !
 ! A125  A(19,35,37)           121.889          estimate D2E/DX2                !
 ! A126  A(36,35,37)           107.1071         estimate D2E/DX2                !
 ! A127  A(33,36,35)           121.2746         estimate D2E/DX2                !
 ! A128  A(33,36,52)           118.3192         estimate D2E/DX2                !
 ! A129  A(35,36,52)           109.1578         estimate D2E/DX2                !
 ! A130  A(35,37,39)           119.785          estimate D2E/DX2                !
 ! A131  A(35,37,53)           107.5639         estimate D2E/DX2                !
 ! A132  A(39,37,53)           120.7151         estimate D2E/DX2                !
 ! A133  A(21,38,39)           121.9977         estimate D2E/DX2                !
 ! A134  A(21,38,42)           121.8959         estimate D2E/DX2                !
 ! A135  A(39,38,42)           106.7644         estimate D2E/DX2                !
 ! A136  A(37,39,38)           119.3228         estimate D2E/DX2                !
 ! A137  A(37,39,57)           120.1001         estimate D2E/DX2                !
 ! A138  A(38,39,57)           108.8102         estimate D2E/DX2                !
 ! A139  A(23,40,41)           107.2063         estimate D2E/DX2                !
 ! A140  A(23,40,42)           119.6404         estimate D2E/DX2                !
 ! A141  A(41,40,42)           121.3049         estimate D2E/DX2                !
 ! A142  A(24,41,40)           107.2558         estimate D2E/DX2                !
 ! A143  A(24,41,43)           119.9527         estimate D2E/DX2                !
 ! A144  A(40,41,43)           118.9923         estimate D2E/DX2                !
 ! A145  A(38,42,40)           119.7533         estimate D2E/DX2                !
 ! A146  A(38,42,58)           108.7515         estimate D2E/DX2                !
 ! A147  A(40,42,58)           119.492          estimate D2E/DX2                !
 ! A148  A(41,43,46)           119.0243         estimate D2E/DX2                !
 ! A149  A(41,43,59)           120.0487         estimate D2E/DX2                !
 ! A150  A(46,43,59)           108.8201         estimate D2E/DX2                !
 ! A151  A(26,44,45)           107.5828         estimate D2E/DX2                !
 ! A152  A(26,44,46)           120.0157         estimate D2E/DX2                !
 ! A153  A(45,44,46)           121.1276         estimate D2E/DX2                !
 ! A154  A(28,45,44)           110.5927         estimate D2E/DX2                !
 ! A155  A(28,45,48)           121.6368         estimate D2E/DX2                !
 ! A156  A(44,45,48)           120.0518         estimate D2E/DX2                !
 ! A157  A(43,46,44)           120.7583         estimate D2E/DX2                !
 ! A158  A(43,46,61)           107.8817         estimate D2E/DX2                !
 ! A159  A(44,46,61)           119.1458         estimate D2E/DX2                !
 ! A160  A(30,47,48)           110.1717         estimate D2E/DX2                !
 ! A161  A(30,47,50)           110.6714         estimate D2E/DX2                !
 ! A162  A(30,47,72)           106.959          estimate D2E/DX2                !
 ! A163  A(48,47,50)           101.5789         estimate D2E/DX2                !
 ! A164  A(48,47,72)           113.4395         estimate D2E/DX2                !
 ! A165  A(50,47,72)           114.0208         estimate D2E/DX2                !
 ! A166  A(45,48,47)           123.0322         estimate D2E/DX2                !
 ! A167  A(45,48,62)           119.1086         estimate D2E/DX2                !
 ! A168  A(47,48,62)           110.7051         estimate D2E/DX2                !
 ! A169  A(31,49,50)           122.2975         estimate D2E/DX2                !
 ! A170  A(31,49,54)           110.6996         estimate D2E/DX2                !
 ! A171  A(50,49,54)           119.2835         estimate D2E/DX2                !
 ! A172  A(47,50,49)           122.4742         estimate D2E/DX2                !
 ! A173  A(47,50,63)           110.5399         estimate D2E/DX2                !
 ! A174  A(49,50,63)           119.4399         estimate D2E/DX2                !
 ! A175  A(34,51,52)           121.4936         estimate D2E/DX2                !
 ! A176  A(34,51,54)           107.9982         estimate D2E/DX2                !
 ! A177  A(52,51,54)           119.3884         estimate D2E/DX2                !
 ! A178  A(36,52,51)           118.679          estimate D2E/DX2                !
 ! A179  A(36,52,53)           106.8603         estimate D2E/DX2                !
 ! A180  A(51,52,53)           121.2137         estimate D2E/DX2                !
 ! A181  A(37,53,52)           108.821          estimate D2E/DX2                !
 ! A182  A(37,53,55)           119.0709         estimate D2E/DX2                !
 ! A183  A(52,53,55)           119.4565         estimate D2E/DX2                !
 ! A184  A(49,54,51)           108.5851         estimate D2E/DX2                !
 ! A185  A(49,54,56)           121.4604         estimate D2E/DX2                !
 ! A186  A(51,54,56)           119.2955         estimate D2E/DX2                !
 ! A187  A(53,55,56)           118.994          estimate D2E/DX2                !
 ! A188  A(53,55,60)           120.0602         estimate D2E/DX2                !
 ! A189  A(56,55,60)           108.8194         estimate D2E/DX2                !
 ! A190  A(54,56,55)           121.4218         estimate D2E/DX2                !
 ! A191  A(54,56,64)           119.2442         estimate D2E/DX2                !
 ! A192  A(55,56,64)           107.7174         estimate D2E/DX2                !
 ! A193  A(39,57,58)           107.6181         estimate D2E/DX2                !
 ! A194  A(39,57,60)           119.1064         estimate D2E/DX2                !
 ! A195  A(58,57,60)           119.8972         estimate D2E/DX2                !
 ! A196  A(42,58,57)           107.697          estimate D2E/DX2                !
 ! A197  A(42,58,59)           119.3152         estimate D2E/DX2                !
 ! A198  A(57,58,59)           120.0866         estimate D2E/DX2                !
 ! A199  A(43,59,58)           120.6024         estimate D2E/DX2                !
 ! A200  A(43,59,65)           106.5755         estimate D2E/DX2                !
 ! A201  A(58,59,65)           119.8276         estimate D2E/DX2                !
 ! A202  A(55,60,57)           120.6506         estimate D2E/DX2                !
 ! A203  A(55,60,66)           106.7034         estimate D2E/DX2                !
 ! A204  A(57,60,66)           120.0311         estimate D2E/DX2                !
 ! A205  A(46,61,62)           119.0808         estimate D2E/DX2                !
 ! A206  A(46,61,65)           107.8497         estimate D2E/DX2                !
 ! A207  A(62,61,65)           121.0062         estimate D2E/DX2                !
 ! A208  A(48,62,61)           121.3695         estimate D2E/DX2                !
 ! A209  A(48,62,63)           108.2784         estimate D2E/DX2                !
 ! A210  A(61,62,63)           119.7739         estimate D2E/DX2                !
 ! A211  A(50,63,62)           108.551          estimate D2E/DX2                !
 ! A212  A(50,63,64)           121.6979         estimate D2E/DX2                !
 ! A213  A(62,63,64)           119.2324         estimate D2E/DX2                !
 ! A214  A(56,64,63)           118.8094         estimate D2E/DX2                !
 ! A215  A(56,64,66)           108.1195         estimate D2E/DX2                !
 ! A216  A(63,64,66)           121.3387         estimate D2E/DX2                !
 ! A217  A(59,65,61)           108.8239         estimate D2E/DX2                !
 ! A218  A(59,65,66)           120.0146         estimate D2E/DX2                !
 ! A219  A(61,65,66)           119.1244         estimate D2E/DX2                !
 ! A220  A(60,66,64)           108.5826         estimate D2E/DX2                !
 ! A221  A(60,66,65)           120.0223         estimate D2E/DX2                !
 ! A222  A(64,66,65)           119.4145         estimate D2E/DX2                !
 ! D1    D(4,1,2,3)              2.3955         estimate D2E/DX2                !
 ! D2    D(4,1,2,10)          -111.6759         estimate D2E/DX2                !
 ! D3    D(4,1,2,68)           121.3733         estimate D2E/DX2                !
 ! D4    D(7,1,2,3)            112.0268         estimate D2E/DX2                !
 ! D5    D(7,1,2,10)            -2.0446         estimate D2E/DX2                !
 ! D6    D(7,1,2,68)          -128.9955         estimate D2E/DX2                !
 ! D7    D(67,1,2,3)          -120.7535         estimate D2E/DX2                !
 ! D8    D(67,1,2,10)          125.1751         estimate D2E/DX2                !
 ! D9    D(67,1,2,68)           -1.7758         estimate D2E/DX2                !
 ! D10   D(2,1,4,5)             -3.2501         estimate D2E/DX2                !
 ! D11   D(2,1,4,6)            139.6047         estimate D2E/DX2                !
 ! D12   D(7,1,4,5)           -126.6263         estimate D2E/DX2                !
 ! D13   D(7,1,4,6)             16.2285         estimate D2E/DX2                !
 ! D14   D(67,1,4,5)           120.0687         estimate D2E/DX2                !
 ! D15   D(67,1,4,6)           -97.0765         estimate D2E/DX2                !
 ! D16   D(2,1,7,8)           -131.703          estimate D2E/DX2                !
 ! D17   D(2,1,7,9)             15.9027         estimate D2E/DX2                !
 ! D18   D(4,1,7,8)            -19.2461         estimate D2E/DX2                !
 ! D19   D(4,1,7,9)            128.3596         estimate D2E/DX2                !
 ! D20   D(67,1,7,8)            98.3661         estimate D2E/DX2                !
 ! D21   D(67,1,7,9)          -114.0282         estimate D2E/DX2                !
 ! D22   D(1,2,3,5)             -1.011          estimate D2E/DX2                !
 ! D23   D(1,2,3,12)          -108.8487         estimate D2E/DX2                !
 ! D24   D(1,2,3,69)           127.4412         estimate D2E/DX2                !
 ! D25   D(10,2,3,5)           118.6571         estimate D2E/DX2                !
 ! D26   D(10,2,3,12)           10.8194         estimate D2E/DX2                !
 ! D27   D(10,2,3,69)         -112.8907         estimate D2E/DX2                !
 ! D28   D(68,2,3,5)          -119.9819         estimate D2E/DX2                !
 ! D29   D(68,2,3,12)          132.1804         estimate D2E/DX2                !
 ! D30   D(68,2,3,69)            8.4704         estimate D2E/DX2                !
 ! D31   D(1,2,10,11)           -7.6328         estimate D2E/DX2                !
 ! D32   D(1,2,10,13)          107.343          estimate D2E/DX2                !
 ! D33   D(1,2,10,74)         -134.4438         estimate D2E/DX2                !
 ! D34   D(3,2,10,11)         -121.3467         estimate D2E/DX2                !
 ! D35   D(3,2,10,13)           -6.3709         estimate D2E/DX2                !
 ! D36   D(3,2,10,74)          111.8423         estimate D2E/DX2                !
 ! D37   D(68,2,10,11)         118.4112         estimate D2E/DX2                !
 ! D38   D(68,2,10,13)        -126.6129         estimate D2E/DX2                !
 ! D39   D(68,2,10,74)          -8.3998         estimate D2E/DX2                !
 ! D40   D(2,3,5,4)             -0.9381         estimate D2E/DX2                !
 ! D41   D(2,3,5,15)          -145.8823         estimate D2E/DX2                !
 ! D42   D(12,3,5,4)           109.2441         estimate D2E/DX2                !
 ! D43   D(12,3,5,15)          -35.7001         estimate D2E/DX2                !
 ! D44   D(69,3,5,4)          -130.8015         estimate D2E/DX2                !
 ! D45   D(69,3,5,15)           84.2543         estimate D2E/DX2                !
 ! D46   D(2,3,12,13)          -12.0401         estimate D2E/DX2                !
 ! D47   D(2,3,12,14)          153.1727         estimate D2E/DX2                !
 ! D48   D(5,3,12,13)         -123.47           estimate D2E/DX2                !
 ! D49   D(5,3,12,14)           41.7427         estimate D2E/DX2                !
 ! D50   D(69,3,12,13)         114.7961         estimate D2E/DX2                !
 ! D51   D(69,3,12,14)         -79.9911         estimate D2E/DX2                !
 ! D52   D(1,4,5,3)              2.7057         estimate D2E/DX2                !
 ! D53   D(1,4,5,15)           149.3886         estimate D2E/DX2                !
 ! D54   D(6,4,5,3)           -135.7906         estimate D2E/DX2                !
 ! D55   D(6,4,5,15)            10.8923         estimate D2E/DX2                !
 ! D56   D(1,4,6,8)             -7.7974         estimate D2E/DX2                !
 ! D57   D(1,4,6,17)          -152.1238         estimate D2E/DX2                !
 ! D58   D(5,4,6,8)            131.4901         estimate D2E/DX2                !
 ! D59   D(5,4,6,17)           -12.8362         estimate D2E/DX2                !
 ! D60   D(3,5,15,16)           -4.0161         estimate D2E/DX2                !
 ! D61   D(3,5,15,18)          143.4599         estimate D2E/DX2                !
 ! D62   D(4,5,15,16)         -146.4531         estimate D2E/DX2                !
 ! D63   D(4,5,15,18)            1.0229         estimate D2E/DX2                !
 ! D64   D(4,6,8,7)             -5.0465         estimate D2E/DX2                !
 ! D65   D(4,6,8,20)          -156.5618         estimate D2E/DX2                !
 ! D66   D(17,6,8,7)           139.6867         estimate D2E/DX2                !
 ! D67   D(17,6,8,20)          -11.8285         estimate D2E/DX2                !
 ! D68   D(4,6,17,18)            2.325          estimate D2E/DX2                !
 ! D69   D(4,6,17,19)          156.0311         estimate D2E/DX2                !
 ! D70   D(8,6,17,18)         -137.4801         estimate D2E/DX2                !
 ! D71   D(8,6,17,19)           16.226          estimate D2E/DX2                !
 ! D72   D(1,7,8,6)             16.0651         estimate D2E/DX2                !
 ! D73   D(1,7,8,20)           165.7799         estimate D2E/DX2                !
 ! D74   D(9,7,8,6)           -133.5749         estimate D2E/DX2                !
 ! D75   D(9,7,8,20)            16.1398         estimate D2E/DX2                !
 ! D76   D(1,7,9,11)           -19.2416         estimate D2E/DX2                !
 ! D77   D(1,7,9,22)          -170.9068         estimate D2E/DX2                !
 ! D78   D(8,7,9,11)           126.0999         estimate D2E/DX2                !
 ! D79   D(8,7,9,22)           -25.5652         estimate D2E/DX2                !
 ! D80   D(6,8,20,21)           -0.3259         estimate D2E/DX2                !
 ! D81   D(6,8,20,23)          152.3892         estimate D2E/DX2                !
 ! D82   D(7,8,20,21)         -146.6263         estimate D2E/DX2                !
 ! D83   D(7,8,20,23)            6.0887         estimate D2E/DX2                !
 ! D84   D(7,9,11,10)            8.2503         estimate D2E/DX2                !
 ! D85   D(7,9,11,25)         -148.061          estimate D2E/DX2                !
 ! D86   D(22,9,11,10)         158.5726         estimate D2E/DX2                !
 ! D87   D(22,9,11,25)           2.2613         estimate D2E/DX2                !
 ! D88   D(7,9,22,23)           15.1734         estimate D2E/DX2                !
 ! D89   D(7,9,22,24)          160.3623         estimate D2E/DX2                !
 ! D90   D(11,9,22,23)        -136.7225         estimate D2E/DX2                !
 ! D91   D(11,9,22,24)           8.4665         estimate D2E/DX2                !
 ! D92   D(2,10,11,9)            5.172          estimate D2E/DX2                !
 ! D93   D(2,10,11,25)         161.7316         estimate D2E/DX2                !
 ! D94   D(13,10,11,9)        -111.0843         estimate D2E/DX2                !
 ! D95   D(13,10,11,25)         45.4753         estimate D2E/DX2                !
 ! D96   D(74,10,11,9)         133.7642         estimate D2E/DX2                !
 ! D97   D(74,10,11,25)        -69.6762         estimate D2E/DX2                !
 ! D98   D(2,10,13,12)          -0.8352         estimate D2E/DX2                !
 ! D99   D(2,10,13,27)        -164.0244         estimate D2E/DX2                !
 ! D100  D(11,10,13,12)        126.2465         estimate D2E/DX2                !
 ! D101  D(11,10,13,27)        -36.9427         estimate D2E/DX2                !
 ! D102  D(74,10,13,12)       -120.2208         estimate D2E/DX2                !
 ! D103  D(74,10,13,27)         76.59           estimate D2E/DX2                !
 ! D104  D(9,11,25,26)          -9.5429         estimate D2E/DX2                !
 ! D105  D(9,11,25,28)         142.4228         estimate D2E/DX2                !
 ! D106  D(10,11,25,26)       -166.7545         estimate D2E/DX2                !
 ! D107  D(10,11,25,28)        -14.7889         estimate D2E/DX2                !
 ! D108  D(3,12,13,10)           8.2809         estimate D2E/DX2                !
 ! D109  D(3,12,13,27)         172.6415         estimate D2E/DX2                !
 ! D110  D(14,12,13,10)       -157.5772         estimate D2E/DX2                !
 ! D111  D(14,12,13,27)          6.7834         estimate D2E/DX2                !
 ! D112  D(3,12,14,16)          -6.3071         estimate D2E/DX2                !
 ! D113  D(3,12,14,29)        -173.8292         estimate D2E/DX2                !
 ! D114  D(13,12,14,16)        157.4907         estimate D2E/DX2                !
 ! D115  D(13,12,14,29)        -10.0314         estimate D2E/DX2                !
 ! D116  D(10,13,27,28)         -6.3836         estimate D2E/DX2                !
 ! D117  D(10,13,27,30)        162.7203         estimate D2E/DX2                !
 ! D118  D(12,13,27,28)       -168.3178         estimate D2E/DX2                !
 ! D119  D(12,13,27,30)          0.7861         estimate D2E/DX2                !
 ! D120  D(12,14,16,15)        -34.3994         estimate D2E/DX2                !
 ! D121  D(12,14,16,32)       -141.9994         estimate D2E/DX2                !
 ! D122  D(12,14,16,70)         91.9342         estimate D2E/DX2                !
 ! D123  D(29,14,16,15)        132.6607         estimate D2E/DX2                !
 ! D124  D(29,14,16,32)         25.0607         estimate D2E/DX2                !
 ! D125  D(29,14,16,70)       -101.0057         estimate D2E/DX2                !
 ! D126  D(12,14,29,30)          5.789          estimate D2E/DX2                !
 ! D127  D(12,14,29,31)        176.7171         estimate D2E/DX2                !
 ! D128  D(16,14,29,30)       -161.2592         estimate D2E/DX2                !
 ! D129  D(16,14,29,31)          9.6689         estimate D2E/DX2                !
 ! D130  D(5,15,16,14)          40.4451         estimate D2E/DX2                !
 ! D131  D(5,15,16,32)         153.4476         estimate D2E/DX2                !
 ! D132  D(5,15,16,70)         -82.119          estimate D2E/DX2                !
 ! D133  D(18,15,16,14)       -109.8486         estimate D2E/DX2                !
 ! D134  D(18,15,16,32)          3.1539         estimate D2E/DX2                !
 ! D135  D(18,15,16,70)        127.5873         estimate D2E/DX2                !
 ! D136  D(5,15,18,17)         -11.4633         estimate D2E/DX2                !
 ! D137  D(5,15,18,33)        -159.5486         estimate D2E/DX2                !
 ! D138  D(16,15,18,17)        139.6252         estimate D2E/DX2                !
 ! D139  D(16,15,18,33)         -8.4602         estimate D2E/DX2                !
 ! D140  D(14,16,32,33)        112.2756         estimate D2E/DX2                !
 ! D141  D(14,16,32,34)        -33.8442         estimate D2E/DX2                !
 ! D142  D(15,16,32,33)          3.2455         estimate D2E/DX2                !
 ! D143  D(15,16,32,34)       -142.8743         estimate D2E/DX2                !
 ! D144  D(70,16,32,33)       -123.2443         estimate D2E/DX2                !
 ! D145  D(70,16,32,34)         90.6359         estimate D2E/DX2                !
 ! D146  D(6,17,18,15)           9.4604         estimate D2E/DX2                !
 ! D147  D(6,17,18,33)         153.9702         estimate D2E/DX2                !
 ! D148  D(19,17,18,15)       -144.077          estimate D2E/DX2                !
 ! D149  D(19,17,18,33)          0.4327         estimate D2E/DX2                !
 ! D150  D(6,17,19,21)          -8.5781         estimate D2E/DX2                !
 ! D151  D(6,17,19,35)        -162.575          estimate D2E/DX2                !
 ! D152  D(18,17,19,21)        143.7123         estimate D2E/DX2                !
 ! D153  D(18,17,19,35)        -10.2847         estimate D2E/DX2                !
 ! D154  D(15,18,33,32)         10.4045         estimate D2E/DX2                !
 ! D155  D(15,18,33,36)        156.1712         estimate D2E/DX2                !
 ! D156  D(17,18,33,32)       -138.2083         estimate D2E/DX2                !
 ! D157  D(17,18,33,36)          7.5584         estimate D2E/DX2                !
 ! D158  D(17,19,21,20)         -3.2977         estimate D2E/DX2                !
 ! D159  D(17,19,21,38)       -155.8345         estimate D2E/DX2                !
 ! D160  D(35,19,21,20)        150.3324         estimate D2E/DX2                !
 ! D161  D(35,19,21,38)         -2.2045         estimate D2E/DX2                !
 ! D162  D(17,19,35,36)         12.4066         estimate D2E/DX2                !
 ! D163  D(17,19,35,37)        152.8479         estimate D2E/DX2                !
 ! D164  D(21,19,35,36)       -141.7481         estimate D2E/DX2                !
 ! D165  D(21,19,35,37)         -1.3069         estimate D2E/DX2                !
 ! D166  D(8,20,21,19)           7.6864         estimate D2E/DX2                !
 ! D167  D(8,20,21,38)         160.6625         estimate D2E/DX2                !
 ! D168  D(23,20,21,19)       -143.1292         estimate D2E/DX2                !
 ! D169  D(23,20,21,38)          9.8468         estimate D2E/DX2                !
 ! D170  D(8,20,23,22)         -17.1056         estimate D2E/DX2                !
 ! D171  D(8,20,23,40)        -159.0574         estimate D2E/DX2                !
 ! D172  D(21,20,23,22)        135.3831         estimate D2E/DX2                !
 ! D173  D(21,20,23,40)         -6.5686         estimate D2E/DX2                !
 ! D174  D(19,21,38,39)          3.8145         estimate D2E/DX2                !
 ! D175  D(19,21,38,42)        145.9484         estimate D2E/DX2                !
 ! D176  D(20,21,38,39)       -149.414          estimate D2E/DX2                !
 ! D177  D(20,21,38,42)         -7.2801         estimate D2E/DX2                !
 ! D178  D(9,22,23,20)           7.0151         estimate D2E/DX2                !
 ! D179  D(9,22,23,40)         152.8701         estimate D2E/DX2                !
 ! D180  D(24,22,23,20)       -142.5414         estimate D2E/DX2                !
 ! D181  D(24,22,23,40)          3.3135         estimate D2E/DX2                !
 ! D182  D(9,22,24,26)         -11.5384         estimate D2E/DX2                !
 ! D183  D(9,22,24,41)        -153.6059         estimate D2E/DX2                !
 ! D184  D(23,22,24,26)        138.5394         estimate D2E/DX2                !
 ! D185  D(23,22,24,41)         -3.528          estimate D2E/DX2                !
 ! D186  D(20,23,40,41)        143.6112         estimate D2E/DX2                !
 ! D187  D(20,23,40,42)          0.2863         estimate D2E/DX2                !
 ! D188  D(22,23,40,41)         -1.8221         estimate D2E/DX2                !
 ! D189  D(22,23,40,42)       -145.147          estimate D2E/DX2                !
 ! D190  D(22,24,26,25)          4.1291         estimate D2E/DX2                !
 ! D191  D(22,24,26,44)       -138.2446         estimate D2E/DX2                !
 ! D192  D(41,24,26,25)        141.4797         estimate D2E/DX2                !
 ! D193  D(41,24,26,44)         -0.894          estimate D2E/DX2                !
 ! D194  D(22,24,41,40)          2.4373         estimate D2E/DX2                !
 ! D195  D(22,24,41,43)        142.3237         estimate D2E/DX2                !
 ! D196  D(26,24,41,40)       -138.0023         estimate D2E/DX2                !
 ! D197  D(26,24,41,43)          1.884          estimate D2E/DX2                !
 ! D198  D(11,25,26,24)          6.4509         estimate D2E/DX2                !
 ! D199  D(11,25,26,44)        151.9721         estimate D2E/DX2                !
 ! D200  D(28,25,26,24)       -149.7326         estimate D2E/DX2                !
 ! D201  D(28,25,26,44)         -4.2114         estimate D2E/DX2                !
 ! D202  D(11,25,28,27)        -29.92           estimate D2E/DX2                !
 ! D203  D(11,25,28,45)       -145.8776         estimate D2E/DX2                !
 ! D204  D(11,25,28,73)         92.6296         estimate D2E/DX2                !
 ! D205  D(26,25,28,27)        125.0144         estimate D2E/DX2                !
 ! D206  D(26,25,28,45)          9.0567         estimate D2E/DX2                !
 ! D207  D(26,25,28,73)       -112.4361         estimate D2E/DX2                !
 ! D208  D(24,26,44,45)        143.3161         estimate D2E/DX2                !
 ! D209  D(24,26,44,46)         -0.7155         estimate D2E/DX2                !
 ! D210  D(25,26,44,45)         -2.8733         estimate D2E/DX2                !
 ! D211  D(25,26,44,46)       -146.905          estimate D2E/DX2                !
 ! D212  D(13,27,28,25)         38.9119         estimate D2E/DX2                !
 ! D213  D(13,27,28,45)        148.7959         estimate D2E/DX2                !
 ! D214  D(13,27,28,73)        -88.1499         estimate D2E/DX2                !
 ! D215  D(30,27,28,25)       -129.8155         estimate D2E/DX2                !
 ! D216  D(30,27,28,45)        -19.9316         estimate D2E/DX2                !
 ! D217  D(30,27,28,73)        103.1227         estimate D2E/DX2                !
 ! D218  D(13,27,30,29)         -4.829          estimate D2E/DX2                !
 ! D219  D(13,27,30,47)       -178.3928         estimate D2E/DX2                !
 ! D220  D(28,27,30,29)        163.5828         estimate D2E/DX2                !
 ! D221  D(28,27,30,47)         -9.981          estimate D2E/DX2                !
 ! D222  D(25,28,45,44)        -11.0621         estimate D2E/DX2                !
 ! D223  D(25,28,45,48)        138.2349         estimate D2E/DX2                !
 ! D224  D(27,28,45,44)       -122.6178         estimate D2E/DX2                !
 ! D225  D(27,28,45,48)         26.6792         estimate D2E/DX2                !
 ! D226  D(73,28,45,44)        114.7422         estimate D2E/DX2                !
 ! D227  D(73,28,45,48)        -95.9608         estimate D2E/DX2                !
 ! D228  D(14,29,30,27)          1.47           estimate D2E/DX2                !
 ! D229  D(14,29,30,47)        174.9313         estimate D2E/DX2                !
 ! D230  D(31,29,30,27)       -169.263          estimate D2E/DX2                !
 ! D231  D(31,29,30,47)          4.1983         estimate D2E/DX2                !
 ! D232  D(14,29,31,34)        -36.1911         estimate D2E/DX2                !
 ! D233  D(14,29,31,49)       -146.7442         estimate D2E/DX2                !
 ! D234  D(14,29,31,71)         88.5033         estimate D2E/DX2                !
 ! D235  D(30,29,31,34)        134.6099         estimate D2E/DX2                !
 ! D236  D(30,29,31,49)         24.0568         estimate D2E/DX2                !
 ! D237  D(30,29,31,71)       -100.6958         estimate D2E/DX2                !
 ! D238  D(27,30,47,48)         32.6435         estimate D2E/DX2                !
 ! D239  D(27,30,47,50)        144.1837         estimate D2E/DX2                !
 ! D240  D(27,30,47,72)        -91.0719         estimate D2E/DX2                !
 ! D241  D(29,30,47,48)       -140.8887         estimate D2E/DX2                !
 ! D242  D(29,30,47,50)        -29.3484         estimate D2E/DX2                !
 ! D243  D(29,30,47,72)         95.396          estimate D2E/DX2                !
 ! D244  D(29,31,34,32)         28.7307         estimate D2E/DX2                !
 ! D245  D(29,31,34,51)       -120.7287         estimate D2E/DX2                !
 ! D246  D(49,31,34,32)        145.6548         estimate D2E/DX2                !
 ! D247  D(49,31,34,51)         -3.8045         estimate D2E/DX2                !
 ! D248  D(71,31,34,32)        -91.9939         estimate D2E/DX2                !
 ! D249  D(71,31,34,51)        118.5467         estimate D2E/DX2                !
 ! D250  D(29,31,49,50)        -27.5606         estimate D2E/DX2                !
 ! D251  D(29,31,49,54)        121.4701         estimate D2E/DX2                !
 ! D252  D(34,31,49,50)       -143.2799         estimate D2E/DX2                !
 ! D253  D(34,31,49,54)          5.7507         estimate D2E/DX2                !
 ! D254  D(71,31,49,50)         93.8174         estimate D2E/DX2                !
 ! D255  D(71,31,49,54)       -117.152          estimate D2E/DX2                !
 ! D256  D(16,32,33,18)         -8.4268         estimate D2E/DX2                !
 ! D257  D(16,32,33,36)       -152.6768         estimate D2E/DX2                !
 ! D258  D(34,32,33,18)        138.9353         estimate D2E/DX2                !
 ! D259  D(34,32,33,36)         -5.3147         estimate D2E/DX2                !
 ! D260  D(16,32,34,31)          6.8571         estimate D2E/DX2                !
 ! D261  D(16,32,34,51)        154.0296         estimate D2E/DX2                !
 ! D262  D(33,32,34,31)       -136.5334         estimate D2E/DX2                !
 ! D263  D(33,32,34,51)         10.6392         estimate D2E/DX2                !
 ! D264  D(18,33,36,35)         -5.5159         estimate D2E/DX2                !
 ! D265  D(18,33,36,52)       -145.288          estimate D2E/DX2                !
 ! D266  D(32,33,36,35)        135.085          estimate D2E/DX2                !
 ! D267  D(32,33,36,52)         -4.6871         estimate D2E/DX2                !
 ! D268  D(31,34,51,52)        144.1131         estimate D2E/DX2                !
 ! D269  D(31,34,51,54)          0.585          estimate D2E/DX2                !
 ! D270  D(32,34,51,52)         -6.362          estimate D2E/DX2                !
 ! D271  D(32,34,51,54)       -149.8901         estimate D2E/DX2                !
 ! D272  D(19,35,36,33)         -4.7372         estimate D2E/DX2                !
 ! D273  D(19,35,36,52)        138.259          estimate D2E/DX2                !
 ! D274  D(37,35,36,33)       -150.2807         estimate D2E/DX2                !
 ! D275  D(37,35,36,52)         -7.2845         estimate D2E/DX2                !
 ! D276  D(19,35,37,39)          3.3572         estimate D2E/DX2                !
 ! D277  D(19,35,37,53)       -139.626          estimate D2E/DX2                !
 ! D278  D(36,35,37,39)        148.37           estimate D2E/DX2                !
 ! D279  D(36,35,37,53)          5.3868         estimate D2E/DX2                !
 ! D280  D(33,36,52,51)          8.9591         estimate D2E/DX2                !
 ! D281  D(33,36,52,53)        150.496          estimate D2E/DX2                !
 ! D282  D(35,36,52,51)       -135.2841         estimate D2E/DX2                !
 ! D283  D(35,36,52,53)          6.2527         estimate D2E/DX2                !
 ! D284  D(35,37,39,38)         -1.7676         estimate D2E/DX2                !
 ! D285  D(35,37,39,57)       -140.6243         estimate D2E/DX2                !
 ! D286  D(53,37,39,38)        136.3472         estimate D2E/DX2                !
 ! D287  D(53,37,39,57)         -2.5095         estimate D2E/DX2                !
 ! D288  D(35,37,53,52)         -1.6183         estimate D2E/DX2                !
 ! D289  D(35,37,53,55)        140.0016         estimate D2E/DX2                !
 ! D290  D(39,37,53,52)       -144.1894         estimate D2E/DX2                !
 ! D291  D(39,37,53,55)         -2.5695         estimate D2E/DX2                !
 ! D292  D(21,38,39,37)         -1.8308         estimate D2E/DX2                !
 ! D293  D(21,38,39,57)        141.2034         estimate D2E/DX2                !
 ! D294  D(42,38,39,37)       -148.8561         estimate D2E/DX2                !
 ! D295  D(42,38,39,57)         -5.8218         estimate D2E/DX2                !
 ! D296  D(21,38,42,40)          1.3431         estimate D2E/DX2                !
 ! D297  D(21,38,42,58)       -141.1142         estimate D2E/DX2                !
 ! D298  D(39,38,42,40)        148.4095         estimate D2E/DX2                !
 ! D299  D(39,38,42,58)          5.9522         estimate D2E/DX2                !
 ! D300  D(37,39,57,58)        146.2184         estimate D2E/DX2                !
 ! D301  D(37,39,57,60)          5.3803         estimate D2E/DX2                !
 ! D302  D(38,39,57,58)          3.52           estimate D2E/DX2                !
 ! D303  D(38,39,57,60)       -137.3181         estimate D2E/DX2                !
 ! D304  D(23,40,41,24)         -0.3703         estimate D2E/DX2                !
 ! D305  D(23,40,41,43)       -140.7103         estimate D2E/DX2                !
 ! D306  D(42,40,41,24)        142.2153         estimate D2E/DX2                !
 ! D307  D(42,40,41,43)          1.8753         estimate D2E/DX2                !
 ! D308  D(23,40,42,38)          2.3676         estimate D2E/DX2                !
 ! D309  D(23,40,42,58)        140.8459         estimate D2E/DX2                !
 ! D310  D(41,40,42,38)       -135.7377         estimate D2E/DX2                !
 ! D311  D(41,40,42,58)          2.7405         estimate D2E/DX2                !
 ! D312  D(24,41,43,46)         -1.2219         estimate D2E/DX2                !
 ! D313  D(24,41,43,59)       -139.5697         estimate D2E/DX2                !
 ! D314  D(40,41,43,46)        134.0729         estimate D2E/DX2                !
 ! D315  D(40,41,43,59)         -4.2749         estimate D2E/DX2                !
 ! D316  D(38,42,58,57)         -3.8423         estimate D2E/DX2                !
 ! D317  D(38,42,58,59)        137.6632         estimate D2E/DX2                !
 ! D318  D(40,42,58,57)       -146.4136         estimate D2E/DX2                !
 ! D319  D(40,42,58,59)         -4.9081         estimate D2E/DX2                !
 ! D320  D(41,43,46,44)         -0.3775         estimate D2E/DX2                !
 ! D321  D(41,43,46,61)       -142.3337         estimate D2E/DX2                !
 ! D322  D(59,43,46,44)        142.1935         estimate D2E/DX2                !
 ! D323  D(59,43,46,61)          0.2372         estimate D2E/DX2                !
 ! D324  D(41,43,59,58)          2.0991         estimate D2E/DX2                !
 ! D325  D(41,43,59,65)        143.2662         estimate D2E/DX2                !
 ! D326  D(46,43,59,58)       -140.024          estimate D2E/DX2                !
 ! D327  D(46,43,59,65)          1.1431         estimate D2E/DX2                !
 ! D328  D(26,44,45,28)          9.0369         estimate D2E/DX2                !
 ! D329  D(26,44,45,48)       -140.816          estimate D2E/DX2                !
 ! D330  D(46,44,45,28)        152.5877         estimate D2E/DX2                !
 ! D331  D(46,44,45,48)          2.7348         estimate D2E/DX2                !
 ! D332  D(26,44,46,43)          1.3642         estimate D2E/DX2                !
 ! D333  D(26,44,46,61)        139.1798         estimate D2E/DX2                !
 ! D334  D(45,44,46,43)       -137.7864         estimate D2E/DX2                !
 ! D335  D(45,44,46,61)          0.0292         estimate D2E/DX2                !
 ! D336  D(28,45,48,47)         -2.9665         estimate D2E/DX2                !
 ! D337  D(28,45,48,62)       -150.608          estimate D2E/DX2                !
 ! D338  D(44,45,48,47)        143.5159         estimate D2E/DX2                !
 ! D339  D(44,45,48,62)         -4.1257         estimate D2E/DX2                !
 ! D340  D(43,46,61,62)        141.4421         estimate D2E/DX2                !
 ! D341  D(43,46,61,65)         -1.5299         estimate D2E/DX2                !
 ! D342  D(44,46,61,62)         -1.232          estimate D2E/DX2                !
 ! D343  D(44,46,61,65)       -144.2039         estimate D2E/DX2                !
 ! D344  D(30,47,48,45)        -26.9615         estimate D2E/DX2                !
 ! D345  D(30,47,48,62)        123.0449         estimate D2E/DX2                !
 ! D346  D(50,47,48,45)       -144.2942         estimate D2E/DX2                !
 ! D347  D(50,47,48,62)          5.7121         estimate D2E/DX2                !
 ! D348  D(72,47,48,45)         92.9045         estimate D2E/DX2                !
 ! D349  D(72,47,48,62)       -117.0892         estimate D2E/DX2                !
 ! D350  D(30,47,50,49)         26.8452         estimate D2E/DX2                !
 ! D351  D(30,47,50,63)       -122.5413         estimate D2E/DX2                !
 ! D352  D(48,47,50,49)        143.8151         estimate D2E/DX2                !
 ! D353  D(48,47,50,63)         -5.5714         estimate D2E/DX2                !
 ! D354  D(72,47,50,49)        -93.7831         estimate D2E/DX2                !
 ! D355  D(72,47,50,63)        116.8304         estimate D2E/DX2                !
 ! D356  D(45,48,62,61)          2.9411         estimate D2E/DX2                !
 ! D357  D(45,48,62,63)        147.4169         estimate D2E/DX2                !
 ! D358  D(47,48,62,61)       -148.3939         estimate D2E/DX2                !
 ! D359  D(47,48,62,63)         -3.9181         estimate D2E/DX2                !
 ! D360  D(31,49,50,47)          1.7979         estimate D2E/DX2                !
 ! D361  D(31,49,50,63)        148.5968         estimate D2E/DX2                !
 ! D362  D(54,49,50,47)       -144.7055         estimate D2E/DX2                !
 ! D363  D(54,49,50,63)          2.0934         estimate D2E/DX2                !
 ! D364  D(31,49,54,51)         -5.8173         estimate D2E/DX2                !
 ! D365  D(31,49,54,56)       -150.0044         estimate D2E/DX2                !
 ! D366  D(50,49,54,51)        144.269          estimate D2E/DX2                !
 ! D367  D(50,49,54,56)          0.0819         estimate D2E/DX2                !
 ! D368  D(47,50,63,62)          3.5929         estimate D2E/DX2                !
 ! D369  D(47,50,63,64)        147.9511         estimate D2E/DX2                !
 ! D370  D(49,50,63,62)       -146.8483         estimate D2E/DX2                !
 ! D371  D(49,50,63,64)         -2.4901         estimate D2E/DX2                !
 ! D372  D(34,51,52,36)         -3.6753         estimate D2E/DX2                !
 ! D373  D(34,51,52,53)       -139.5659         estimate D2E/DX2                !
 ! D374  D(54,51,52,36)        135.8707         estimate D2E/DX2                !
 ! D375  D(54,51,52,53)         -0.0199         estimate D2E/DX2                !
 ! D376  D(34,51,54,49)          3.1781         estimate D2E/DX2                !
 ! D377  D(34,51,54,56)        148.2658         estimate D2E/DX2                !
 ! D378  D(52,51,54,49)       -141.2497         estimate D2E/DX2                !
 ! D379  D(52,51,54,56)          3.8381         estimate D2E/DX2                !
 ! D380  D(36,52,53,37)         -2.8439         estimate D2E/DX2                !
 ! D381  D(36,52,53,55)       -144.2921         estimate D2E/DX2                !
 ! D382  D(51,52,53,37)        137.508          estimate D2E/DX2                !
 ! D383  D(51,52,53,55)         -3.9402         estimate D2E/DX2                !
 ! D384  D(37,53,55,56)       -133.5854         estimate D2E/DX2                !
 ! D385  D(37,53,55,60)          4.733          estimate D2E/DX2                !
 ! D386  D(52,53,55,56)          3.9662         estimate D2E/DX2                !
 ! D387  D(52,53,55,60)        142.2846         estimate D2E/DX2                !
 ! D388  D(49,54,56,55)        136.7071         estimate D2E/DX2                !
 ! D389  D(49,54,56,64)         -1.9497         estimate D2E/DX2                !
 ! D390  D(51,54,56,55)         -3.8017         estimate D2E/DX2                !
 ! D391  D(51,54,56,64)       -142.4584         estimate D2E/DX2                !
 ! D392  D(53,55,56,54)         -0.1448         estimate D2E/DX2                !
 ! D393  D(53,55,56,64)        142.6209         estimate D2E/DX2                !
 ! D394  D(60,55,56,54)       -142.6958         estimate D2E/DX2                !
 ! D395  D(60,55,56,64)          0.07           estimate D2E/DX2                !
 ! D396  D(53,55,60,57)         -1.8553         estimate D2E/DX2                !
 ! D397  D(53,55,60,66)       -143.5942         estimate D2E/DX2                !
 ! D398  D(56,55,60,57)        140.2292         estimate D2E/DX2                !
 ! D399  D(56,55,60,66)         -1.5096         estimate D2E/DX2                !
 ! D400  D(54,56,64,63)          1.5646         estimate D2E/DX2                !
 ! D401  D(54,56,64,66)        145.1265         estimate D2E/DX2                !
 ! D402  D(55,56,64,63)       -142.153          estimate D2E/DX2                !
 ! D403  D(55,56,64,66)          1.4089         estimate D2E/DX2                !
 ! D404  D(39,57,58,42)          0.2059         estimate D2E/DX2                !
 ! D405  D(39,57,58,59)       -140.9473         estimate D2E/DX2                !
 ! D406  D(60,57,58,42)        140.6772         estimate D2E/DX2                !
 ! D407  D(60,57,58,59)         -0.476          estimate D2E/DX2                !
 ! D408  D(39,57,60,55)         -3.2158         estimate D2E/DX2                !
 ! D409  D(39,57,60,66)        133.5416         estimate D2E/DX2                !
 ! D410  D(58,57,60,55)       -139.2453         estimate D2E/DX2                !
 ! D411  D(58,57,60,66)         -2.4879         estimate D2E/DX2                !
 ! D412  D(42,58,59,43)          2.5372         estimate D2E/DX2                !
 ! D413  D(42,58,59,65)       -133.6132         estimate D2E/DX2                !
 ! D414  D(57,58,59,43)        139.2765         estimate D2E/DX2                !
 ! D415  D(57,58,59,65)          3.1261         estimate D2E/DX2                !
 ! D416  D(43,59,65,61)         -2.0922         estimate D2E/DX2                !
 ! D417  D(43,59,65,66)       -144.3504         estimate D2E/DX2                !
 ! D418  D(58,59,65,61)        139.4358         estimate D2E/DX2                !
 ! D419  D(58,59,65,66)         -2.8224         estimate D2E/DX2                !
 ! D420  D(55,60,66,64)          2.3768         estimate D2E/DX2                !
 ! D421  D(55,60,66,65)        144.8159         estimate D2E/DX2                !
 ! D422  D(57,60,66,64)       -139.6466         estimate D2E/DX2                !
 ! D423  D(57,60,66,65)          2.7925         estimate D2E/DX2                !
 ! D424  D(46,61,62,48)         -0.2125         estimate D2E/DX2                !
 ! D425  D(46,61,62,63)       -140.7451         estimate D2E/DX2                !
 ! D426  D(65,61,62,48)        137.8146         estimate D2E/DX2                !
 ! D427  D(65,61,62,63)         -2.718          estimate D2E/DX2                !
 ! D428  D(46,61,65,59)          2.2688         estimate D2E/DX2                !
 ! D429  D(46,61,65,66)        144.9152         estimate D2E/DX2                !
 ! D430  D(62,61,65,59)       -139.85           estimate D2E/DX2                !
 ! D431  D(62,61,65,66)          2.7964         estimate D2E/DX2                !
[...]
 Alpha virt. eigenvalues --    1.21411   1.21991   1.22439   1.22814   1.23161
 Alpha virt. eigenvalues --    1.23421   1.24085   1.24666   1.24765   1.25482
 Alpha virt. eigenvalues --    1.25698   1.26478   1.26597   1.27347   1.27489
 Alpha virt. eigenvalues --    1.28186   1.28481   1.28951   1.29549   1.29809
 Alpha virt. eigenvalues --    1.30271   1.30990   1.31689   1.31946   1.32239
 Alpha virt. eigenvalues --    1.32516   1.32686   1.32822   1.33068   1.33407
 Alpha virt. eigenvalues --    1.33542   1.34034   1.34763   1.35037   1.35238
 Alpha virt. eigenvalues --    1.35426   1.36253   1.36665   1.36766   1.37340
 Alpha virt. eigenvalues --    1.37461   1.37540   1.38088   1.38286   1.38766
 Alpha virt. eigenvalues --    1.38954   1.39615   1.39689   1.39843   1.40337
 Alpha virt. eigenvalues --    1.40579   1.40667   1.41133   1.41459   1.41707
 Alpha virt. eigenvalues --    1.41857   1.42008   1.42195   1.42426   1.42598
 Alpha virt. eigenvalues --    1.42760   1.42985   1.43235   1.43765   1.43858
 Alpha virt. eigenvalues --    1.43999   1.44536   1.44799   1.44852   1.45188
 Alpha virt. eigenvalues --    1.45356   1.45458   1.45845   1.46168   1.46520
 Alpha virt. eigenvalues --    1.46663   1.46954   1.47103   1.47231   1.47449
 Alpha virt. eigenvalues --    1.47745   1.47772   1.48008   1.48524   1.48886
 Alpha virt. eigenvalues --    1.49225   1.49712   1.49752   1.49891   1.50316
 Alpha virt. eigenvalues --    1.50586   1.50889   1.50912   1.51404   1.51628
 Alpha virt. eigenvalues --    1.51965   1.52242   1.52511   1.52621   1.52801
 Alpha virt. eigenvalues --    1.53490   1.53831   1.54000   1.54339   1.54937
 Alpha virt. eigenvalues --    1.55307   1.55661   1.55917   1.56194   1.56618
 Alpha virt. eigenvalues --    1.57105   1.57231   1.57921   1.58230   1.58854
 Alpha virt. eigenvalues --    1.59483   1.59611   1.59773   1.60218   1.60461
 Alpha virt. eigenvalues --    1.60582   1.61204   1.61356   1.61942   1.62247
 Alpha virt. eigenvalues --    1.62570   1.63209   1.63420   1.63858   1.64458
 Alpha virt. eigenvalues --    1.64849   1.65009   1.65448   1.65794   1.66029
 Alpha virt. eigenvalues --    1.66363   1.66544   1.66606   1.67580   1.68036
 Alpha virt. eigenvalues --    1.68335   1.68485   1.69110   1.69433   1.69894
 Alpha virt. eigenvalues --    1.70203   1.70468   1.70835   1.71195   1.71389
 Alpha virt. eigenvalues --    1.71936   1.72445   1.72777   1.72941   1.73347
 Alpha virt. eigenvalues --    1.73705   1.74102   1.74325   1.74768   1.75028
 Alpha virt. eigenvalues --    1.75392   1.75862   1.76220   1.76439   1.77122
 Alpha virt. eigenvalues --    1.77399   1.77841   1.78155   1.78851   1.79219
 Alpha virt. eigenvalues --    1.80218   1.80362   1.80581   1.80947   1.81781
 Alpha virt. eigenvalues --    1.82226   1.82366   1.83166   1.83238   1.84271
 Alpha virt. eigenvalues --    1.84745   1.85678   1.86140   1.86340   1.87028
 Alpha virt. eigenvalues --    1.87200   1.87790   1.88104   1.89191   1.89406
 Alpha virt. eigenvalues --    1.90189   1.90696   1.91331   1.91483   1.92001
 Alpha virt. eigenvalues --    1.92126   1.93129   1.93371   1.93559   1.94421
 Alpha virt. eigenvalues --    1.94771   1.95058   1.95300   1.95892   1.96130
 Alpha virt. eigenvalues --    1.97271   1.97283   1.97781   1.98471   1.99280
 Alpha virt. eigenvalues --    1.99675   2.00037   2.00603   2.00943   2.01030
 Alpha virt. eigenvalues --    2.01127   2.01441   2.01691   2.02148   2.02192
 Alpha virt. eigenvalues --    2.02739   2.03144   2.03398   2.04348   2.05282
 Alpha virt. eigenvalues --    2.05563   2.05843   2.06110   2.06303   2.06851
 Alpha virt. eigenvalues --    2.07096   2.07391   2.07704   2.08106   2.08824
 Alpha virt. eigenvalues --    2.09119   2.09976   2.10167   2.10651   2.10823
 Alpha virt. eigenvalues --    2.11122   2.12010   2.12869   2.13277   2.13639
 Alpha virt. eigenvalues --    2.14012   2.14472   2.14977   2.15217   2.15487
 Alpha virt. eigenvalues --    2.15751   2.16548   2.16845   2.17168   2.17860
 Alpha virt. eigenvalues --    2.18361   2.18479   2.18967   2.19622   2.20178
 Alpha virt. eigenvalues --    2.20335   2.20964   2.21659   2.21693   2.21895
 Alpha virt. eigenvalues --    2.22295   2.22779   2.23477   2.24102   2.24277
 Alpha virt. eigenvalues --    2.24800   2.25234   2.25597   2.26111   2.26575
 Alpha virt. eigenvalues --    2.27118   2.27376   2.28067   2.28325   2.28411
 Alpha virt. eigenvalues --    2.28839   2.29312   2.30000   2.30882   2.31503
 Alpha virt. eigenvalues --    2.31638   2.31988   2.32530   2.32884   2.33098
 Alpha virt. eigenvalues --    2.33532   2.34126   2.34646   2.35347   2.35755
 Alpha virt. eigenvalues --    2.35896   2.36630   2.37057   2.37259   2.37991
 Alpha virt. eigenvalues --    2.38220   2.38839   2.39074   2.39462   2.40156
 Alpha virt. eigenvalues --    2.40614   2.41043   2.41141   2.41640   2.41861
 Alpha virt. eigenvalues --    2.41946   2.42236   2.43028   2.43127   2.43717
 Alpha virt. eigenvalues --    2.44301   2.44681   2.44857   2.45412   2.46146
 Alpha virt. eigenvalues --    2.46482   2.47191   2.47975   2.48047   2.48407
 Alpha virt. eigenvalues --    2.49056   2.49748   2.49897   2.49978   2.50898
 Alpha virt. eigenvalues --    2.51919   2.52029   2.53055   2.53525   2.54051
 Alpha virt. eigenvalues --    2.54298   2.54697   2.54913   2.55175   2.55513
 Alpha virt. eigenvalues --    2.55908   2.56147   2.56446   2.57105   2.57606
 Alpha virt. eigenvalues --    2.58280   2.58518   2.59146   2.59595   2.60242
 Alpha virt. eigenvalues --    2.61164   2.61490   2.61761   2.62392   2.63036
 Alpha virt. eigenvalues --    2.63229   2.63765   2.63935   2.64949   2.65114
 Alpha virt. eigenvalues --    2.65833   2.65966   2.67972   2.68502   2.68842
 Alpha virt. eigenvalues --    2.70068   2.70221   2.70788   2.71519   2.73438
 Alpha virt. eigenvalues --    2.73709   2.75271   2.75712   2.76322   2.76707
 Alpha virt. eigenvalues --    2.77065   2.77962   2.79468   2.80328   2.81069
 Alpha virt. eigenvalues --    2.81219   2.81594   2.81914   2.82004   2.82955
 Alpha virt. eigenvalues --    2.83123   2.84017   2.86137   2.86407   2.87386
 Alpha virt. eigenvalues --    2.87850   2.88527   2.90871   2.91333   2.91738
 Alpha virt. eigenvalues --    2.92738   2.93012   2.93482   2.94068   2.94370
 Alpha virt. eigenvalues --    2.94627   2.94996   2.95300   2.95767   2.95933
 Alpha virt. eigenvalues --    2.96066   2.97091   2.97579   2.97961   2.98184
 Alpha virt. eigenvalues --    2.98620   2.98997   2.99534   2.99713   3.00037
 Alpha virt. eigenvalues --    3.00423   3.00982   3.01478   3.01886   3.02504
 Alpha virt. eigenvalues --    3.02649   3.03459   3.03629   3.04016   3.04661
 Alpha virt. eigenvalues --    3.05014   3.05394   3.05655   3.05938   3.06110
 Alpha virt. eigenvalues --    3.06419   3.06648   3.07763   3.07977   3.08268
 Alpha virt. eigenvalues --    3.08892   3.09148   3.09458   3.09849   3.10392
 Alpha virt. eigenvalues --    3.10860   3.11255   3.11548   3.11662   3.11878
 Alpha virt. eigenvalues --    3.12438   3.12530   3.12830   3.13040   3.13448
 Alpha virt. eigenvalues --    3.13851   3.14189   3.14611   3.14968   3.15226
 Alpha virt. eigenvalues --    3.15940   3.16029   3.16414   3.17184   3.17582
 Alpha virt. eigenvalues --    3.17945   3.18344   3.19288   3.19486   3.20223
 Alpha virt. eigenvalues --    3.20900   3.21190   3.22528   3.22675   3.23840
 Alpha virt. eigenvalues --    3.24967   3.25069   3.26363   3.28458   3.32863
 Alpha virt. eigenvalues --    3.35010   3.36800   3.37422   3.39139   3.40728
 Alpha virt. eigenvalues --    3.40954   3.41854   3.43709   3.44715   3.45742
 Alpha virt. eigenvalues --    3.46634   3.48424   3.49054   3.49866   3.51018
 Alpha virt. eigenvalues --    3.51292   3.51543   3.52587   3.54006   3.54177
 Alpha virt. eigenvalues --    3.55836   3.56863   3.57553   3.58888   3.60063
 Alpha virt. eigenvalues --    3.60914   3.61509   3.61943   3.63292   3.65325
 Alpha virt. eigenvalues --    3.65953   3.66260   3.67285   3.68037   3.68930
 Alpha virt. eigenvalues --    3.69896   3.70852   3.71624   3.72427   3.73135
 Alpha virt. eigenvalues --    3.75259   3.76102   3.77086   3.78525   3.79027
 Alpha virt. eigenvalues --    3.80265   3.82165   3.82828   3.83593   3.84624
 Alpha virt. eigenvalues --    3.85155   3.86021   3.87028   3.87794   3.88067
 Alpha virt. eigenvalues --    3.88329   3.89206   3.89811   3.90062   3.90644
 Alpha virt. eigenvalues --    3.91791   3.93226   3.95056   4.02570   4.06412
 Alpha virt. eigenvalues --    4.18900   4.21997   4.22324   4.22445   4.25585
 Alpha virt. eigenvalues --    4.27335   4.32793   4.34336   4.35572   4.35863
 Alpha virt. eigenvalues --    4.37738   4.39599   4.42534   4.47362   4.49223
 Alpha virt. eigenvalues --    4.50157   4.50264   4.52123   4.61289   4.62854
 Alpha virt. eigenvalues --    4.64386   4.64955   4.70263   4.75645   4.77405
 Alpha virt. eigenvalues --    4.81392   4.84059   4.87350   4.87639   4.96102
 Alpha virt. eigenvalues --    4.97837   4.99854   5.02194   5.04412   9.48934
 Alpha virt. eigenvalues --    9.56857   9.59230   9.63612   9.66739   9.67689
 Alpha virt. eigenvalues --    9.72066   9.75125  22.99875  23.20763  23.21837
 Alpha virt. eigenvalues --   23.22475  23.39427  23.42797  23.45390  23.51592
 Alpha virt. eigenvalues --   23.53270  23.60711  23.62123  23.65588  23.67063
 Alpha virt. eigenvalues --   23.69155  23.71113  23.71619  23.73204  23.74846
 Alpha virt. eigenvalues --   23.75334  23.77410  23.78590  23.79933  23.81444
 Alpha virt. eigenvalues --   23.82007  23.83168  23.83830  23.85434  23.86912
 Alpha virt. eigenvalues --   23.88635  23.89327  23.90495  23.91750  23.92577
 Alpha virt. eigenvalues --   23.93507  23.94232  23.94866  23.95871  23.96249
 Alpha virt. eigenvalues --   23.96786  23.97340  23.98380  23.98549  23.99157
 Alpha virt. eigenvalues --   23.99450  23.99939  24.00561  24.01844  24.02464
 Alpha virt. eigenvalues --   24.02751  24.03432  24.06303  24.06585  24.07058
 Alpha virt. eigenvalues --   24.08011  24.08415  24.08985  24.09101  24.09573
 Alpha virt. eigenvalues --   24.10148  24.10982  24.12032  24.13480  24.13879
 Alpha virt. eigenvalues --   24.14378  24.15114  24.18557  25.53555  25.55521
 Alpha virt. eigenvalues --   25.60356  25.65250  25.65925  25.73922  25.74784
 Alpha virt. eigenvalues --   25.79560  25.80399  25.81961  25.86230  25.87497
 Alpha virt. eigenvalues --   25.92619  25.92841  25.98453  26.06212  26.11207
 Alpha virt. eigenvalues --   26.21308  26.26804  26.37638  26.41648  26.49044
 Alpha virt. eigenvalues --   26.53499  26.73963 215.43149 215.52409 215.54994
 Alpha virt. eigenvalues --  215.60171 215.63626 215.64849 215.69683 215.73108
          Condensed to atoms (all electrons):
 Mulliken charges:
               1
     1  C   -0.438842
     2  C   -0.152495
     3  C   -0.479416
     4  C    0.162583
     5  C    0.210670
     6  C    0.027400
     7  C    0.099233
     8  C    0.035497
     9  C    0.046472
    10  C   -0.542285
    11  C    0.186306
    12  C    0.186537
    13  C    0.247524
    14  C    0.258032
    15  C    0.145695
    16  C   -0.663814
    17  C    0.023374
    18  C    0.033942
    19  C    0.013721
    20  C    0.024646
    21  C    0.029480
    22  C   -0.013387
    23  C    0.006672
    24  C    0.001672
    25  C    0.169130
    26  C    0.032692
    27  C    0.273621
    28  C   -0.666871
    29  C    0.176148
    30  C    0.151607
    31  C   -0.675265
    32  C    0.161793
    33  C    0.022342
    34  C    0.182049
    35  C    0.000865
    36  C   -0.011343
    37  C   -0.005088
    38  C   -0.008213
    39  C   -0.000959
    40  C   -0.003029
    41  C   -0.000177
    42  C    0.000274
    43  C    0.004075
    44  C    0.044200
    45  C    0.155662
    46  C    0.000232
    47  C   -0.689671
    48  C    0.185143
    49  C    0.174289
    50  C    0.176089
    51  C    0.039880
    52  C    0.002487
    53  C    0.003284
    54  C    0.031520
    55  C    0.001532
    56  C   -0.000576
    57  C    0.001632
    58  C    0.001754
    59  C    0.003562
    60  C    0.004729
    61  C    0.002469
    62  C    0.036076
    63  C    0.036198
    64  C    0.001556
    65  C    0.001834
    66  C    0.000452
    67  Cl   0.055740
    68  Cl   0.101854
    69  Cl   0.073882
    70  Cl   0.058073
    71  Cl   0.050448
    72  Cl   0.047203
    73  Cl   0.055646
    74  Cl   0.089948
 Sum of Mulliken charges =  -0.00000
 Mulliken charges with hydrogens summed into heavy atoms:
               1
     1  C   -0.438842
     2  C   -0.152495
     3  C   -0.479416
     4  C    0.162583
     5  C    0.210670
     6  C    0.027400
     7  C    0.099233
     8  C    0.035497
     9  C    0.046472
    10  C   -0.542285
    11  C    0.186306
    12  C    0.186537
    13  C    0.247524
    14  C    0.258032
    15  C    0.145695
    16  C   -0.663814
    17  C    0.023374
    18  C    0.033942
    19  C    0.013721
    20  C    0.024646
    21  C    0.029480
    22  C   -0.013387
    23  C    0.006672
    24  C    0.001672
    25  C    0.169130
    26  C    0.032692
    27  C    0.273621
    28  C   -0.666871
    29  C    0.176148
    30  C    0.151607
    31  C   -0.675265
    32  C    0.161793
    33  C    0.022342
    34  C    0.182049
    35  C    0.000865
    36  C   -0.011343
    37  C   -0.005088
    38  C   -0.008213
    39  C   -0.000959
    40  C   -0.003029
    41  C   -0.000177
    42  C    0.000274
    43  C    0.004075
    44  C    0.044200
    45  C    0.155662
    46  C    0.000232
    47  C   -0.689671
    48  C    0.185143
    49  C    0.174289
    50  C    0.176089
    51  C    0.039880
    52  C    0.002487
    53  C    0.003284
    54  C    0.031520
    55  C    0.001532
    56  C   -0.000576
    57  C    0.001632
    58  C    0.001754
    59  C    0.003562
    60  C    0.004729
    61  C    0.002469
    62  C    0.036076
    63  C    0.036198
    64  C    0.001556
    65  C    0.001834
    66  C    0.000452
    67  Cl   0.055740
    68  Cl   0.101854
    69  Cl   0.073882
    70  Cl   0.058073
    71  Cl   0.050448
    72  Cl   0.047203
    73  Cl   0.055646
    74  Cl   0.089948
 Electronic spatial extent (au):  <R**2>=          35648.3985
 Charge=             -0.0000 electrons
 Dipole moment (field-independent basis, Debye):
    X=              4.3918    Y=             -2.8881    Z=             -2.6960  Tot=              5.9074
 Quadrupole moment (field-independent basis, Debye-Ang):
   XX=           -480.7386   YY=           -482.6615   ZZ=           -478.7412
   XY=             -1.1248   XZ=             -0.1746   YZ=             -3.4718
 Traceless Quadrupole moment (field-independent basis, Debye-Ang):
   XX=             -0.0248   YY=             -1.9477   ZZ=              1.9726
   XY=             -1.1248   XZ=             -0.1746   YZ=             -3.4718
 Octapole moment (field-independent basis, Debye-Ang**2):
  XXX=            -89.6792  YYY=             19.8036  ZZZ=             15.5270  XYY=            -41.9465
  XXY=             33.0734  XXZ=             28.1297  XZZ=            -43.5228  YZZ=             11.5099
  YYZ=             21.7097  XYZ=            -11.0868
 Hexadecapole moment (field-independent basis, Debye-Ang**3):
 XXXX=         -22455.0495 YYYY=         -15378.2183 ZZZZ=         -14156.5787 XXXY=             29.2217
 XXXZ=            -46.8114 YYYX=              7.0836 YYYZ=             53.8688 ZZZX=            -22.5651
 ZZZY=             35.6003 XXYY=          -6288.8815 XXZZ=          -6088.5290 YYZZ=          -4911.3372
 XXYZ=              7.8974 YYXZ=            -40.9259 ZZXY=             -1.2710
 N-N= 1.536239943807D+04 E-N=-4.530196913968D+04  KE= 6.178391003574D+03
 No NMR shielding tensors so no spin-rotation constants.
 Leave Link  601 at Thu Jul 14 21:42:42 2022, MaxMem=  1342177280 cpu:              62.9 elap:               1.6
 (Enter /home/mkliu/g16/l9999.exe)
 1\1\GINC-NODE04\FOpt\RB3LYP\6-311G(d,p)\C66Cl8\MKLIU\14-Jul-2022\0\\#P
  opt b3lyp/6-311G(d, p) empiricaldispersion=GD3\\force\\0,1\C,-1.32459
 37412,1.8509469079,-3.8893604204\C,0.1888021766,2.2724056596,-4.113764
 5658\C,0.9454199093,0.8579438008,-4.3027362248\C,-1.348545097,0.350503
 4667,-3.9706874309\C,-0.1157050476,-0.2044774945,-4.2278249611\C,-2.21
 52272632,-0.1849164903,-3.0060397198\C,-1.922340946,2.0612605607,-2.52
 51966698\C,-2.6503792909,0.9190469102,-2.1558666509\C,-1.4207565776,2.
 9395478307,-1.5506869215\C,0.8765987321,2.9306408489,-2.8014392938\C,-
 0.0154351348,3.2979629875,-1.6031976307\C,1.7694600898,0.6947765656,-3
 .0522006439\C,1.8076473133,1.8418227235,-2.2902298285\C,2.1535455031,-
 0.5437971593,-2.5202467045\C,0.1729148619,-1.4487111114,-3.6802052587\
 C,1.5729655957,-1.8076312567,-3.1779778563\C,-1.9877918668,-1.45139336
 45,-2.4423764587\C,-0.7917626406,-2.1085363338,-2.8937394952\C,-2.5057
 585256,-1.7464612236,-1.1004965855\C,-3.0946927338,0.6935441233,-0.833
 7467188\C,-3.1148179918,-0.670826201,-0.305520845\C,-2.0753905185,2.87
 40115835,-0.2932632458\C,-2.9610038834,1.7942602225,0.0419278058\C,-1.
 416641007,3.2831411748,0.9106227584\C,0.644315186,3.5084658223,-0.4083
 107555\C,-0.0528415237,3.5438778576,0.8443180498\C,2.3682793837,1.8315
 06992,-1.0103313138\C,2.0901701988,3.043430725,-0.1335795706\C,2.76930
 00089,-0.5718723688,-1.2569162487\C,2.9074266853,0.6317861666,-0.51040
 26376\C,3.1072290748,-1.9313372324,-0.6242237431\C,1.2767433999,-2.831
 1577849,-2.1088474402\C,-0.1304268909,-3.0648428783,-2.0431203715\C,2.
 0279484219,-2.9473180138,-0.9770929023\C,-1.9611573226,-2.8509922753,-
 0.4153132816\C,-0.732672555,-3.4882640129,-0.8771188235\C,-1.954132024
 8,-2.9262895995,1.0182847349\C,-3.1729870378,-0.8147415043,1.099224412
 2\C,-2.5664440272,-1.9324761823,1.7668601848\C,-2.9190018843,1.6055843
 729,1.470162436\C,-1.9567992894,2.5306685248,2.0237712851\C,-3.0474424
 525,0.3314988993,1.9897173323\C,-1.139195048,2.1287333652,3.0738433852
 \C,0.8075024546,3.0844024726,1.9096173641\C,2.0345446201,2.654438268,1
 .3223657764\C,0.2806629016,2.4219496008,3.0202839045\C,3.4555874545,0.
 6018470495,0.9197126402\C,2.6936896708,1.5685976067,1.8138809458\C,2.9
 991099643,-1.8804986289,0.8886208026\C,3.176481733,-0.7283480278,1.594
 8835982\C,1.4422345724,-3.4756114048,0.2146726507\C,0.0774162062,-3.79
 27887559,0.2640193669\C,-0.687407664,-3.4877571837,1.4520843681\C,2.07
 41124236,-2.8689835985,1.3597386555\C,-0.0616947655,-2.9823480678,2.58
 49077395\C,1.3568238565,-2.673529213,2.5430088733\C,-1.962172346,-1.46
 97696564,3.001903081\C,-2.260928973,-0.064343726,3.1382768043\C,-1.300
 4003523,0.8126674991,3.6558899865\C,-0.7146832256,-1.9641740722,3.3861
 123572\C,0.9905291365,1.3003477022,3.5698150468\C,2.1753298462,0.88322
 18996,2.9590567355\C,2.4710385754,-0.5231519956,2.8249795336\C,1.57347
 07838,-1.4780415723,3.3063991791\C,0.015519272,0.3078373264,3.99327026
 83\C,0.3006924389,-1.0476638706,3.8628595367\Cl,-2.5409136732,2.583286
 6082,-5.0610327305\Cl,0.3484130549,3.2999110008,-5.5597070299\Cl,2.011
 3720573,0.7145842815,-5.7627018306\Cl,2.6933706359,-2.4991456943,-4.45
 37220136\Cl,4.7896857265,-2.4473323308,-1.1685684994\Cl,5.2620637224,0
 .9801739028,0.8673125296\Cl,3.398602244,4.3331569836,-0.3075501447\Cl,
 1.8377517473,4.4281605999,-3.2348228301\\Version=ES64L-G16RevA.03\Stat
 e=1-A\HF=-6197.2418745\RMSD=6.355e-09\RMSF=2.715e-05\Dipole=-1.6114469
 ,-0.7593764,1.4927613\Quadrupole=-2.7527235,2.0255525,0.727171,1.16076
 18,-0.3954413,1.3764286\PG=C01 [X(C66Cl8)]\\@


 WERE I TO AWAIT PERFECTION, MY BOOK WOULD NEVER BE FINISHED.
                                    -- HISTORY OF CHINESE WRITING

                                       TAI T'UNG, 13TH CENTURY
 Job cpu time:       3 days  2 hours 37 minutes 13.8 seconds.
 Elapsed time:       0 days  1 hours 33 minutes 29.8 seconds.
 File lengths (MBytes):  RWF=   1193 Int=      0 D2E=      0 Chk=    146 Scr=      1
 Normal termination of Gaussian 16 at Thu Jul 14 21:42:44 2022.
