 Entering Gaussian System, Link 0=g16
 Input=dn2vozydavm68_addon_7.gjf
 Output=dn2vozydavm68_addon_7.log
 Initial command:
 /home/mkliu/g16/l1.exe "/data/scratch/Gau-36632.inp" -scrdir="/data/scratch/"
 Entering Link 1 = /home/mkliu/g16/l1.exe PID=     36633.
  
 Copyright (c) 1988,1990,1992,1993,1995,1998,2003,2009,2016,
            Gaussian, Inc.  All Rights Reserved.
  
 This is part of the Gaussian(R) 16 program.  It is based on
 the Gaussian(R) 09 system (copyright 2009, Gaussian, Inc.),
 the Gaussian(R) 03 system (copyright 2003, Gaussian, Inc.),
 the Gaussian(R) 98 system (copyright 1998, Gaussian, Inc.),
 the Gaussian(R) 94 system (copyright 1995, Gaussian, Inc.),
 the Gaussian 92(TM) system (copyright 1992, Gaussian, Inc.),
 the Gaussian 90(TM) system (copyright 1990, Gaussian, Inc.),
 the Gaussian 88(TM) system (copyright 1988, Gaussian, Inc.),
 the Gaussian 86(TM) system (copyright 1986, Carnegie Mellon
 University), and the Gaussian 82(TM) system (copyright 1983,
 Carnegie Mellon University). Gaussian is a federally registered
 trademark of Gaussian, Inc.
  
 This software contains proprietary and confidential information,
 including trade secrets, belonging to Gaussian, Inc.
  
 This software is provided under written license and may be
 used, copied, transmitted, or stored only in accord with that
 written license.
  
 The following legend is applicable only to US Government
 contracts under FAR:
  
                    RESTRICTED RIGHTS LEGEND
  
 Use, reproduction and disclosure by the US Government is
 subject to restrictions as set forth in subparagraphs (a)
 and (c) of the Commercial Computer Software - Restricted
 Rights clause in FAR 52.227-19.
  
 Gaussian, Inc.
 340 Quinnipiac St., Bldg. 40, Wallingford CT 06492
  
  
 ---------------------------------------------------------------
 Warning -- This program may not be used in any manner that
 competes with the business of Gaussian, Inc. or will provide
 assistance to any competitor of Gaussian, Inc.  The licensee
 of this program is prohibited from giving any competitor of
 Gaussian, Inc. access to this program.  By using this program,
 the user acknowledges that Gaussian, Inc. is engaged in the
 business of creating and licensing software in the field of
 computational chemistry and represents and warrants to the
 licensee that it is not a competitor of Gaussian, Inc. and that
 it will not use this program in any manner prohibited above.
 ---------------------------------------------------------------
  

 Cite this work as:
 Gaussian 16, Revision A.03,
 M. J. Frisch, G. W. Trucks, H. B. Schlegel, G. E. Scuseria, 
 M. A. Robb, J. R. Cheeseman, G. Scalmani, V. Barone, 
 G. A. Petersson, H. Nakatsuji, X. Li, M. Caricato, A. V. Marenich, 
 J. Bloino, B. G. Janesko, R. Gomperts, B. Mennucci, H. P. Hratchian, 
 J. V. Ortiz, A. F. Izmaylov, J. L. Sonnenberg, D. Williams-Young, 
 F. Ding, F. Lipparini, F. Egidi, J. Goings, B. Peng, A. Petrone, 
 T. Henderson, D. Ranasinghe, V. G. Zakrzewski, J. Gao, N. Rega, 
 G. Zheng, W. Liang, M. Hada, M. Ehara, K. Toyota, R. Fukuda, 
 J. Hasegawa, M. Ishida, T. Nakajima, Y. Honda, O. Kitao, H. Nakai, 
 T. Vreven, K. Throssell, J. A. Montgomery, Jr., J. E. Peralta, 
 F. Ogliaro, M. J. Bearpark, J. J. Heyd, E. N. Brothers, K. N. Kudin, 
 V. N. Staroverov, T. A. Keith, R. Kobayashi, J. Normand, 
 K. Raghavachari, A. P. Rendell, J. C. Burant, S. S. Iyengar, 
 J. Tomasi, M. Cossi, J. M. Millam, M. Klene, C. Adamo, R. Cammi, 
 J. W. Ochterski, R. L. Martin, K. Morokuma, O. Farkas, 
 J. B. Foresman, and D. J. Fox, Gaussian, Inc., Wallingford CT, 2016.
 
 ******************************************
 Gaussian 16:  ES64L-G16RevA.03 25-Dec-2016
                15-Jul-2022 
 ******************************************
 %mem=10GB
 %chk=dn2vozydavm68_addon_7.chk
 %nprocshared=48
 Will use up to   48 processors via shared memory.
 -------------------------------------------------
 #P opt b3lyp/6-311G(d, p) empiricaldispersion=GD3
 -------------------------------------------------
 1/18=20,19=15,26=3,38=1/1,3;
 2/9=110,12=2,17=6,18=5,40=1/2;
 3/5=4,6=6,7=101,11=2,25=1,30=1,71=1,74=-5,124=31/1,2,3;
 4//1;
 5/5=2,38=5/2;
 6/7=2,8=2,9=2,10=2,28=1/1;
 7//1,2,3,16;
 1/18=20,19=15,26=3/3(2);
 2/9=110/2;
 99//99;
 2/9=110/2;
 3/5=4,6=6,7=101,11=2,25=1,30=1,71=1,74=-5,124=31/1,2,3;
 4/5=5,16=3,69=1/1;
 5/5=2,38=5/2;
 7//1,2,3,16;
 1/18=20,19=15,26=3/3(-5);
 2/9=110/2;
 6/7=2,8=2,9=2,10=2,19=2,28=1/1;
 99/9=1/99;
 Leave Link    1 at Fri Jul 15 06:19:27 2022, MaxMem=  1342177280 cpu:               2.2 elap:               0.1
 (Enter /home/mkliu/g16/l101.exe)
 -----
 force
 -----
 Symbolic Z-matrix:
 Charge =  0 Multiplicity = 2
 C                    -1.2976    1.87172  -3.87209 
 C                     0.2128    2.27087  -4.05528 
 C                     0.95124   0.89711  -4.27268 
 C                    -1.30531   0.37383  -3.89753 
 C                    -0.076    -0.17001  -4.15005 
 C                    -2.16133  -0.15649  -2.94375 
 C                    -1.95013   2.09101  -2.54534 
 C                    -2.62118   0.93848  -2.12808 
 C                    -1.40895   2.92653  -1.55235 
 C                     0.8634    2.89194  -2.7729 
 C                    -0.0313    3.2569   -1.61973 
 C                     1.76273   0.67469  -3.0295 
 C                     1.77985   1.81083  -2.25835 
 C                     2.14673  -0.56202  -2.51156 
 C                     0.20509  -1.40861  -3.60128 
 C                     1.59639  -1.81678  -3.16632 
 C                    -1.94085  -1.42252  -2.37844 
 C                    -0.75498  -2.06448  -2.81949 
 C                    -2.49055  -1.72601  -1.07393 
 C                    -3.08554   0.69349  -0.8138 
 C                    -3.10154  -0.65953  -0.29603 
 C                    -2.04986   2.8464   -0.29581 
 C                    -2.92426   1.78541   0.0481 
 C                    -1.4068    3.26614   0.90411 
 C                     0.62828   3.45241  -0.40273 
 C                    -0.06401   3.55828   0.86028 
 C                     2.30836   1.77525  -0.97728 
 C                     1.8928    2.83889  -0.10081 
 C                     2.77797  -0.60562  -1.25875 
 C                     2.89029   0.5795   -0.52197 
 C                     3.12865  -1.94653  -0.63176 
 C                     1.29841  -2.82293  -2.0965 
 C                    -0.10945  -3.03202  -2.00276 
 C                     2.04331  -2.93624  -0.96788 
 C                    -1.9455   -2.82297  -0.39319 
 C                    -0.72465  -3.44191  -0.84847 
 C                    -1.95271  -2.90624   1.03484 
 C                    -3.16178  -0.8022    1.1002 
 C                    -2.56468  -1.91825   1.77303 
 C                    -2.90379   1.60301   1.46616 
 C                    -1.95654   2.53076   2.01319 
 C                    -3.04378   0.33287   1.98385 
 C                    -1.13686   2.12332   3.04633 
 C                     0.80392   3.09928   1.90989 
 C                     2.03049   2.64893   1.30114 
 C                     0.27754   2.41446   2.98525 
 C                     3.45103   0.58391   0.88736 
 C                     2.70312   1.53767   1.78027 
 C                     3.01349  -1.8845    0.86788 
 C                     3.17805  -0.72939   1.56048 
 C                     1.4474   -3.46676   0.21865 
 C                     0.09034  -3.75405   0.27619 
 C                    -0.6854   -3.45643   1.44494 
 C                     2.078    -2.85965   1.34592 
 C                    -0.06086  -2.9438    2.56402 
 C                     1.34333  -2.63966   2.50067 
 C                    -1.96593  -1.45755   2.99533 
 C                    -2.25775  -0.05461   3.12138 
 C                    -1.30069   0.81678   3.61419 
 C                    -0.72167  -1.93884   3.35723 
 C                     0.98513   1.29039   3.51601 
 C                     2.17787   0.87879   2.91367 
 C                     2.46347  -0.52288   2.7813 
 C                     1.55406  -1.44648   3.24997 
 C                     0.01733   0.31995   3.9327 
 C                     0.2945   -1.0301    3.80742 
 Cl                   -2.36077   2.59326  -5.12646 
 Cl                    0.42435   3.32297  -5.474 
 Cl                    1.96001   0.77102  -5.72507 
 Cl                    2.69315  -2.43461  -4.44352 
 Cl                    4.7714   -2.41871  -1.2071 
 Cl                    5.22458   0.95405   0.74241 
 Cl                    1.84904   4.37182  -3.15845 
 
 ITRead=  0  0  0  0  0  0  0  0  0  0  0  0  0  0  0  0  0  0  0  0
 ITRead=  0  0  0  0  0  0  0  0  0  0  0  0  0  0  0  0  0  0  0  0
 ITRead=  0  0  0  0  0  0  0  0  0  0  0  0  0  0  0  0  0  0  0  0
 ITRead=  0  0  0  0  0  0  0  0  0  0  0  0  0
 MicOpt= -1 -1 -1 -1 -1 -1 -1 -1 -1 -1 -1 -1 -1 -1 -1 -1 -1 -1 -1 -1
 MicOpt= -1 -1 -1 -1 -1 -1 -1 -1 -1 -1 -1 -1 -1 -1 -1 -1 -1 -1 -1 -1
 MicOpt= -1 -1 -1 -1 -1 -1 -1 -1 -1 -1 -1 -1 -1 -1 -1 -1 -1 -1 -1 -1
 MicOpt= -1 -1 -1 -1 -1 -1 -1 -1 -1 -1 -1 -1 -1
 NAtoms=     73 NQM=       73 NQMF=       0 NMMI=      0 NMMIF=      0
                NMic=       0 NMicF=      0.
                    Isotopes and Nuclear Properties:
 (Nuclear quadrupole moments (NQMom) in fm**2, nuclear magnetic moments (NMagM)
  in nuclear magnetons)

  Atom         1           2           3           4           5           6           7           8           9          10
 IAtWgt=          12          12          12          12          12          12          12          12          12          12
 AtmWgt=  12.0000000  12.0000000  12.0000000  12.0000000  12.0000000  12.0000000  12.0000000  12.0000000  12.0000000  12.0000000
 NucSpn=           0           0           0           0           0           0           0           0           0           0
 AtZEff=  -0.0000000  -0.0000000  -0.0000000  -0.0000000  -0.0000000  -0.0000000  -0.0000000  -0.0000000  -0.0000000  -0.0000000
 NQMom=    0.0000000   0.0000000   0.0000000   0.0000000   0.0000000   0.0000000   0.0000000   0.0000000   0.0000000   0.0000000
 NMagM=    0.0000000   0.0000000   0.0000000   0.0000000   0.0000000   0.0000000   0.0000000   0.0000000   0.0000000   0.0000000
 AtZNuc=   6.0000000   6.0000000   6.0000000   6.0000000   6.0000000   6.0000000   6.0000000   6.0000000   6.0000000   6.0000000

  Atom        11          12          13          14          15          16          17          18          19          20
 IAtWgt=          12          12          12          12          12          12          12          12          12          12
 AtmWgt=  12.0000000  12.0000000  12.0000000  12.0000000  12.0000000  12.0000000  12.0000000  12.0000000  12.0000000  12.0000000
 NucSpn=           0           0           0           0           0           0           0           0           0           0
 AtZEff=  -0.0000000  -0.0000000  -0.0000000  -0.0000000  -0.0000000  -0.0000000  -0.0000000  -0.0000000  -0.0000000  -0.0000000
 NQMom=    0.0000000   0.0000000   0.0000000   0.0000000   0.0000000   0.0000000   0.0000000   0.0000000   0.0000000   0.0000000
 NMagM=    0.0000000   0.0000000   0.0000000   0.0000000   0.0000000   0.0000000   0.0000000   0.0000000   0.0000000   0.0000000
 AtZNuc=   6.0000000   6.0000000   6.0000000   6.0000000   6.0000000   6.0000000   6.0000000   6.0000000   6.0000000   6.0000000

  Atom        21          22          23          24          25          26          27          28          29          30
 IAtWgt=          12          12          12          12          12          12          12          12          12          12
 AtmWgt=  12.0000000  12.0000000  12.0000000  12.0000000  12.0000000  12.0000000  12.0000000  12.0000000  12.0000000  12.0000000
 NucSpn=           0           0           0           0           0           0           0           0           0           0
 AtZEff=  -0.0000000  -0.0000000  -0.0000000  -0.0000000  -0.0000000  -0.0000000  -0.0000000  -0.0000000  -0.0000000  -0.0000000
 NQMom=    0.0000000   0.0000000   0.0000000   0.0000000   0.0000000   0.0000000   0.0000000   0.0000000   0.0000000   0.0000000
 NMagM=    0.0000000   0.0000000   0.0000000   0.0000000   0.0000000   0.0000000   0.0000000   0.0000000   0.0000000   0.0000000
 AtZNuc=   6.0000000   6.0000000   6.0000000   6.0000000   6.0000000   6.0000000   6.0000000   6.0000000   6.0000000   6.0000000

  Atom        31          32          33          34          35          36          37          38          39          40
 IAtWgt=          12          12          12          12          12          12          12          12          12          12
 AtmWgt=  12.0000000  12.0000000  12.0000000  12.0000000  12.0000000  12.0000000  12.0000000  12.0000000  12.0000000  12.0000000
 NucSpn=           0           0           0           0           0           0           0           0           0           0
 AtZEff=  -0.0000000  -0.0000000  -0.0000000  -0.0000000  -0.0000000  -0.0000000  -0.0000000  -0.0000000  -0.0000000  -0.0000000
 NQMom=    0.0000000   0.0000000   0.0000000   0.0000000   0.0000000   0.0000000   0.0000000   0.0000000   0.0000000   0.0000000
 NMagM=    0.0000000   0.0000000   0.0000000   0.0000000   0.0000000   0.0000000   0.0000000   0.0000000   0.0000000   0.0000000
 AtZNuc=   6.0000000   6.0000000   6.0000000   6.0000000   6.0000000   6.0000000   6.0000000   6.0000000   6.0000000   6.0000000

  Atom        41          42          43          44          45          46          47          48          49          50
 IAtWgt=          12          12          12          12          12          12          12          12          12          12
 AtmWgt=  12.0000000  12.0000000  12.0000000  12.0000000  12.0000000  12.0000000  12.0000000  12.0000000  12.0000000  12.0000000
 NucSpn=           0           0           0           0           0           0           0           0           0           0
 AtZEff=  -0.0000000  -0.0000000  -0.0000000  -0.0000000  -0.0000000  -0.0000000  -0.0000000  -0.0000000  -0.0000000  -0.0000000
 NQMom=    0.0000000   0.0000000   0.0000000   0.0000000   0.0000000   0.0000000   0.0000000   0.0000000   0.0000000   0.0000000
 NMagM=    0.0000000   0.0000000   0.0000000   0.0000000   0.0000000   0.0000000   0.0000000   0.0000000   0.0000000   0.0000000
 AtZNuc=   6.0000000   6.0000000   6.0000000   6.0000000   6.0000000   6.0000000   6.0000000   6.0000000   6.0000000   6.0000000

  Atom        51          52          53          54          55          56          57          58          59          60
 IAtWgt=          12          12          12          12          12          12          12          12          12          12
 AtmWgt=  12.0000000  12.0000000  12.0000000  12.0000000  12.0000000  12.0000000  12.0000000  12.0000000  12.0000000  12.0000000
 NucSpn=           0           0           0           0           0           0           0           0           0           0
 AtZEff=  -0.0000000  -0.0000000  -0.0000000  -0.0000000  -0.0000000  -0.0000000  -0.0000000  -0.0000000  -0.0000000  -0.0000000
 NQMom=    0.0000000   0.0000000   0.0000000   0.0000000   0.0000000   0.0000000   0.0000000   0.0000000   0.0000000   0.0000000
 NMagM=    0.0000000   0.0000000   0.0000000   0.0000000   0.0000000   0.0000000   0.0000000   0.0000000   0.0000000   0.0000000
 AtZNuc=   6.0000000   6.0000000   6.0000000   6.0000000   6.0000000   6.0000000   6.0000000   6.0000000   6.0000000   6.0000000

  Atom        61          62          63          64          65          66          67          68          69          70
 IAtWgt=          12          12          12          12          12          12          35          35          35          35
 AtmWgt=  12.0000000  12.0000000  12.0000000  12.0000000  12.0000000  12.0000000  34.9688527  34.9688527  34.9688527  34.9688527
 NucSpn=           0           0           0           0           0           0           3           3           3           3
 AtZEff=  -0.0000000  -0.0000000  -0.0000000  -0.0000000  -0.0000000  -0.0000000  -0.0000000  -0.0000000  -0.0000000  -0.0000000
 NQMom=    0.0000000   0.0000000   0.0000000   0.0000000   0.0000000   0.0000000  -8.1650000  -8.1650000  -8.1650000  -8.1650000
 NMagM=    0.0000000   0.0000000   0.0000000   0.0000000   0.0000000   0.0000000   0.8218740   0.8218740   0.8218740   0.8218740
 AtZNuc=   6.0000000   6.0000000   6.0000000   6.0000000   6.0000000   6.0000000  17.0000000  17.0000000  17.0000000  17.0000000

  Atom        71          72          73
 IAtWgt=          35          35          35
 AtmWgt=  34.9688527  34.9688527  34.9688527
 NucSpn=           3           3           3
 AtZEff=  -0.0000000  -0.0000000  -0.0000000
 NQMom=   -8.1650000  -8.1650000  -8.1650000
 NMagM=    0.8218740   0.8218740   0.8218740
 AtZNuc=  17.0000000  17.0000000  17.0000000
 Leave Link  101 at Fri Jul 15 06:19:27 2022, MaxMem=  1342177280 cpu:              12.9 elap:               0.3
 (Enter /home/mkliu/g16/l103.exe)

 GradGradGradGradGradGradGradGradGradGradGradGradGradGradGradGradGradGrad
 Berny optimization.
 Initialization pass.
                           ----------------------------
                           !    Initial Parameters    !
                           ! (Angstroms and Degrees)  !
 --------------------------                            --------------------------
 ! Name  Definition              Value          Derivative Info.                !
 --------------------------------------------------------------------------------
 ! R1    R(1,2)                  1.573          estimate D2E/DX2                !
 ! R2    R(1,4)                  1.4981         estimate D2E/DX2                !
 ! R3    R(1,7)                  1.4947         estimate D2E/DX2                !
 ! R4    R(1,67)                 1.7957         estimate D2E/DX2                !
 ! R5    R(2,3)                  1.5747         estimate D2E/DX2                !
 ! R6    R(2,10)                 1.5664         estimate D2E/DX2                !
 ! R7    R(2,68)                 1.7789         estimate D2E/DX2                !
 ! R8    R(3,5)                  1.4863         estimate D2E/DX2                !
 ! R9    R(3,12)                 1.5012         estimate D2E/DX2                !
 ! R10   R(3,69)                 1.7728         estimate D2E/DX2                !
 ! R11   R(4,5)                  1.3677         estimate D2E/DX2                !
 ! R12   R(4,6)                  1.387          estimate D2E/DX2                !
 ! R13   R(5,15)                 1.3836         estimate D2E/DX2                !
 ! R14   R(6,8)                  1.4407         estimate D2E/DX2                !
 ! R15   R(6,17)                 1.4039         estimate D2E/DX2                !
 ! R16   R(7,8)                  1.3974         estimate D2E/DX2                !
 ! R17   R(7,9)                  1.4061         estimate D2E/DX2                !
 ! R18   R(8,20)                 1.4153         estimate D2E/DX2                !
 ! R19   R(9,11)                 1.4183         estimate D2E/DX2                !
 ! R20   R(9,22)                 1.4128         estimate D2E/DX2                !
 ! R21   R(10,11)                1.5045         estimate D2E/DX2                !
 ! R22   R(10,13)                1.5078         estimate D2E/DX2                !
 ! R23   R(10,73)                1.8194         estimate D2E/DX2                !
 ! R24   R(11,25)                1.398          estimate D2E/DX2                !
 ! R25   R(12,13)                1.3732         estimate D2E/DX2                !
 ! R26   R(12,14)                1.3947         estimate D2E/DX2                !
 ! R27   R(13,27)                1.3863         estimate D2E/DX2                !
 ! R28   R(14,16)                1.5186         estimate D2E/DX2                !
 ! R29   R(14,29)                1.4035         estimate D2E/DX2                !
 ! R30   R(15,16)                1.5138         estimate D2E/DX2                !
 ! R31   R(15,18)                1.4011         estimate D2E/DX2                !
 ! R32   R(16,32)                1.4985         estimate D2E/DX2                !
 ! R33   R(16,70)                1.7933         estimate D2E/DX2                !
 ! R34   R(17,18)                1.4188         estimate D2E/DX2                !
 ! R35   R(17,19)                1.4478         estimate D2E/DX2                !
 ! R36   R(18,33)                1.4212         estimate D2E/DX2                !
 ! R37   R(19,21)                1.4546         estimate D2E/DX2                !
 ! R38   R(19,35)                1.4014         estimate D2E/DX2                !
 ! R39   R(20,21)                1.4488         estimate D2E/DX2                !
 ! R40   R(20,23)                1.4004         estimate D2E/DX2                !
 ! R41   R(21,38)                1.4048         estimate D2E/DX2                !
 ! R42   R(22,23)                1.4172         estimate D2E/DX2                !
 ! R43   R(22,24)                1.4246         estimate D2E/DX2                !
 ! R44   R(23,40)                1.4299         estimate D2E/DX2                !
 ! R45   R(24,26)                1.3749         estimate D2E/DX2                !
 ! R46   R(24,41)                1.4398         estimate D2E/DX2                !
 ! R47   R(25,26)                1.4442         estimate D2E/DX2                !
 ! R48   R(25,28)                1.4376         estimate D2E/DX2                !
 ! R49   R(26,44)                1.4372         estimate D2E/DX2                !
 ! R50   R(27,28)                1.4395         estimate D2E/DX2                !
 ! R51   R(27,30)                1.4056         estimate D2E/DX2                !
 ! R52   R(28,45)                1.4215         estimate D2E/DX2                !
 ! R53   R(29,30)                1.4            estimate D2E/DX2                !
 ! R54   R(29,31)                1.5212         estimate D2E/DX2                !
 ! R55   R(30,47)                1.5168         estimate D2E/DX2                !
 ! R56   R(31,34)                1.5068         estimate D2E/DX2                !
 ! R57   R(31,49)                1.5053         estimate D2E/DX2                !
 ! R58   R(31,71)                1.8035         estimate D2E/DX2                !
 ! R59   R(32,33)                1.4264         estimate D2E/DX2                !
 ! R60   R(32,34)                1.357          estimate D2E/DX2                !
 ! R61   R(33,36)                1.3707         estimate D2E/DX2                !
 ! R62   R(34,51)                1.4298         estimate D2E/DX2                !
 ! R63   R(35,36)                1.4425         estimate D2E/DX2                !
 ! R64   R(35,37)                1.4305         estimate D2E/DX2                !
 ! R65   R(36,52)                1.4236         estimate D2E/DX2                !
 ! R66   R(37,39)                1.3768         estimate D2E/DX2                !
 ! R67   R(37,53)                1.4412         estimate D2E/DX2                !
 ! R68   R(38,39)                1.4335         estimate D2E/DX2                !
 ! R69   R(38,42)                1.4433         estimate D2E/DX2                !
 ! R70   R(39,57)                1.4369         estimate D2E/DX2                !
 ! R71   R(40,41)                1.4343         estimate D2E/DX2                !
 ! R72   R(40,42)                1.3787         estimate D2E/DX2                !
 ! R73   R(41,43)                1.3803         estimate D2E/DX2                !
 ! R74   R(42,58)                1.436          estimate D2E/DX2                !
 ! R75   R(43,46)                1.4454         estimate D2E/DX2                !
 ! R76   R(43,59)                1.434          estimate D2E/DX2                !
 ! R77   R(44,45)                1.4415         estimate D2E/DX2                !
 ! R78   R(44,46)                1.3793         estimate D2E/DX2                !
 ! R79   R(45,48)                1.3845         estimate D2E/DX2                !
 ! R80   R(46,61)                1.4304         estimate D2E/DX2                !
 ! R81   R(47,48)                1.5054         estimate D2E/DX2                !
 ! R82   R(47,50)                1.5008         estimate D2E/DX2                !
 ! R83   R(47,72)                1.8176         estimate D2E/DX2                !
 ! R84   R(48,62)                1.4123         estimate D2E/DX2                !
 ! R85   R(49,50)                1.3569         estimate D2E/DX2                !
 ! R86   R(49,54)                1.4334         estimate D2E/DX2                !
 ! R87   R(50,63)                1.4296         estimate D2E/DX2                !
 ! R88   R(51,52)                1.3883         estimate D2E/DX2                !
 ! R89   R(51,54)                1.4272         estimate D2E/DX2                !
 ! R90   R(52,53)                1.434          estimate D2E/DX2                !
 ! R91   R(53,55)                1.3803         estimate D2E/DX2                !
 ! R92   R(54,56)                1.3862         estimate D2E/DX2                !
 ! R93   R(55,56)                1.4381         estimate D2E/DX2                !
 ! R94   R(55,60)                1.4408         estimate D2E/DX2                !
 ! R95   R(56,64)                1.4246         estimate D2E/DX2                !
 ! R96   R(57,58)                1.4385         estimate D2E/DX2                !
 ! R97   R(57,60)                1.3823         estimate D2E/DX2                !
 ! R98   R(58,59)                1.385          estimate D2E/DX2                !
 ! R99   R(59,65)                1.4441         estimate D2E/DX2                !
 ! R100  R(60,66)                1.4356         estimate D2E/DX2                !
 ! R101  R(61,62)                1.3982         estimate D2E/DX2                !
 ! R102  R(61,65)                1.4325         estimate D2E/DX2                !
 ! R103  R(62,63)                1.4366         estimate D2E/DX2                !
 ! R104  R(63,64)                1.3783         estimate D2E/DX2                !
 ! R105  R(64,66)                1.439          estimate D2E/DX2                !
 ! R106  R(65,66)                1.3839         estimate D2E/DX2                !
 ! A1    A(2,1,4)              104.873          estimate D2E/DX2                !
 ! A2    A(2,1,7)              119.0349         estimate D2E/DX2                !
 ! A3    A(2,1,67)             112.6565         estimate D2E/DX2                !
 ! A4    A(4,1,7)               99.1789         estimate D2E/DX2                !
 ! A5    A(4,1,67)             112.7592         estimate D2E/DX2                !
 ! A6    A(7,1,67)             107.6158         estimate D2E/DX2                !
 ! A7    A(1,2,3)              104.1811         estimate D2E/DX2                !
 ! A8    A(1,2,10)             113.835          estimate D2E/DX2                !
 ! A9    A(1,2,68)             110.9255         estimate D2E/DX2                !
 ! A10   A(3,2,10)             105.3166         estimate D2E/DX2                !
 ! A11   A(3,2,68)             110.4931         estimate D2E/DX2                !
 ! A12   A(10,2,68)            111.6562         estimate D2E/DX2                !
 ! A13   A(2,3,5)              106.9095         estimate D2E/DX2                !
 ! A14   A(2,3,12)             105.5703         estimate D2E/DX2                !
 ! A15   A(2,3,69)             116.2298         estimate D2E/DX2                !
 ! A16   A(5,3,12)             101.4734         estimate D2E/DX2                !
 ! A17   A(5,3,69)             114.1925         estimate D2E/DX2                !
 ! A18   A(12,3,69)            111.12           estimate D2E/DX2                !
 ! A19   A(1,4,5)              113.3329         estimate D2E/DX2                !
 ! A20   A(1,4,6)              111.9499         estimate D2E/DX2                !
 ! A21   A(5,4,6)              121.981          estimate D2E/DX2                !
 ! A22   A(3,5,4)              110.5451         estimate D2E/DX2                !
 ! A23   A(3,5,15)             122.3477         estimate D2E/DX2                !
 ! A24   A(4,5,15)             117.7318         estimate D2E/DX2                !
 ! A25   A(4,6,8)              107.2002         estimate D2E/DX2                !
 ! A26   A(4,6,17)             121.6529         estimate D2E/DX2                !
 ! A27   A(8,6,17)             120.4984         estimate D2E/DX2                !
 ! A28   A(1,7,8)              110.7126         estimate D2E/DX2                !
 ! A29   A(1,7,9)              123.0941         estimate D2E/DX2                !
 ! A30   A(8,7,9)              117.649          estimate D2E/DX2                !
 ! A31   A(6,8,7)              107.7285         estimate D2E/DX2                !
 ! A32   A(6,8,20)             119.9275         estimate D2E/DX2                !
 ! A33   A(7,8,20)             125.2837         estimate D2E/DX2                !
 ! A34   A(7,9,11)             118.602          estimate D2E/DX2                !
 ! A35   A(7,9,22)             114.8214         estimate D2E/DX2                !
 ! A36   A(11,9,22)            119.7423         estimate D2E/DX2                !
 ! A37   A(2,10,11)            118.47           estimate D2E/DX2                !
 ! A38   A(2,10,13)            104.3322         estimate D2E/DX2                !
 ! A39   A(2,10,73)            111.9649         estimate D2E/DX2                !
 ! A40   A(11,10,13)           105.8916         estimate D2E/DX2                !
 ! A41   A(11,10,73)           106.6953         estimate D2E/DX2                !
 ! A42   A(13,10,73)           109.0418         estimate D2E/DX2                !
 ! A43   A(9,11,10)            123.8866         estimate D2E/DX2                !
 ! A44   A(9,11,25)            116.7117         estimate D2E/DX2                !
 ! A45   A(10,11,25)           114.8727         estimate D2E/DX2                !
 ! A46   A(3,12,13)            110.4385         estimate D2E/DX2                !
 ! A47   A(3,12,14)            125.998          estimate D2E/DX2                !
 ! A48   A(13,12,14)           121.4438         estimate D2E/DX2                !
 ! A49   A(10,13,12)           113.2042         estimate D2E/DX2                !
 ! A50   A(10,13,27)           124.4366         estimate D2E/DX2                !
 ! A51   A(12,13,27)           120.1625         estimate D2E/DX2                !
 ! A52   A(12,14,16)           118.2153         estimate D2E/DX2                !
 ! A53   A(12,14,29)           118.8719         estimate D2E/DX2                !
 ! A54   A(16,14,29)           121.48           estimate D2E/DX2                !
 ! A55   A(5,15,16)            122.8252         estimate D2E/DX2                !
 ! A56   A(5,15,18)            120.0764         estimate D2E/DX2                !
 ! A57   A(16,15,18)           110.0742         estimate D2E/DX2                !
 ! A58   A(14,16,15)           103.5437         estimate D2E/DX2                !
 ! A59   A(14,16,32)           108.6041         estimate D2E/DX2                !
 ! A60   A(14,16,70)           111.7226         estimate D2E/DX2                !
 ! A61   A(15,16,32)           101.7368         estimate D2E/DX2                !
 ! A62   A(15,16,70)           116.7672         estimate D2E/DX2                !
 ! A63   A(32,16,70)           113.4997         estimate D2E/DX2                !
 ! A64   A(6,17,18)            114.4643         estimate D2E/DX2                !
 ! A65   A(6,17,19)            119.4872         estimate D2E/DX2                !
 ! A66   A(18,17,19)           120.1731         estimate D2E/DX2                !
 ! A67   A(15,18,17)           122.3022         estimate D2E/DX2                !
 ! A68   A(15,18,33)           109.1533         estimate D2E/DX2                !
 ! A69   A(17,18,33)           120.5995         estimate D2E/DX2                !
 ! A70   A(17,19,21)           119.1871         estimate D2E/DX2                !
 ! A71   A(17,19,35)           117.0084         estimate D2E/DX2                !
 ! A72   A(21,19,35)           118.523          estimate D2E/DX2                !
 ! A73   A(8,20,21)            119.8128         estimate D2E/DX2                !
 ! A74   A(8,20,23)            113.5019         estimate D2E/DX2                !
 ! A75   A(21,20,23)           120.6297         estimate D2E/DX2                !
 ! A76   A(19,21,20)           119.272          estimate D2E/DX2                !
 ! A77   A(19,21,38)           118.3649         estimate D2E/DX2                !
 ! A78   A(20,21,38)           116.7769         estimate D2E/DX2                !
 ! A79   A(9,22,23)            122.5588         estimate D2E/DX2                !
 ! A80   A(9,22,24)            121.845          estimate D2E/DX2                !
 ! A81   A(23,22,24)           107.1386         estimate D2E/DX2                !
 ! A82   A(20,23,22)           120.3595         estimate D2E/DX2                !
 ! A83   A(20,23,40)           120.834          estimate D2E/DX2                !
 ! A84   A(22,23,40)           109.1063         estimate D2E/DX2                !
 ! A85   A(22,24,26)           118.4639         estimate D2E/DX2                !
 ! A86   A(22,24,41)           109.0245         estimate D2E/DX2                !
 ! A87   A(26,24,41)           120.3963         estimate D2E/DX2                !
 ! A88   A(11,25,26)           123.0525         estimate D2E/DX2                !
 ! A89   A(11,25,28)           122.5584         estimate D2E/DX2                !
 ! A90   A(26,25,28)           105.6215         estimate D2E/DX2                !
 ! A91   A(24,26,25)           118.7167         estimate D2E/DX2                !
 ! A92   A(24,26,44)           119.9104         estimate D2E/DX2                !
 ! A93   A(25,26,44)           109.0126         estimate D2E/DX2                !
 ! A94   A(13,27,28)           115.6985         estimate D2E/DX2                !
 ! A95   A(13,27,30)           118.6212         estimate D2E/DX2                !
 ! A96   A(28,27,30)           123.4255         estimate D2E/DX2                !
 ! A97   A(25,28,27)           116.1932         estimate D2E/DX2                !
 ! A98   A(25,28,45)           110.4491         estimate D2E/DX2                !
 ! A99   A(27,28,45)           118.2817         estimate D2E/DX2                !
 ! A100  A(14,29,30)           118.6558         estimate D2E/DX2                !
 ! A101  A(14,29,31)           119.9308         estimate D2E/DX2                !
 ! A102  A(30,29,31)           120.716          estimate D2E/DX2                !
 ! A103  A(27,30,29)           121.0939         estimate D2E/DX2                !
 ! A104  A(27,30,47)           116.8436         estimate D2E/DX2                !
 ! A105  A(29,30,47)           121.4062         estimate D2E/DX2                !
 ! A106  A(29,31,34)           108.7228         estimate D2E/DX2                !
 ! A107  A(29,31,49)           110.8941         estimate D2E/DX2                !
 ! A108  A(29,31,71)           108.0155         estimate D2E/DX2                !
 ! A109  A(34,31,49)           101.1971         estimate D2E/DX2                !
 ! A110  A(34,31,71)           114.3915         estimate D2E/DX2                !
 ! A111  A(49,31,71)           113.4702         estimate D2E/DX2                !
 ! A112  A(16,32,33)           109.9743         estimate D2E/DX2                !
 ! A113  A(16,32,34)           122.7291         estimate D2E/DX2                !
 ! A114  A(33,32,34)           118.3523         estimate D2E/DX2                !
 ! A115  A(18,33,32)           108.1042         estimate D2E/DX2                !
 ! A116  A(18,33,36)           118.9239         estimate D2E/DX2                !
 ! A117  A(32,33,36)           122.8311         estimate D2E/DX2                !
 ! A118  A(31,34,32)           121.7396         estimate D2E/DX2                !
 ! A119  A(31,34,51)           111.0262         estimate D2E/DX2                !
 ! A120  A(32,34,51)           119.4974         estimate D2E/DX2                !
 ! A121  A(19,35,36)           120.779          estimate D2E/DX2                !
 ! A122  A(19,35,37)           121.9075         estimate D2E/DX2                !
 ! A123  A(36,35,37)           107.1194         estimate D2E/DX2                !
 ! A124  A(33,36,35)           121.1531         estimate D2E/DX2                !
 ! A125  A(33,36,52)           118.2884         estimate D2E/DX2                !
 ! A126  A(35,36,52)           109.2246         estimate D2E/DX2                !
 ! A127  A(35,37,39)           119.7172         estimate D2E/DX2                !
 ! A128  A(35,37,53)           107.57           estimate D2E/DX2                !
 ! A129  A(39,37,53)           120.8138         estimate D2E/DX2                !
 ! A130  A(21,38,39)           121.8517         estimate D2E/DX2                !
 ! A131  A(21,38,42)           121.6772         estimate D2E/DX2                !
 ! A132  A(39,38,42)           106.9101         estimate D2E/DX2                !
 ! A133  A(37,39,38)           119.4847         estimate D2E/DX2                !
 ! A134  A(37,39,57)           120.062          estimate D2E/DX2                !
 ! A135  A(38,39,57)           108.8575         estimate D2E/DX2                !
 ! A136  A(23,40,41)           107.7688         estimate D2E/DX2                !
 ! A137  A(23,40,42)           119.2384         estimate D2E/DX2                !
 ! A138  A(41,40,42)           121.3147         estimate D2E/DX2                !
 ! A139  A(24,41,40)           106.7825         estimate D2E/DX2                !
 ! A140  A(24,41,43)           120.0385         estimate D2E/DX2                !
 ! A141  A(40,41,43)           119.1252         estimate D2E/DX2                !
 ! A142  A(38,42,40)           120.1931         estimate D2E/DX2                !
 ! A143  A(38,42,58)           108.5145         estimate D2E/DX2                !
 ! A144  A(40,42,58)           119.3709         estimate D2E/DX2                !
 ! A145  A(41,43,46)           119.3425         estimate D2E/DX2                !
 ! A146  A(41,43,59)           119.8342         estimate D2E/DX2                !
 ! A147  A(46,43,59)           108.1839         estimate D2E/DX2                !
 ! A148  A(26,44,45)           107.7718         estimate D2E/DX2                !
 ! A149  A(26,44,46)           119.8327         estimate D2E/DX2                !
 ! A150  A(45,44,46)           119.9249         estimate D2E/DX2                !
 ! A151  A(28,45,44)           106.9982         estimate D2E/DX2                !
 ! A152  A(28,45,48)           119.7116         estimate D2E/DX2                !
 ! A153  A(44,45,48)           121.1988         estimate D2E/DX2                !
 ! A154  A(43,46,44)           120.4256         estimate D2E/DX2                !
 ! A155  A(43,46,61)           108.0664         estimate D2E/DX2                !
 ! A156  A(44,46,61)           119.3862         estimate D2E/DX2                !
 ! A157  A(30,47,48)           111.6711         estimate D2E/DX2                !
 ! A158  A(30,47,50)           110.3011         estimate D2E/DX2                !
 ! A159  A(30,47,72)           106.6918         estimate D2E/DX2                !
 ! A160  A(48,47,50)           101.4209         estimate D2E/DX2                !
 ! A161  A(48,47,72)           113.7699         estimate D2E/DX2                !
 ! A162  A(50,47,72)           113.0456         estimate D2E/DX2                !
 ! A163  A(45,48,47)           122.998          estimate D2E/DX2                !
 ! A164  A(45,48,62)           118.1311         estimate D2E/DX2                !
 ! A165  A(47,48,62)           111.4192         estimate D2E/DX2                !
 ! A166  A(31,49,50)           122.2975         estimate D2E/DX2                !
 ! A167  A(31,49,54)           110.7404         estimate D2E/DX2                !
 ! A168  A(50,49,54)           119.2145         estimate D2E/DX2                !
 ! A169  A(47,50,49)           122.5532         estimate D2E/DX2                !
 ! A170  A(47,50,63)           110.336          estimate D2E/DX2                !
 ! A171  A(49,50,63)           119.8852         estimate D2E/DX2                !
 ! A172  A(34,51,52)           121.235          estimate D2E/DX2                !
 ! A173  A(34,51,54)           108.2676         estimate D2E/DX2                !
 ! A174  A(52,51,54)           119.1553         estimate D2E/DX2                !
 ! A175  A(36,52,51)           118.7835         estimate D2E/DX2                !
 ! A176  A(36,52,53)           106.7793         estimate D2E/DX2                !
 ! A177  A(51,52,53)           121.3062         estimate D2E/DX2                !
 ! A178  A(37,53,52)           108.845          estimate D2E/DX2                !
 ! A179  A(37,53,55)           119.1316         estimate D2E/DX2                !
 ! A180  A(52,53,55)           119.5448         estimate D2E/DX2                !
 ! A181  A(49,54,51)           108.3213         estimate D2E/DX2                !
 ! A182  A(49,54,56)           121.0472         estimate D2E/DX2                !
 ! A183  A(51,54,56)           119.4254         estimate D2E/DX2                !
 ! A184  A(53,55,56)           118.9874         estimate D2E/DX2                !
 ! A185  A(53,55,60)           119.8605         estimate D2E/DX2                !
 ! A186  A(56,55,60)           108.9392         estimate D2E/DX2                !
 ! A187  A(54,56,55)           121.3729         estimate D2E/DX2                !
 ! A188  A(54,56,64)           119.5158         estimate D2E/DX2                !
 ! A189  A(55,56,64)           107.3603         estimate D2E/DX2                !
 ! A190  A(39,57,58)           107.6197         estimate D2E/DX2                !
 ! A191  A(39,57,60)           119.0879         estimate D2E/DX2                !
 ! A192  A(58,57,60)           119.9489         estimate D2E/DX2                !
 ! A193  A(42,58,57)           107.7459         estimate D2E/DX2                !
 ! A194  A(42,58,59)           119.3647         estimate D2E/DX2                !
 ! A195  A(57,58,59)           120.306          estimate D2E/DX2                !
 ! A196  A(43,59,58)           120.7504         estimate D2E/DX2                !
 ! A197  A(43,59,65)           107.2488         estimate D2E/DX2                !
 ! A198  A(58,59,65)           119.5192         estimate D2E/DX2                !
 ! A199  A(55,60,57)           120.7681         estimate D2E/DX2                !
 ! A200  A(55,60,66)           106.8293         estimate D2E/DX2                !
 ! A201  A(57,60,66)           119.9227         estimate D2E/DX2                !
 ! A202  A(46,61,62)           119.5709         estimate D2E/DX2                !
 ! A203  A(46,61,65)           107.8246         estimate D2E/DX2                !
 ! A204  A(62,61,65)           120.1477         estimate D2E/DX2                !
 ! A205  A(48,62,61)           121.7126         estimate D2E/DX2                !
 ! A206  A(48,62,63)           107.8976         estimate D2E/DX2                !
 ! A207  A(61,62,63)           119.7703         estimate D2E/DX2                !
 ! A208  A(50,63,62)           108.6028         estimate D2E/DX2                !
 ! A209  A(50,63,64)           121.5595         estimate D2E/DX2                !
 ! A210  A(62,63,64)           119.4272         estimate D2E/DX2                !
 ! A211  A(56,64,63)           118.685          estimate D2E/DX2                !
 ! A212  A(56,64,66)           108.4595         estimate D2E/DX2                !
 ! A213  A(63,64,66)           121.0221         estimate D2E/DX2                !
 ! A214  A(59,65,61)           108.6264         estimate D2E/DX2                !
 ! A215  A(59,65,66)           119.8978         estimate D2E/DX2                !
 ! A216  A(61,65,66)           119.9492         estimate D2E/DX2                !
 ! A217  A(60,66,64)           108.3561         estimate D2E/DX2                !
 ! A218  A(60,66,65)           120.2734         estimate D2E/DX2                !
 ! A219  A(64,66,65)           119.5162         estimate D2E/DX2                !
 ! D1    D(4,1,2,3)              3.7318         estimate D2E/DX2                !
 ! D2    D(4,1,2,10)          -110.4411         estimate D2E/DX2                !
 ! D3    D(4,1,2,68)           122.6276         estimate D2E/DX2                !
 ! D4    D(7,1,2,3)            113.377          estimate D2E/DX2                !
 ! D5    D(7,1,2,10)            -0.7959         estimate D2E/DX2                !
 ! D6    D(7,1,2,68)          -127.7273         estimate D2E/DX2                !
 ! D7    D(67,1,2,3)          -119.2652         estimate D2E/DX2                !
 ! D8    D(67,1,2,10)          126.5619         estimate D2E/DX2                !
 ! D9    D(67,1,2,68)           -0.3695         estimate D2E/DX2                !
 ! D10   D(2,1,4,5)             -3.9906         estimate D2E/DX2                !
 ! D11   D(2,1,4,6)            138.7336         estimate D2E/DX2                !
 ! D12   D(7,1,4,5)           -127.467          estimate D2E/DX2                !
 ! D13   D(7,1,4,6)             15.2572         estimate D2E/DX2                !
 ! D14   D(67,1,4,5)           118.9403         estimate D2E/DX2                !
 ! D15   D(67,1,4,6)           -98.3356         estimate D2E/DX2                !
 ! D16   D(2,1,7,8)           -130.721          estimate D2E/DX2                !
 ! D17   D(2,1,7,9)             16.2743         estimate D2E/DX2                !
 ! D18   D(4,1,7,8)            -17.9482         estimate D2E/DX2                !
 ! D19   D(4,1,7,9)            129.0471         estimate D2E/DX2                !
 ! D20   D(67,1,7,8)            99.598          estimate D2E/DX2                !
 ! D21   D(67,1,7,9)          -113.4066         estimate D2E/DX2                !
 ! D22   D(1,2,3,5)             -2.5003         estimate D2E/DX2                !
 ! D23   D(1,2,3,12)          -109.9899         estimate D2E/DX2                !
 ! D24   D(1,2,3,69)           126.3491         estimate D2E/DX2                !
 ! D25   D(10,2,3,5)           117.5899         estimate D2E/DX2                !
 ! D26   D(10,2,3,12)           10.1003         estimate D2E/DX2                !
 ! D27   D(10,2,3,69)         -113.5608         estimate D2E/DX2                !
 ! D28   D(68,2,3,5)          -121.6904         estimate D2E/DX2                !
 ! D29   D(68,2,3,12)          130.82           estimate D2E/DX2                !
 ! D30   D(68,2,3,69)            7.159          estimate D2E/DX2                !
 ! D31   D(1,2,10,11)          -10.2005         estimate D2E/DX2                !
 ! D32   D(1,2,10,13)          107.1894         estimate D2E/DX2                !
 ! D33   D(1,2,10,73)         -135.0267         estimate D2E/DX2                !
 ! D34   D(3,2,10,11)         -123.6968         estimate D2E/DX2                !
 ! D35   D(3,2,10,13)           -6.3069         estimate D2E/DX2                !
 ! D36   D(3,2,10,73)          111.477          estimate D2E/DX2                !
 ! D37   D(68,2,10,11)         116.3493         estimate D2E/DX2                !
 ! D38   D(68,2,10,13)        -126.2607         estimate D2E/DX2                !
 ! D39   D(68,2,10,73)          -8.4768         estimate D2E/DX2                !
 ! D40   D(2,3,5,4)              0.1827         estimate D2E/DX2                !
 ! D41   D(2,3,5,15)          -145.4653         estimate D2E/DX2                !
 ! D42   D(12,3,5,4)           110.5461         estimate D2E/DX2                !
 ! D43   D(12,3,5,15)          -35.1019         estimate D2E/DX2                !
 ! D44   D(69,3,5,4)          -129.8331         estimate D2E/DX2                !
 ! D45   D(69,3,5,15)           84.5189         estimate D2E/DX2                !
 ! D46   D(2,3,12,13)          -10.6288         estimate D2E/DX2                !
 ! D47   D(2,3,12,14)          152.8767         estimate D2E/DX2                !
 ! D48   D(5,3,12,13)         -122.0152         estimate D2E/DX2                !
 ! D49   D(5,3,12,14)           41.4904         estimate D2E/DX2                !
 ! D50   D(69,3,12,13)         116.2039         estimate D2E/DX2                !
 ! D51   D(69,3,12,14)         -80.2905         estimate D2E/DX2                !
 ! D52   D(1,4,5,3)              2.4639         estimate D2E/DX2                !
 ! D53   D(1,4,5,15)           149.8774         estimate D2E/DX2                !
 ! D54   D(6,4,5,3)           -136.0632         estimate D2E/DX2                !
 ! D55   D(6,4,5,15)            11.3503         estimate D2E/DX2                !
 ! D56   D(1,4,6,8)             -7.5275         estimate D2E/DX2                !
 ! D57   D(1,4,6,17)          -152.11           estimate D2E/DX2                !
 ! D58   D(5,4,6,8)            131.5049         estimate D2E/DX2                !
 ! D59   D(5,4,6,17)           -13.0775         estimate D2E/DX2                !
 ! D60   D(3,5,15,16)           -4.2477         estimate D2E/DX2                !
 ! D61   D(3,5,15,18)          143.4876         estimate D2E/DX2                !
 ! D62   D(4,5,15,16)         -147.5956         estimate D2E/DX2                !
 ! D63   D(4,5,15,18)            0.1397         estimate D2E/DX2                !
 ! D64   D(4,6,8,7)             -4.4918         estimate D2E/DX2                !
 ! D65   D(4,6,8,20)          -156.5913         estimate D2E/DX2                !
 ! D66   D(17,6,8,7)           140.581          estimate D2E/DX2                !
 ! D67   D(17,6,8,20)          -11.5186         estimate D2E/DX2                !
 ! D68   D(4,6,17,18)            2.7098         estimate D2E/DX2                !
 ! D69   D(4,6,17,19)          155.7898         estimate D2E/DX2                !
 ! D70   D(8,6,17,18)         -137.3111         estimate D2E/DX2                !
 ! D71   D(8,6,17,19)           15.7689         estimate D2E/DX2                !
 ! D72   D(1,7,8,6)             14.8804         estimate D2E/DX2                !
 ! D73   D(1,7,8,20)           165.0917         estimate D2E/DX2                !
 ! D74   D(9,7,8,6)           -134.1108         estimate D2E/DX2                !
 ! D75   D(9,7,8,20)            16.1006         estimate D2E/DX2                !
 ! D76   D(1,7,9,11)           -19.4806         estimate D2E/DX2                !
 ! D77   D(1,7,9,22)          -170.4974         estimate D2E/DX2                !
 ! D78   D(8,7,9,11)           125.407          estimate D2E/DX2                !
 ! D79   D(8,7,9,22)           -25.6098         estimate D2E/DX2                !
 ! D80   D(6,8,20,21)           -0.2548         estimate D2E/DX2                !
 ! D81   D(6,8,20,23)          152.5542         estimate D2E/DX2                !
 ! D82   D(7,8,20,21)         -147.1606         estimate D2E/DX2                !
 ! D83   D(7,8,20,23)            5.6484         estimate D2E/DX2                !
 ! D84   D(7,9,11,10)            6.9537         estimate D2E/DX2                !
 ! D85   D(7,9,11,25)         -147.8915         estimate D2E/DX2                !
 ! D86   D(22,9,11,10)         156.5217         estimate D2E/DX2                !
 ! D87   D(22,9,11,25)           1.6765         estimate D2E/DX2                !
 ! D88   D(7,9,22,23)           15.5789         estimate D2E/DX2                !
 ! D89   D(7,9,22,24)          159.4968         estimate D2E/DX2                !
 ! D90   D(11,9,22,23)        -135.0827         estimate D2E/DX2                !
 ! D91   D(11,9,22,24)           8.8352         estimate D2E/DX2                !
 ! D92   D(2,10,11,9)            7.9756         estimate D2E/DX2                !
 ! D93   D(2,10,11,25)         163.2343         estimate D2E/DX2                !
 ! D94   D(13,10,11,9)        -108.587          estimate D2E/DX2                !
 ! D95   D(13,10,11,25)         46.6717         estimate D2E/DX2                !
 ! D96   D(73,10,11,9)         135.3386         estimate D2E/DX2                !
 ! D97   D(73,10,11,25)        -69.4028         estimate D2E/DX2                !
 ! D98   D(2,10,13,12)          -0.0552         estimate D2E/DX2                !
 ! D99   D(2,10,13,27)        -163.1464         estimate D2E/DX2                !
 ! D100  D(11,10,13,12)        125.6985         estimate D2E/DX2                !
 ! D101  D(11,10,13,27)        -37.3926         estimate D2E/DX2                !
 ! D102  D(73,10,13,12)       -119.8294         estimate D2E/DX2                !
 ! D103  D(73,10,13,27)         77.0794         estimate D2E/DX2                !
 ! D104  D(9,11,25,26)         -10.88           estimate D2E/DX2                !
 ! D105  D(9,11,25,28)         131.9322         estimate D2E/DX2                !
 ! D106  D(10,11,25,26)       -167.9914         estimate D2E/DX2                !
 ! D107  D(10,11,25,28)        -25.1792         estimate D2E/DX2                !
 ! D108  D(3,12,13,10)           6.9026         estimate D2E/DX2                !
 ! D109  D(3,12,13,27)         170.7949         estimate D2E/DX2                !
 ! D110  D(14,12,13,10)       -157.4782         estimate D2E/DX2                !
 ! D111  D(14,12,13,27)          6.4141         estimate D2E/DX2                !
 ! D112  D(3,12,14,16)          -6.4135         estimate D2E/DX2                !
 ! D113  D(3,12,14,29)        -172.9642         estimate D2E/DX2                !
 ! D114  D(13,12,14,16)        155.4162         estimate D2E/DX2                !
 ! D115  D(13,12,14,29)        -11.1345         estimate D2E/DX2                !
 ! D116  D(10,13,27,28)          2.0664         estimate D2E/DX2                !
 ! D117  D(10,13,27,30)        165.6084         estimate D2E/DX2                !
 ! D118  D(12,13,27,28)       -159.9235         estimate D2E/DX2                !
 ! D119  D(12,13,27,30)          3.6185         estimate D2E/DX2                !
 ! D120  D(12,14,16,15)        -34.0764         estimate D2E/DX2                !
 ! D121  D(12,14,16,32)       -141.6456         estimate D2E/DX2                !
 ! D122  D(12,14,16,70)         92.4099         estimate D2E/DX2                !
 ! D123  D(29,14,16,15)        132.1065         estimate D2E/DX2                !
 ! D124  D(29,14,16,32)         24.5373         estimate D2E/DX2                !
 ! D125  D(29,14,16,70)       -101.4072         estimate D2E/DX2                !
 ! D126  D(12,14,29,30)          5.6868         estimate D2E/DX2                !
 ! D127  D(12,14,29,31)        176.1879         estimate D2E/DX2                !
 ! D128  D(16,14,29,30)       -160.408          estimate D2E/DX2                !
 ! D129  D(16,14,29,31)         10.0931         estimate D2E/DX2                !
 ! D130  D(5,15,16,14)          40.4152         estimate D2E/DX2                !
 ! D131  D(5,15,16,32)         153.0718         estimate D2E/DX2                !
 ! D132  D(5,15,16,70)         -82.8077         estimate D2E/DX2                !
 ! D133  D(18,15,16,14)       -110.1236         estimate D2E/DX2                !
 ! D134  D(18,15,16,32)          2.533          estimate D2E/DX2                !
 ! D135  D(18,15,16,70)        126.6535         estimate D2E/DX2                !
 ! D136  D(5,15,18,17)         -10.4129         estimate D2E/DX2                !
 ! D137  D(5,15,18,33)        -159.4069         estimate D2E/DX2                !
 ! D138  D(16,15,18,17)        141.0577         estimate D2E/DX2                !
 ! D139  D(16,15,18,33)         -7.9362         estimate D2E/DX2                !
 ! D140  D(14,16,32,33)        112.5451         estimate D2E/DX2                !
 ! D141  D(14,16,32,34)        -33.9923         estimate D2E/DX2                !
 ! D142  D(15,16,32,33)          3.7423         estimate D2E/DX2                !
 ! D143  D(15,16,32,34)       -142.7951         estimate D2E/DX2                !
 ! D144  D(70,16,32,33)       -122.551          estimate D2E/DX2                !
 ! D145  D(70,16,32,34)         90.9116         estimate D2E/DX2                !
 ! D146  D(6,17,18,15)           8.7034         estimate D2E/DX2                !
 ! D147  D(6,17,18,33)         154.2776         estimate D2E/DX2                !
 ! D148  D(19,17,18,15)       -144.176          estimate D2E/DX2                !
 ! D149  D(19,17,18,33)          1.3982         estimate D2E/DX2                !
 ! D150  D(6,17,19,21)          -8.3772         estimate D2E/DX2                !
 ! D151  D(6,17,19,35)        -162.3555         estimate D2E/DX2                !
 ! D152  D(18,17,19,21)        143.1537         estimate D2E/DX2                !
 ! D153  D(18,17,19,35)        -10.8245         estimate D2E/DX2                !
 ! D154  D(15,18,33,32)         10.2427         estimate D2E/DX2                !
 ! D155  D(15,18,33,36)        156.5834         estimate D2E/DX2                !
 ! D156  D(17,18,33,32)       -139.3695         estimate D2E/DX2                !
 ! D157  D(17,18,33,36)          6.9711         estimate D2E/DX2                !
 ! D158  D(17,19,21,20)         -3.1168         estimate D2E/DX2                !
 ! D159  D(17,19,21,38)       -155.9357         estimate D2E/DX2                !
 ! D160  D(35,19,21,20)        150.4688         estimate D2E/DX2                !
 ! D161  D(35,19,21,38)         -2.3501         estimate D2E/DX2                !
 ! D162  D(17,19,35,36)         12.1963         estimate D2E/DX2                !
 ! D163  D(17,19,35,37)        152.9523         estimate D2E/DX2                !
 ! D164  D(21,19,35,36)       -141.9599         estimate D2E/DX2                !
 ! D165  D(21,19,35,37)         -1.2039         estimate D2E/DX2                !
 ! D166  D(8,20,21,19)           7.3634         estimate D2E/DX2                !
 ! D167  D(8,20,21,38)         160.6043         estimate D2E/DX2                !
 ! D168  D(23,20,21,19)       -143.4931         estimate D2E/DX2                !
 ! D169  D(23,20,21,38)          9.7478         estimate D2E/DX2                !
 ! D170  D(8,20,23,22)         -16.4432         estimate D2E/DX2                !
 ! D171  D(8,20,23,40)        -158.7626         estimate D2E/DX2                !
 ! D172  D(21,20,23,22)        136.12           estimate D2E/DX2                !
 ! D173  D(21,20,23,40)         -6.1994         estimate D2E/DX2                !
 ! D174  D(19,21,38,39)          4.1247         estimate D2E/DX2                !
 ! D175  D(19,21,38,42)        145.9147         estimate D2E/DX2                !
 ! D176  D(20,21,38,39)       -149.3664         estimate D2E/DX2                !
 ! D177  D(20,21,38,42)         -7.5764         estimate D2E/DX2                !
 ! D178  D(9,22,23,20)           6.2712         estimate D2E/DX2                !
 ! D179  D(9,22,23,40)         152.5288         estimate D2E/DX2                !
 ! D180  D(24,22,23,20)       -142.1586         estimate D2E/DX2                !
 ! D181  D(24,22,23,40)          4.099          estimate D2E/DX2                !
 ! D182  D(9,22,24,26)         -10.2308         estimate D2E/DX2                !
 ! D183  D(9,22,24,41)        -152.9559         estimate D2E/DX2                !
 ! D184  D(23,22,24,26)        138.4737         estimate D2E/DX2                !
 ! D185  D(23,22,24,41)         -4.2514         estimate D2E/DX2                !
 ! D186  D(20,23,40,41)        143.6646         estimate D2E/DX2                !
 ! D187  D(20,23,40,42)          0.0694         estimate D2E/DX2                !
 ! D188  D(22,23,40,41)         -2.4049         estimate D2E/DX2                !
 ! D189  D(22,23,40,42)       -146.0001         estimate D2E/DX2                !
 ! D190  D(22,24,26,25)          1.1981         estimate D2E/DX2                !
 ! D191  D(22,24,26,44)       -136.8505         estimate D2E/DX2                !
 ! D192  D(41,24,26,25)        139.6076         estimate D2E/DX2                !
 ! D193  D(41,24,26,44)          1.559          estimate D2E/DX2                !
 ! D194  D(22,24,41,40)          2.7832         estimate D2E/DX2                !
 ! D195  D(22,24,41,43)        142.3919         estimate D2E/DX2                !
 ! D196  D(26,24,41,40)       -139.0993         estimate D2E/DX2                !
 ! D197  D(26,24,41,43)          0.5095         estimate D2E/DX2                !
 ! D198  D(11,25,26,24)          9.5895         estimate D2E/DX2                !
 ! D199  D(11,25,26,44)        151.7903         estimate D2E/DX2                !
 ! D200  D(28,25,26,24)       -138.4741         estimate D2E/DX2                !
 ! D201  D(28,25,26,44)          3.7268         estimate D2E/DX2                !
 ! D202  D(11,25,28,27)        -13.7183         estimate D2E/DX2                !
 ! D203  D(11,25,28,45)       -152.0464         estimate D2E/DX2                !
 ! D204  D(26,25,28,27)        134.543          estimate D2E/DX2                !
 ! D205  D(26,25,28,45)         -3.7851         estimate D2E/DX2                !
 ! D206  D(24,26,44,45)        139.3129         estimate D2E/DX2                !
 ! D207  D(24,26,44,46)         -2.6579         estimate D2E/DX2                !
 ! D208  D(25,26,44,45)         -2.3631         estimate D2E/DX2                !
 ! D209  D(25,26,44,46)       -144.3339         estimate D2E/DX2                !
 ! D210  D(13,27,28,25)         25.1673         estimate D2E/DX2                !
 ! D211  D(13,27,28,45)        160.1426         estimate D2E/DX2                !
 ! D212  D(30,27,28,25)       -137.4965         estimate D2E/DX2                !
 ! D213  D(30,27,28,45)         -2.5211         estimate D2E/DX2                !
 ! D214  D(13,27,30,29)         -8.9269         estimate D2E/DX2                !
 ! D215  D(13,27,30,47)       -179.7682         estimate D2E/DX2                !
 ! D216  D(28,27,30,29)        153.2618         estimate D2E/DX2                !
 ! D217  D(28,27,30,47)        -17.5795         estimate D2E/DX2                !
 ! D218  D(25,28,45,44)          2.393          estimate D2E/DX2                !
 ! D219  D(25,28,45,48)        145.3433         estimate D2E/DX2                !
 ! D220  D(27,28,45,44)       -134.9616         estimate D2E/DX2                !
 ! D221  D(27,28,45,48)          7.9886         estimate D2E/DX2                !
 ! D222  D(14,29,30,27)          4.2            estimate D2E/DX2                !
 ! D223  D(14,29,30,47)        174.6217         estimate D2E/DX2                !
 ! D224  D(31,29,30,27)       -166.2239         estimate D2E/DX2                !
 ! D225  D(31,29,30,47)          4.1978         estimate D2E/DX2                !
 ! D226  D(14,29,31,34)        -36.1419         estimate D2E/DX2                !
 ! D227  D(14,29,31,49)       -146.5588         estimate D2E/DX2                !
 ! D228  D(14,29,31,71)         88.5211         estimate D2E/DX2                !
 ! D229  D(30,29,31,34)        134.1606         estimate D2E/DX2                !
 ! D230  D(30,29,31,49)         23.7436         estimate D2E/DX2                !
 ! D231  D(30,29,31,71)       -101.1764         estimate D2E/DX2                !
 ! D232  D(27,30,47,48)         29.838          estimate D2E/DX2                !
 ! D233  D(27,30,47,50)        141.8119         estimate D2E/DX2                !
 ! D234  D(27,30,47,72)        -95.0485         estimate D2E/DX2                !
 ! D235  D(29,30,47,48)       -140.9727         estimate D2E/DX2                !
 ! D236  D(29,30,47,50)        -28.9988         estimate D2E/DX2                !
 ! D237  D(29,30,47,72)         94.1408         estimate D2E/DX2                !
 ! D238  D(29,31,34,32)         27.9055         estimate D2E/DX2                !
 ! D239  D(29,31,34,51)       -121.192          estimate D2E/DX2                !
 ! D240  D(49,31,34,32)        144.7112         estimate D2E/DX2                !
 ! D241  D(49,31,34,51)         -4.3863         estimate D2E/DX2                !
 ! D242  D(71,31,34,32)        -92.9077         estimate D2E/DX2                !
 ! D243  D(71,31,34,51)        117.9949         estimate D2E/DX2                !
 ! D244  D(29,31,49,50)        -27.1598         estimate D2E/DX2                !
 ! D245  D(29,31,49,54)        121.7987         estimate D2E/DX2                !
 ! D246  D(34,31,49,50)       -142.3623         estimate D2E/DX2                !
 ! D247  D(34,31,49,54)          6.5963         estimate D2E/DX2                !
 ! D248  D(71,31,49,50)         94.6197         estimate D2E/DX2                !
 ! D249  D(71,31,49,54)       -116.4218         estimate D2E/DX2                !
 ! D250  D(16,32,33,18)         -8.6411         estimate D2E/DX2                !
 ! D251  D(16,32,33,36)       -153.3778         estimate D2E/DX2                !
 ! D252  D(34,32,33,18)        139.5507         estimate D2E/DX2                !
 ! D253  D(34,32,33,36)         -5.186          estimate D2E/DX2                !
 ! D254  D(16,32,34,31)          7.4406         estimate D2E/DX2                !
 ! D255  D(16,32,34,51)        154.0204         estimate D2E/DX2                !
 ! D256  D(33,32,34,31)       -136.4831         estimate D2E/DX2                !
 ! D257  D(33,32,34,51)         10.0966         estimate D2E/DX2                !
 ! D258  D(18,33,36,35)         -5.6948         estimate D2E/DX2                !
 ! D259  D(18,33,36,52)       -145.3597         estimate D2E/DX2                !
 ! D260  D(32,33,36,35)        135.4793         estimate D2E/DX2                !
 ! D261  D(32,33,36,52)         -4.1857         estimate D2E/DX2                !
 ! D262  D(31,34,51,52)        143.8783         estimate D2E/DX2                !
 ! D263  D(31,34,51,54)          0.7298         estimate D2E/DX2                !
 ! D264  D(32,34,51,52)         -6.0013         estimate D2E/DX2                !
 ! D265  D(32,34,51,54)       -149.1498         estimate D2E/DX2                !
 ! D266  D(19,35,36,33)         -4.1557         estimate D2E/DX2                !
 ! D267  D(19,35,36,52)        138.715          estimate D2E/DX2                !
 ! D268  D(37,35,36,33)       -149.9661         estimate D2E/DX2                !
 ! D269  D(37,35,36,52)         -7.0954         estimate D2E/DX2                !
 ! D270  D(19,35,37,39)          3.1208         estimate D2E/DX2                !
 ! D271  D(19,35,37,53)       -139.954          estimate D2E/DX2                !
 ! D272  D(36,35,37,39)        148.4602         estimate D2E/DX2                !
 ! D273  D(36,35,37,53)          5.3854         estimate D2E/DX2                !
 ! D274  D(33,36,52,51)          8.3091         estimate D2E/DX2                !
 ! D275  D(33,36,52,53)        150.0185         estimate D2E/DX2                !
 ! D276  D(35,36,52,51)       -135.7729         estimate D2E/DX2                !
 ! D277  D(35,36,52,53)          5.9365         estimate D2E/DX2                !
 ! D278  D(35,37,39,38)         -1.3742         estimate D2E/DX2                !
 ! D279  D(35,37,39,57)       -140.5112         estimate D2E/DX2                !
 ! D280  D(53,37,39,38)        136.7987         estimate D2E/DX2                !
 ! D281  D(53,37,39,57)         -2.3383         estimate D2E/DX2                !
 ! D282  D(35,37,53,52)         -1.8148         estimate D2E/DX2                !
 ! D283  D(35,37,53,55)        140.0635         estimate D2E/DX2                !
 ! D284  D(39,37,53,52)       -144.4044         estimate D2E/DX2                !
 ! D285  D(39,37,53,55)         -2.5261         estimate D2E/DX2                !
 ! D286  D(21,38,39,37)         -2.2746         estimate D2E/DX2                !
 ! D287  D(21,38,39,57)        140.9727         estimate D2E/DX2                !
 ! D288  D(42,38,39,37)       -148.895          estimate D2E/DX2                !
 ! D289  D(42,38,39,57)         -5.6477         estimate D2E/DX2                !
 ! D290  D(21,38,42,40)          1.7852         estimate D2E/DX2                !
 ! D291  D(21,38,42,58)       -140.7064         estimate D2E/DX2                !
 ! D292  D(39,38,42,40)        148.4766         estimate D2E/DX2                !
 ! D293  D(39,38,42,58)          5.985          estimate D2E/DX2                !
 ! D294  D(37,39,57,58)        146.1901         estimate D2E/DX2                !
 ! D295  D(37,39,57,60)          5.2865         estimate D2E/DX2                !
 ! D296  D(38,39,57,58)          3.1905         estimate D2E/DX2                !
 ! D297  D(38,39,57,60)       -137.713          estimate D2E/DX2                !
 ! D298  D(23,40,41,24)         -0.2385         estimate D2E/DX2                !
 ! D299  D(23,40,41,43)       -140.2849         estimate D2E/DX2                !
 ! D300  D(42,40,41,24)        142.4479         estimate D2E/DX2                !
 ! D301  D(42,40,41,43)          2.4015         estimate D2E/DX2                !
 ! D302  D(23,40,42,38)          2.1765         estimate D2E/DX2                !
 ! D303  D(23,40,42,58)        140.6839         estimate D2E/DX2                !
 ! D304  D(41,40,42,38)       -136.4058         estimate D2E/DX2                !
 ! D305  D(41,40,42,58)          2.1016         estimate D2E/DX2                !
 ! D306  D(24,41,43,46)         -1.4786         estimate D2E/DX2                !
 ! D307  D(24,41,43,59)       -138.7928         estimate D2E/DX2                !
 ! D308  D(40,41,43,46)        133.2699         estimate D2E/DX2                !
 ! D309  D(40,41,43,59)         -4.0443         estimate D2E/DX2                !
 ! D310  D(38,42,58,57)         -4.0719         estimate D2E/DX2                !
 ! D311  D(38,42,58,59)        137.9275         estimate D2E/DX2                !
 ! D312  D(40,42,58,57)       -146.9224         estimate D2E/DX2                !
 ! D313  D(40,42,58,59)         -4.923          estimate D2E/DX2                !
 ! D314  D(41,43,46,44)          0.3721         estimate D2E/DX2                !
 ! D315  D(41,43,46,61)       -141.8272         estimate D2E/DX2                !
 ! D316  D(59,43,46,44)        142.1261         estimate D2E/DX2                !
 ! D317  D(59,43,46,61)         -0.0732         estimate D2E/DX2                !
 ! D318  D(41,43,59,58)          1.2142         estimate D2E/DX2                !
 ! D319  D(41,43,59,65)        142.939          estimate D2E/DX2                !
 ! D320  D(46,43,59,58)       -140.3189         estimate D2E/DX2                !
 ! D321  D(46,43,59,65)          1.4059         estimate D2E/DX2                !
 ! D322  D(26,44,45,28)          0.0014         estimate D2E/DX2                !
 ! D323  D(26,44,45,48)       -142.2806         estimate D2E/DX2                !
 ! D324  D(46,44,45,28)        141.9308         estimate D2E/DX2                !
 ! D325  D(46,44,45,48)         -0.3512         estimate D2E/DX2                !
 ! D326  D(26,44,46,43)          1.6845         estimate D2E/DX2                !
 ! D327  D(26,44,46,61)        139.7143         estimate D2E/DX2                !
 ! D328  D(45,44,46,43)       -135.7129         estimate D2E/DX2                !
 ! D329  D(45,44,46,61)          2.3169         estimate D2E/DX2                !
 ! D330  D(28,45,48,47)          7.5398         estimate D2E/DX2                !
 ! D331  D(28,45,48,62)       -139.6989         estimate D2E/DX2                !
 ! D332  D(44,45,48,47)        145.1936         estimate D2E/DX2                !
 ! D333  D(44,45,48,62)         -2.045          estimate D2E/DX2                !
 ! D334  D(43,46,61,62)        140.7891         estimate D2E/DX2                !
 ! D335  D(43,46,61,65)         -1.3037         estimate D2E/DX2                !
 ! D336  D(44,46,61,62)         -1.8702         estimate D2E/DX2                !
 ! D337  D(44,46,61,65)       -143.963          estimate D2E/DX2                !
 ! D338  D(30,47,48,45)        -26.1005         estimate D2E/DX2                !
 ! D339  D(30,47,48,62)        123.0609         estimate D2E/DX2                !
 ! D340  D(50,47,48,45)       -143.5623         estimate D2E/DX2                !
 ! D341  D(50,47,48,62)          5.5991         estimate D2E/DX2                !
 ! D342  D(72,47,48,45)         94.7451         estimate D2E/DX2                !
 ! D343  D(72,47,48,62)       -116.0935         estimate D2E/DX2                !
 ! D344  D(30,47,50,49)         26.3696         estimate D2E/DX2                !
 ! D345  D(30,47,50,63)       -123.7455         estimate D2E/DX2                !
 ! D346  D(48,47,50,49)        144.8215         estimate D2E/DX2                !
 ! D347  D(48,47,50,63)         -5.2935         estimate D2E/DX2                !
 ! D348  D(72,47,50,49)        -92.983          estimate D2E/DX2                !
 ! D349  D(72,47,50,63)        116.9019         estimate D2E/DX2                !
 ! D350  D(45,48,62,61)          2.5095         estimate D2E/DX2                !
 ! D351  D(45,48,62,63)        146.89           estimate D2E/DX2                !
 ! D352  D(47,48,62,61)       -148.3127         estimate D2E/DX2                !
 ! D353  D(47,48,62,63)         -3.9323         estimate D2E/DX2                !
 ! D354  D(31,49,50,47)          1.6822         estimate D2E/DX2                !
 ! D355  D(31,49,50,63)        149.0763         estimate D2E/DX2                !
 ! D356  D(54,49,50,47)       -144.7776         estimate D2E/DX2                !
 ! D357  D(54,49,50,63)          2.6165         estimate D2E/DX2                !
 ! D358  D(31,49,54,51)         -6.6071         estimate D2E/DX2                !
 ! D359  D(31,49,54,56)       -150.0626         estimate D2E/DX2                !
 ! D360  D(50,49,54,51)        143.4324         estimate D2E/DX2                !
 ! D361  D(50,49,54,56)         -0.0231         estimate D2E/DX2                !
 ! D362  D(47,50,63,62)          3.3244         estimate D2E/DX2                !
 ! D363  D(47,50,63,64)        147.9245         estimate D2E/DX2                !
 ! D364  D(49,50,63,62)       -147.7031         estimate D2E/DX2                !
 ! D365  D(49,50,63,64)         -3.103          estimate D2E/DX2                !
 ! D366  D(34,51,52,36)         -3.4565         estimate D2E/DX2                !
 ! D367  D(34,51,52,53)       -139.4799         estimate D2E/DX2                !
 ! D368  D(54,51,52,36)        135.8401         estimate D2E/DX2                !
 ! D369  D(54,51,52,53)         -0.1832         estimate D2E/DX2                !
 ! D370  D(34,51,54,49)          3.5734         estimate D2E/DX2                !
 ! D371  D(34,51,54,56)        147.7208         estimate D2E/DX2                !
 ! D372  D(52,51,54,49)       -140.4676         estimate D2E/DX2                !
 ! D373  D(52,51,54,56)          3.6798         estimate D2E/DX2                !
 ! D374  D(36,52,53,37)         -2.5312         estimate D2E/DX2                !
 ! D375  D(36,52,53,55)       -144.2267         estimate D2E/DX2                !
 ! D376  D(51,52,53,37)        138.0016         estimate D2E/DX2                !
 ! D377  D(51,52,53,55)         -3.6939         estimate D2E/DX2                !
 ! D378  D(37,53,55,56)       -133.8578         estimate D2E/DX2                !
 ! D379  D(37,53,55,60)          4.3801         estimate D2E/DX2                !
 ! D380  D(52,53,55,56)          3.9542         estimate D2E/DX2                !
 ! D381  D(52,53,55,60)        142.1921         estimate D2E/DX2                !
 ! D382  D(49,54,56,55)        136.126          estimate D2E/DX2                !
 ! D383  D(49,54,56,64)         -2.1876         estimate D2E/DX2                !
 ! D384  D(51,54,56,55)         -3.409          estimate D2E/DX2                !
 ! D385  D(51,54,56,64)       -141.7226         estimate D2E/DX2                !
 ! D386  D(53,55,56,54)         -0.4578         estimate D2E/DX2                !
 ! D387  D(53,55,56,64)        142.2152         estimate D2E/DX2                !
 ! D388  D(60,55,56,54)       -142.8195         estimate D2E/DX2                !
 ! D389  D(60,55,56,64)         -0.1464         estimate D2E/DX2                !
 ! D390  D(53,55,60,57)         -1.418          estimate D2E/DX2                !
 ! D391  D(53,55,60,66)       -143.2875         estimate D2E/DX2                !
 ! D392  D(56,55,60,57)        140.5612         estimate D2E/DX2                !
 ! D393  D(56,55,60,66)         -1.3082         estimate D2E/DX2                !
 ! D394  D(54,56,64,63)          1.7272         estimate D2E/DX2                !
 ! D395  D(54,56,64,66)        145.0464         estimate D2E/DX2                !
 ! D396  D(55,56,64,63)       -141.7659         estimate D2E/DX2                !
 ! D397  D(55,56,64,66)          1.5534         estimate D2E/DX2                !
 ! D398  D(39,57,58,42)          0.5595         estimate D2E/DX2                !
 ! D399  D(39,57,58,59)       -141.0149         estimate D2E/DX2                !
 ! D400  D(60,57,58,42)        141.064          estimate D2E/DX2                !
 ! D401  D(60,57,58,59)         -0.5103         estimate D2E/DX2                !
 ! D402  D(39,57,60,55)         -3.4268         estimate D2E/DX2                !
 ! D403  D(39,57,60,66)        133.5801         estimate D2E/DX2                !
 ! D404  D(58,57,60,55)       -139.5056         estimate D2E/DX2                !
 ! D405  D(58,57,60,66)         -2.4987         estimate D2E/DX2                !
 ! D406  D(42,58,59,43)          3.3036         estimate D2E/DX2                !
 ! D407  D(42,58,59,65)       -133.8661         estimate D2E/DX2                !
 ! D408  D(57,58,59,43)        140.5231         estimate D2E/DX2                !
 ! D409  D(57,58,59,65)          3.3534         estimate D2E/DX2                !
 ! D410  D(43,59,65,61)         -2.2251         estimate D2E/DX2                !
 ! D411  D(43,59,65,66)       -145.4985         estimate D2E/DX2                !
 ! D412  D(58,59,65,61)        140.058          estimate D2E/DX2                !
 ! D413  D(58,59,65,66)         -3.2154         estimate D2E/DX2                !
 ! D414  D(55,60,66,64)          2.257          estimate D2E/DX2                !
 ! D415  D(55,60,66,65)        144.8869         estimate D2E/DX2                !
 ! D416  D(57,60,66,64)       -139.9982         estimate D2E/DX2                !
 ! D417  D(57,60,66,65)          2.6317         estimate D2E/DX2                !
 ! D418  D(46,61,62,48)         -0.58           estimate D2E/DX2                !
 ! D419  D(46,61,62,63)       -140.9013         estimate D2E/DX2                !
 ! D420  D(65,61,62,48)        136.8581         estimate D2E/DX2                !
 ! D421  D(65,61,62,63)         -3.4632         estimate D2E/DX2                !
 ! D422  D(46,61,65,59)          2.19           estimate D2E/DX2                !
 ! D423  D(46,61,65,66)        145.4414         estimate D2E/DX2                !
 ! D424  D(62,61,65,59)       -139.6436         estimate D2E/DX2                !
 ! D425  D(62,61,65,66)          3.6077         estimate D2E/DX2                !
 ! D426  D(48,62,63,50)          0.3618         estimate D2E/DX2                !
 ! D427  D(48,62,63,64)       -145.1164         estimate D2E/DX2                !
 ! D428  D(61,62,63,50)        145.5575         estimate D2E/DX2                !
 ! D429  D(61,62,63,64)          0.0793         estimate D2E/DX2                !
 ! D430  D(50,63,64,56)          0.8695         estimate D2E/DX2                !
 ! D431  D(50,63,64,66)       -137.7397         estimate D2E/DX2                !
 ! D432  D(62,63,64,56)        141.7943         estimate D2E/DX2                !
 ! D433  D(62,63,64,66)          3.1851         estimate D2E/DX2                !
 ! D434  D(56,64,66,60)         -2.3911         estimate D2E/DX2                !
 ! D435  D(56,64,66,65)       -145.3515         estimate D2E/DX2                !
 ! D436  D(63,64,66,60)        139.9102         estimate D2E/DX2                !
 ! D437  D(63,64,66,65)         -3.0502         estimate D2E/DX2                !
[...]
    11 C(13)  Bbb    -0.1283   -17.214    -6.142    -5.742 -0.2326  0.8678  0.4391
              Bcc     0.2610    35.028    12.499    11.684  0.6414  0.4762 -0.6015
 
              Baa    -0.0544    -7.301    -2.605    -2.435 -0.4921  0.6972  0.5213
    12 C(13)  Bbb     0.0227     3.043     1.086     1.015  0.8421  0.2295  0.4880
              Bcc     0.0317     4.258     1.519     1.420 -0.2206 -0.6791  0.7001
 
              Baa    -0.0596    -8.000    -2.855    -2.668  0.7662  0.1175  0.6318
    13 C(13)  Bbb    -0.0524    -7.033    -2.510    -2.346  0.1156  0.9419 -0.3154
              Bcc     0.1120    15.033     5.364     5.015 -0.6321  0.3147  0.7081
 
              Baa    -0.0759   -10.190    -3.636    -3.399  0.8962  0.3983  0.1955
    14 C(13)  Bbb    -0.0710    -9.529    -3.400    -3.179 -0.0596 -0.3285  0.9426
              Bcc     0.1470    19.720     7.037     6.578 -0.4397  0.8564  0.2707
 
              Baa    -0.0194    -2.609    -0.931    -0.870  0.5656 -0.5093  0.6486
    15 C(13)  Bbb     0.0085     1.140     0.407     0.380  0.8246  0.3365 -0.4548
              Bcc     0.0109     1.469     0.524     0.490  0.0133  0.7921  0.6103
 
              Baa    -0.0020    -0.267    -0.095    -0.089 -0.5484  0.7980  0.2499
    16 C(13)  Bbb    -0.0005    -0.063    -0.022    -0.021  0.8344  0.5420  0.1003
              Bcc     0.0025     0.330     0.118     0.110  0.0554 -0.2635  0.9631
 
              Baa    -0.0125    -1.672    -0.597    -0.558  0.2745  0.1287  0.9529
    17 C(13)  Bbb     0.0060     0.811     0.289     0.270  0.7812  0.5480 -0.2991
              Bcc     0.0064     0.861     0.307     0.287 -0.5607  0.8265  0.0499
 
              Baa    -0.0078    -1.051    -0.375    -0.350  0.8190 -0.2876 -0.4965
    18 C(13)  Bbb    -0.0074    -0.992    -0.354    -0.331  0.3688  0.9267  0.0717
              Bcc     0.0152     2.043     0.729     0.681  0.4395 -0.2418  0.8651
 
              Baa    -0.0158    -2.121    -0.757    -0.708 -0.2142  0.9194 -0.3298
    19 C(13)  Bbb    -0.0156    -2.089    -0.745    -0.697  0.9703  0.1615 -0.1799
              Bcc     0.0314     4.210     1.502     1.404  0.1122  0.3585  0.9268
 
              Baa    -0.0329    -4.421    -1.578    -1.475  0.7465 -0.5259  0.4075
    20 C(13)  Bbb    -0.0308    -4.129    -1.473    -1.377 -0.6363 -0.3853  0.6683
              Bcc     0.0637     8.550     3.051     2.852  0.1945  0.7582  0.6223
 
              Baa    -0.0168    -2.259    -0.806    -0.753  0.1253  0.5968  0.7926
    21 C(13)  Bbb     0.0077     1.031     0.368     0.344  0.7167 -0.6068  0.3436
              Bcc     0.0091     1.228     0.438     0.409  0.6860  0.5250 -0.5038
 
              Baa    -0.0459    -6.153    -2.196    -2.053  0.5159 -0.1109  0.8494
    22 C(13)  Bbb    -0.0452    -6.071    -2.166    -2.025  0.7883 -0.3268 -0.5214
              Bcc     0.0911    12.225     4.362     4.078  0.3354  0.9386 -0.0812
 
              Baa    -0.0342    -4.593    -1.639    -1.532  0.2982  0.9020  0.3122
    23 C(13)  Bbb     0.0156     2.098     0.749     0.700  0.8938 -0.3786  0.2402
              Bcc     0.0186     2.495     0.890     0.832 -0.3349 -0.2075  0.9191
 
              Baa    -0.0337    -4.520    -1.613    -1.508  0.2641  0.8337 -0.4850
    24 C(13)  Bbb     0.0161     2.159     0.770     0.720  0.8449 -0.4425 -0.3006
              Bcc     0.0176     2.362     0.843     0.788  0.4652  0.3303  0.8212
 
              Baa    -0.1121   -15.046    -5.369    -5.019 -0.4755 -0.2449  0.8449
    25 C(13)  Bbb     0.0442     5.936     2.118     1.980  0.7555 -0.6058  0.2496
              Bcc     0.0679     9.110     3.251     3.039  0.4507  0.7570  0.4731
 
              Baa    -0.0267    -3.582    -1.278    -1.195  0.8154 -0.4770 -0.3279
    26 C(13)  Bbb    -0.0254    -3.413    -1.218    -1.138  0.5586  0.5001  0.6617
              Bcc     0.0521     6.995     2.496     2.333  0.1517  0.7227 -0.6743
 
              Baa    -0.0785   -10.534    -3.759    -3.514 -0.3651  0.4081  0.8367
    27 C(13)  Bbb     0.0306     4.104     1.464     1.369  0.8870  0.4255  0.1795
              Bcc     0.0479     6.429     2.294     2.145 -0.2827  0.8077 -0.5174
 
              Baa    -0.2654   -35.617   -12.709   -11.881 -0.3945  0.8467 -0.3570
    28 C(13)  Bbb    -0.2589   -34.737   -12.395   -11.587  0.8091  0.5042  0.3019
              Bcc     0.5243    70.354    25.104    23.468 -0.4356  0.1697  0.8840
 
              Baa    -0.0589    -7.910    -2.822    -2.638 -0.4024  0.7596  0.5110
    29 C(13)  Bbb     0.0261     3.502     1.249     1.168  0.7490  0.5941 -0.2933
              Bcc     0.0329     4.408     1.573     1.470  0.5264 -0.2647  0.8080
 
              Baa    -0.0664    -8.907    -3.178    -2.971  0.5371  0.6779 -0.5021
    30 C(13)  Bbb    -0.0638    -8.563    -3.056    -2.856  0.7911 -0.1981  0.5788
              Bcc     0.1302    17.471     6.234     5.828 -0.2929  0.7080  0.6426
 
              Baa    -0.0011    -0.145    -0.052    -0.049 -0.1530  0.5391  0.8282
    31 C(13)  Bbb    -0.0006    -0.075    -0.027    -0.025  0.9537 -0.1390  0.2666
              Bcc     0.0016     0.220     0.079     0.073  0.2588  0.8307 -0.4929
 
              Baa    -0.0013    -0.169    -0.060    -0.056  0.8325 -0.1783  0.5246
    32 C(13)  Bbb    -0.0011    -0.146    -0.052    -0.049  0.0445  0.9653  0.2574
              Bcc     0.0023     0.315     0.112     0.105 -0.5523 -0.1910  0.8115
 
              Baa    -0.0052    -0.701    -0.250    -0.234  0.3136 -0.4260  0.8486
    33 C(13)  Bbb     0.0024     0.327     0.117     0.109  0.2830  0.8950  0.3448
              Bcc     0.0028     0.374     0.133     0.125  0.9064 -0.1320 -0.4012
 
              Baa    -0.0030    -0.403    -0.144    -0.135  0.0366  0.9958 -0.0843
    34 C(13)  Bbb     0.0009     0.125     0.045     0.042  0.2409  0.0731  0.9678
              Bcc     0.0021     0.279     0.099     0.093  0.9699 -0.0557 -0.2372
 
              Baa    -0.0187    -2.507    -0.894    -0.836 -0.0414  0.1308  0.9905
    35 C(13)  Bbb     0.0084     1.127     0.402     0.376 -0.2195  0.9660 -0.1368
              Bcc     0.0103     1.379     0.492     0.460  0.9747  0.2231  0.0113
 
              Baa    -0.0035    -0.473    -0.169    -0.158 -0.1059  0.9500  0.2937
    36 C(13)  Bbb    -0.0029    -0.384    -0.137    -0.128  0.9942  0.1068  0.0129
              Bcc     0.0064     0.857     0.306     0.286  0.0191 -0.2933  0.9558
 
              Baa    -0.0233    -3.125    -1.115    -1.042 -0.5273  0.7896 -0.3139
    37 C(13)  Bbb    -0.0223    -2.988    -1.066    -0.997  0.7454  0.6072  0.2753
              Bcc     0.0456     6.113     2.181     2.039 -0.4079  0.0888  0.9087
 
              Baa    -0.0125    -1.672    -0.597    -0.558  0.6950 -0.4473  0.5629
    38 C(13)  Bbb    -0.0116    -1.558    -0.556    -0.520  0.6955  0.6168 -0.3685
              Bcc     0.0241     3.230     1.153     1.077 -0.1823  0.6476  0.7398
 
              Baa    -0.0183    -2.457    -0.877    -0.820 -0.4737  0.3692  0.7995
    39 C(13)  Bbb     0.0084     1.129     0.403     0.377  0.8769  0.2814  0.3896
              Bcc     0.0099     1.328     0.474     0.443 -0.0812  0.8857 -0.4571
 
              Baa    -0.0056    -0.749    -0.267    -0.250  0.9779  0.1389  0.1563
    40 C(13)  Bbb    -0.0052    -0.694    -0.248    -0.231 -0.1104 -0.2920  0.9500
              Bcc     0.0108     1.443     0.515     0.481 -0.1776  0.9463  0.2702
 
              Baa    -0.0048    -0.647    -0.231    -0.216 -0.0383  0.9323 -0.3595
    41 C(13)  Bbb     0.0021     0.285     0.102     0.095  0.9992  0.0407 -0.0010
              Bcc     0.0027     0.363     0.129     0.121 -0.0137  0.3593  0.9331
 
              Baa    -0.0163    -2.186    -0.780    -0.729 -0.2838  0.8439  0.4552
    42 C(13)  Bbb     0.0079     1.057     0.377     0.352  0.9383  0.1467  0.3131
              Bcc     0.0084     1.130     0.403     0.377 -0.1974 -0.5160  0.8335
 
              Baa    -0.0071    -0.950    -0.339    -0.317 -0.4952  0.6291 -0.5992
    43 C(13)  Bbb     0.0033     0.445     0.159     0.148  0.2614  0.7656  0.5878
              Bcc     0.0038     0.505     0.180     0.168  0.8285  0.1344 -0.5436
 
              Baa    -0.0280    -3.763    -1.343    -1.255  0.0971  0.9226  0.3733
    44 C(13)  Bbb    -0.0255    -3.418    -1.220    -1.140  0.9730 -0.0090 -0.2308
              Bcc     0.0535     7.180     2.562     2.395  0.2096 -0.3856  0.8986
 
              Baa    -0.0915   -12.279    -4.381    -4.096 -0.0912  0.0701  0.9934
    45 C(13)  Bbb     0.0338     4.539     1.620     1.514 -0.0957  0.9923 -0.0788
              Bcc     0.0577     7.739     2.762     2.582  0.9912  0.1022  0.0838
 
              Baa    -0.0254    -3.410    -1.217    -1.137  0.4618 -0.3119  0.8304
    46 C(13)  Bbb     0.0112     1.501     0.535     0.501 -0.3754  0.7795  0.5015
              Bcc     0.0142     1.909     0.681     0.637  0.8037  0.5433 -0.2429
 
              Baa    -0.0074    -0.988    -0.352    -0.329 -0.2180  0.1836  0.9585
    47 C(13)  Bbb     0.0014     0.189     0.067     0.063  0.9519 -0.1766  0.2504
              Bcc     0.0060     0.799     0.285     0.266  0.2152  0.9670 -0.1363
 
              Baa    -0.1065   -14.294    -5.100    -4.768  0.3326  0.8640 -0.3779
    48 C(13)  Bbb    -0.1014   -13.607    -4.855    -4.539  0.9265 -0.3741 -0.0401
              Bcc     0.2079    27.901     9.956     9.307  0.1760  0.3368  0.9250
 
              Baa    -0.0026    -0.353    -0.126    -0.118  0.9200 -0.3434  0.1889
    49 C(13)  Bbb    -0.0011    -0.145    -0.052    -0.048 -0.1417  0.1580  0.9772
              Bcc     0.0037     0.498     0.178     0.166  0.3654  0.9258 -0.0967
 
              Baa    -0.0054    -0.729    -0.260    -0.243  0.1345  0.1931  0.9719
    50 C(13)  Bbb    -0.0030    -0.396    -0.141    -0.132  0.7761 -0.6304  0.0179
              Bcc     0.0084     1.126     0.402     0.375  0.6162  0.7519 -0.2347
 
              Baa    -0.0007    -0.095    -0.034    -0.032 -0.0007  0.9042  0.4272
    51 C(13)  Bbb    -0.0004    -0.053    -0.019    -0.018  0.9297 -0.1568  0.3334
              Bcc     0.0011     0.149     0.053     0.050 -0.3684 -0.3974  0.8405
 
              Baa    -0.0011    -0.149    -0.053    -0.050  0.8217 -0.5563  0.1235
    52 C(13)  Bbb    -0.0009    -0.115    -0.041    -0.039  0.3435  0.6565  0.6716
              Bcc     0.0020     0.264     0.094     0.088 -0.4547 -0.5095  0.7305
 
              Baa    -0.0087    -1.166    -0.416    -0.389 -0.6420 -0.1913  0.7424
    53 C(13)  Bbb     0.0035     0.473     0.169     0.158 -0.6205  0.6984 -0.3566
              Bcc     0.0052     0.693     0.247     0.231  0.4504  0.6896  0.5671
 
              Baa    -0.0012    -0.167    -0.060    -0.056  0.9205 -0.1357  0.3665
    54 C(13)  Bbb     0.0000     0.004     0.002     0.001 -0.3540  0.1079  0.9290
              Bcc     0.0012     0.162     0.058     0.054  0.1657  0.9848 -0.0513
 
              Baa    -0.0086    -1.157    -0.413    -0.386 -0.4292  0.8390 -0.3344
    55 C(13)  Bbb    -0.0079    -1.058    -0.377    -0.353  0.2848  0.4771  0.8314
              Bcc     0.0165     2.215     0.790     0.739  0.8571  0.2616 -0.4437
 
              Baa    -0.0013    -0.173    -0.062    -0.058  0.5888 -0.4624  0.6629
    56 C(13)  Bbb    -0.0003    -0.035    -0.012    -0.012 -0.1283  0.7563  0.6415
              Bcc     0.0015     0.208     0.074     0.069  0.7980  0.4628 -0.3860
 
              Baa    -0.0109    -1.468    -0.524    -0.490  0.4370  0.8983 -0.0459
    57 C(13)  Bbb    -0.0102    -1.372    -0.489    -0.458  0.4763 -0.1878  0.8590
              Bcc     0.0212     2.839     1.013     0.947  0.7630 -0.3973 -0.5099
 
              Baa    -0.0127    -1.700    -0.607    -0.567  0.7367 -0.6485 -0.1915
    58 C(13)  Bbb     0.0058     0.782     0.279     0.261  0.6737  0.6797  0.2901
              Bcc     0.0068     0.918     0.328     0.306 -0.0579 -0.3427  0.9376
 
              Baa    -0.0072    -0.967    -0.345    -0.323  0.6173  0.7866 -0.0117
    59 C(13)  Bbb    -0.0070    -0.933    -0.333    -0.311 -0.0329  0.0407  0.9986
              Bcc     0.0142     1.901     0.678     0.634  0.7860 -0.6161  0.0510
 
              Baa    -0.0137    -1.843    -0.658    -0.615  0.9542 -0.0851 -0.2867
    60 C(13)  Bbb     0.0061     0.816     0.291     0.272 -0.0001  0.9585 -0.2850
              Bcc     0.0077     1.027     0.367     0.343  0.2991  0.2720  0.9146
 
              Baa    -0.0529    -7.104    -2.535    -2.370  0.1904  0.9817  0.0043
    61 C(13)  Bbb    -0.0500    -6.703    -2.392    -2.236 -0.6768  0.1281  0.7249
              Bcc     0.1029    13.807     4.927     4.606  0.7111 -0.1409  0.6888
 
              Baa    -0.0447    -6.005    -2.143    -2.003  0.5058  0.2014  0.8388
    62 C(13)  Bbb     0.0174     2.331     0.832     0.778  0.3282  0.8544 -0.4030
              Bcc     0.0274     3.673     1.311     1.225  0.7978 -0.4791 -0.3660
 
              Baa    -0.0167    -2.238    -0.798    -0.746 -0.3179  0.8725 -0.3711
    63 C(13)  Bbb    -0.0145    -1.941    -0.693    -0.647 -0.6613  0.0764  0.7462
              Bcc     0.0311     4.179     1.491     1.394  0.6794  0.4826  0.5527
 
              Baa    -0.0156    -2.096    -0.748    -0.699  0.8836  0.3499  0.3113
    64 C(13)  Bbb     0.0068     0.914     0.326     0.305 -0.0830  0.7711 -0.6313
              Bcc     0.0088     1.182     0.422     0.394 -0.4609  0.5320  0.7103
 
              Baa    -0.0216    -2.904    -1.036    -0.969  0.8955 -0.2179  0.3881
    65 C(13)  Bbb     0.0088     1.184     0.422     0.395  0.1670  0.9728  0.1608
              Bcc     0.0128     1.720     0.614     0.574 -0.4126 -0.0792  0.9075
 
              Baa    -0.0227    -3.046    -1.087    -1.016  0.0170  0.9818 -0.1894
    66 C(13)  Bbb    -0.0212    -2.847    -1.016    -0.950 -0.1009  0.1901  0.9766
              Bcc     0.0439     5.893     2.103     1.966  0.9948  0.0025  0.1023
 
              Baa    -0.0281    -1.470    -0.525    -0.490  0.1469  0.9799 -0.1347
    67 Cl(35) Bbb    -0.0179    -0.939    -0.335    -0.313 -0.2096  0.1639  0.9640
              Bcc     0.0460     2.409     0.860     0.804  0.9667 -0.1134  0.2294
 
              Baa    -0.0013    -0.065    -0.023    -0.022 -0.5243 -0.4304  0.7348
    68 Cl(35) Bbb    -0.0002    -0.010    -0.004    -0.003 -0.2486  0.9027  0.3513
              Bcc     0.0014     0.076     0.027     0.025  0.8144 -0.0015  0.5803
 
              Baa    -0.0281    -1.472    -0.525    -0.491  0.9164 -0.2791  0.2871
    69 Cl(35) Bbb     0.0121     0.636     0.227     0.212 -0.3430 -0.1773  0.9225
              Bcc     0.0160     0.837     0.298     0.279  0.2065  0.9438  0.2582
 
              Baa    -0.0583    -3.052    -1.089    -1.018 -0.2060  0.5613  0.8016
    70 Cl(35) Bbb    -0.0457    -2.394    -0.854    -0.799  0.8898  0.4483 -0.0852
              Bcc     0.1041     5.446     1.943     1.817 -0.4072  0.6957 -0.5918
 
              Baa    -0.0309    -1.619    -0.578    -0.540  0.2783  0.9604  0.0148
    71 Cl(35) Bbb     0.0132     0.688     0.246     0.230 -0.1162  0.0184  0.9931
              Bcc     0.0178     0.930     0.332     0.310  0.9535 -0.2781  0.1167
 
              Baa    -0.1189    -6.225    -2.221    -2.077  0.6787  0.4390 -0.5887
    72 Cl(35) Bbb    -0.1023    -5.356    -1.911    -1.787  0.7319 -0.4701  0.4933
              Bcc     0.2213    11.582     4.133     3.863  0.0602  0.7657  0.6403
 
              Baa    -0.1325    -6.936    -2.475    -2.313  0.8435 -0.1891  0.5028
    73 Cl(35) Bbb    -0.1226    -6.419    -2.290    -2.141  0.2330  0.9721 -0.0252
              Bcc     0.2552    13.355     4.765     4.455 -0.4840  0.1384  0.8641
 

 ---------------------------------------------------------------------------------

 No NMR shielding tensors so no spin-rotation constants.
 Leave Link  601 at Fri Jul 15 08:51:12 2022, MaxMem=  1342177280 cpu:              99.8 elap:               2.3
 (Enter /home/mkliu/g16/l9999.exe)
 1\1\GINC-NODE02\FOpt\UB3LYP\6-311G(d,p)\C66Cl7(2)\MKLIU\15-Jul-2022\0\
 \#P opt b3lyp/6-311G(d, p) empiricaldispersion=GD3\\force\\0,2\C,-1.31
 541846,1.8637405312,-3.8896906765\C,0.2053427687,2.2847796505,-4.10383
 84488\C,0.9565203765,0.8641669777,-4.3091041769\C,-1.3373497044,0.3630
 700877,-3.9653969522\C,-0.1066786936,-0.1945661391,-4.2256450021\C,-2.
 2068045532,-0.1728546301,-3.0033486543\C,-1.9317237881,2.0774463703,-2
 .531462607\C,-2.6510797782,0.9303578821,-2.1575499374\C,-1.4289681448,
 2.9523592357,-1.5532775437\C,0.8807444394,2.9130366437,-2.7822008895\C
 ,-0.0279487882,3.2913832687,-1.6090055987\C,1.7903567747,0.6903268759,
 -3.0651316267\C,1.8118390269,1.8271369713,-2.2957735811\C,2.1796093472
 ,-0.5510760974,-2.5349884999\C,0.1815036947,-1.4396158025,-3.678141199
 2\C,1.5828136309,-1.8078269152,-3.1827894148\C,-1.9789069901,-1.439185
 2826,-2.4399607518\C,-0.7839177738,-2.0979125235,-2.8920412662\C,-2.49
 88844419,-1.7350572735,-1.0998472629\C,-3.0914972489,0.7049583642,-0.8
 338510297\C,-3.1070998718,-0.6590790841,-0.3049707229\C,-2.0802357922,
 2.8898518789,-0.2887313329\C,-2.9545496875,1.8067575311,0.0451085652\C
 ,-1.4202221197,3.303967639,0.9224253366\C,0.6385217848,3.4737720151,-0
 .3955601735\C,-0.0625661102,3.5753336468,0.8682705172\C,2.3681481261,1
 .8205289292,-1.0056277376\C,1.9227553741,2.8601937422,-0.1149477273\C,
 2.7983804297,-0.5803121008,-1.2651244054\C,2.9369031033,0.6126404825,-
 0.5162421155\C,3.1215707621,-1.9399772717,-0.6255357296\C,1.2837693831
 ,-2.8278301904,-2.1101488655\C,-0.1244443409,-3.056483422,-2.042924096
 1\C,2.0348100842,-2.9479056324,-0.9781054432\C,-1.9556616632,-2.841541
 8399,-0.4153723766\C,-0.7279994036,-3.4803888718,-0.8779139377\C,-1.94
 92250473,-2.9184730481,1.017145945\C,-3.1653122251,-0.8044632853,1.099
 7440213\C,-2.5596087731,-1.9214214369,1.7664442849\C,-2.9140808949,1.6
 166194828,1.4753122965\C,-1.9579869282,2.5456620879,2.0338140009\C,-3.
 039331872,0.3423682564,1.9913839631\C,-1.1351341273,2.1422420877,3.080
 6490695\C,0.806361174,3.1160799879,1.9272203415\C,2.032384462,2.660960
 0832,1.3051961379\C,0.2856402671,2.4390149849,3.0268974339\C,3.4583442
 029,0.5938283662,0.9184199337\C,2.7000508007,1.566067054,1.8131647154\
 C,3.009010945,-1.8845306733,0.8891654708\C,3.1872937211,-0.7330456501,
 1.5968173553\C,1.4465283146,-3.4741576636,0.2137557101\C,0.0809270334,
 -3.7879590096,0.2628847972\C,-0.6837919988,-3.4812851149,1.4507232421\
 C,2.0793578164,-2.8694000709,1.3593223936\C,-0.0571108521,-2.976368161
 7,2.5837016825\C,1.3617009613,-2.6707327196,2.5421055898\C,-1.95520049
 57,-1.4611896507,3.0009662661\C,-2.2523809752,-0.0541568336,3.13900279
 78\C,-1.2923668056,0.8217546369,3.6554986622\C,-0.7084365322,-1.956740
 6441,3.3844114649\C,0.9979602973,1.3074931626,3.5692067017\C,2.1862610
 495,0.8876130778,2.9578034886\C,2.4804492579,-0.5225605315,2.825768189
 3\C,1.5800156039,-1.4745975066,3.3053255086\C,0.0251741277,0.315927704
 8,3.98949134\C,0.308276103,-1.0414069274,3.8606581295\Cl,-2.5131602773
 ,2.5880408257,-5.0837422173\Cl,0.3851029597,3.3468659553,-5.5214036832
 \Cl,2.0011373774,0.7231422976,-5.7831607627\Cl,2.6833889843,-2.5165752
 129,-4.4713686089\Cl,4.8007724304,-2.4770528603,-1.1605914537\Cl,5.274
 2255783,0.9933544087,0.890813112\Cl,1.9060582197,4.4184228313,-3.14071
 91026\\Version=ES64L-G16RevA.03\State=2-A\HF=-5736.9887296\S2=0.788181
 \S2-1=0.\S2A=0.751385\RMSD=4.132e-09\RMSF=2.459e-05\Dipole=-1.5066408,
 -0.5037898,1.6188187\Quadrupole=-3.0184495,3.1798202,-0.1613706,2.6539
 629,0.5051547,2.6165246\PG=C01 [X(C66Cl7)]\\@


 THERE'S A SUCKER BORN EVERY MINUTE

              -- PHINEAS TAYLOR (P.T.) BARNUM
 Job cpu time:       5 days  0 hours 48 minutes  0.9 seconds.
 Elapsed time:       0 days  2 hours 31 minutes 15.1 seconds.
 File lengths (MBytes):  RWF=   2038 Int=      0 D2E=      0 Chk=    184 Scr=      1
 Normal termination of Gaussian 16 at Fri Jul 15 08:51:14 2022.
