 Entering Gaussian System, Link 0=g16
 Input=dn3hvaj77en7k_addon_9.gjf
 Output=dn3hvaj77en7k_addon_9.log
 Initial command:
 /home/mkliu/g16/l1.exe "/data/scratch/Gau-198569.inp" -scrdir="/data/scratch/"
 Entering Link 1 = /home/mkliu/g16/l1.exe PID=    198570.
  
 Copyright (c) 1988,1990,1992,1993,1995,1998,2003,2009,2016,
            Gaussian, Inc.  All Rights Reserved.
  
 This is part of the Gaussian(R) 16 program.  It is based on
 the Gaussian(R) 09 system (copyright 2009, Gaussian, Inc.),
 the Gaussian(R) 03 system (copyright 2003, Gaussian, Inc.),
 the Gaussian(R) 98 system (copyright 1998, Gaussian, Inc.),
 the Gaussian(R) 94 system (copyright 1995, Gaussian, Inc.),
 the Gaussian 92(TM) system (copyright 1992, Gaussian, Inc.),
 the Gaussian 90(TM) system (copyright 1990, Gaussian, Inc.),
 the Gaussian 88(TM) system (copyright 1988, Gaussian, Inc.),
 the Gaussian 86(TM) system (copyright 1986, Carnegie Mellon
 University), and the Gaussian 82(TM) system (copyright 1983,
 Carnegie Mellon University). Gaussian is a federally registered
 trademark of Gaussian, Inc.
  
 This software contains proprietary and confidential information,
 including trade secrets, belonging to Gaussian, Inc.
  
 This software is provided under written license and may be
 used, copied, transmitted, or stored only in accord with that
 written license.
  
 The following legend is applicable only to US Government
 contracts under FAR:
  
                    RESTRICTED RIGHTS LEGEND
  
 Use, reproduction and disclosure by the US Government is
 subject to restrictions as set forth in subparagraphs (a)
 and (c) of the Commercial Computer Software - Restricted
 Rights clause in FAR 52.227-19.
  
 Gaussian, Inc.
 340 Quinnipiac St., Bldg. 40, Wallingford CT 06492
  
  
 ---------------------------------------------------------------
 Warning -- This program may not be used in any manner that
 competes with the business of Gaussian, Inc. or will provide
 assistance to any competitor of Gaussian, Inc.  The licensee
 of this program is prohibited from giving any competitor of
 Gaussian, Inc. access to this program.  By using this program,
 the user acknowledges that Gaussian, Inc. is engaged in the
 business of creating and licensing software in the field of
 computational chemistry and represents and warrants to the
 licensee that it is not a competitor of Gaussian, Inc. and that
 it will not use this program in any manner prohibited above.
 ---------------------------------------------------------------
  

 Cite this work as:
 Gaussian 16, Revision A.03,
 M. J. Frisch, G. W. Trucks, H. B. Schlegel, G. E. Scuseria, 
 M. A. Robb, J. R. Cheeseman, G. Scalmani, V. Barone, 
 G. A. Petersson, H. Nakatsuji, X. Li, M. Caricato, A. V. Marenich, 
 J. Bloino, B. G. Janesko, R. Gomperts, B. Mennucci, H. P. Hratchian, 
 J. V. Ortiz, A. F. Izmaylov, J. L. Sonnenberg, D. Williams-Young, 
 F. Ding, F. Lipparini, F. Egidi, J. Goings, B. Peng, A. Petrone, 
 T. Henderson, D. Ranasinghe, V. G. Zakrzewski, J. Gao, N. Rega, 
 G. Zheng, W. Liang, M. Hada, M. Ehara, K. Toyota, R. Fukuda, 
 J. Hasegawa, M. Ishida, T. Nakajima, Y. Honda, O. Kitao, H. Nakai, 
 T. Vreven, K. Throssell, J. A. Montgomery, Jr., J. E. Peralta, 
 F. Ogliaro, M. J. Bearpark, J. J. Heyd, E. N. Brothers, K. N. Kudin, 
 V. N. Staroverov, T. A. Keith, R. Kobayashi, J. Normand, 
 K. Raghavachari, A. P. Rendell, J. C. Burant, S. S. Iyengar, 
 J. Tomasi, M. Cossi, J. M. Millam, M. Klene, C. Adamo, R. Cammi, 
 J. W. Ochterski, R. L. Martin, K. Morokuma, O. Farkas, 
 J. B. Foresman, and D. J. Fox, Gaussian, Inc., Wallingford CT, 2016.
 
 ******************************************
 Gaussian 16:  ES64L-G16RevA.03 25-Dec-2016
                14-Jul-2022 
 ******************************************
 %mem=10GB
 %chk=dn3hvaj77en7k_addon_9.chk
 %nprocshared=48
 Will use up to   48 processors via shared memory.
 -------------------------------------------------
 #P opt b3lyp/6-311G(d, p) empiricaldispersion=GD3
 -------------------------------------------------
 1/18=20,19=15,26=3,38=1/1,3;
 2/9=110,12=2,17=6,18=5,40=1/2;
 3/5=4,6=6,7=101,11=2,25=1,30=1,71=1,74=-5,124=31/1,2,3;
 4//1;
 5/5=2,38=5/2;
 6/7=2,8=2,9=2,10=2,28=1/1;
 7//1,2,3,16;
 1/18=20,19=15,26=3/3(2);
 2/9=110/2;
 99//99;
 2/9=110/2;
 3/5=4,6=6,7=101,11=2,25=1,30=1,71=1,74=-5,124=31/1,2,3;
 4/5=5,16=3,69=1/1;
 5/5=2,38=5/2;
 7//1,2,3,16;
 1/18=20,19=15,26=3/3(-5);
 2/9=110/2;
 6/7=2,8=2,9=2,10=2,19=2,28=1/1;
 99/9=1/99;
 Leave Link    1 at Thu Jul 14 21:42:44 2022, MaxMem=  1342177280 cpu:               2.2 elap:               0.1
 (Enter /home/mkliu/g16/l101.exe)
 -----
 force
 -----
 Symbolic Z-matrix:
 Charge =  0 Multiplicity = 2
 C                    -1.29753   1.88147  -3.88311 
 C                     0.20568   2.27026  -4.08182 
 C                     0.94135   0.89601  -4.28427 
 C                    -1.30122   0.386    -3.90566 
 C                    -0.11117  -0.15102  -4.18994 
 C                    -2.20172  -0.16147  -2.93872 
 C                    -1.89523   2.07748  -2.53653 
 C                    -2.60159   0.9059   -2.11979 
 C                    -1.38108   2.90126  -1.54221 
 C                     0.85144   2.90696  -2.80214 
 C                     0.01441   3.26398  -1.59654 
 C                     1.73632   0.69321  -3.02187 
 C                     1.76406   1.83262  -2.25413 
 C                     2.05407  -0.53839  -2.47349 
 C                     0.18645  -1.54786  -3.84833 
 C                     1.58369  -1.80405  -3.17656 
 C                    -1.93945  -1.42471  -2.36308 
 C                    -0.79061  -2.08254  -2.83176 
 C                    -2.4817   -1.73158  -1.04888 
 C                    -3.07194   0.67111  -0.79595 
 C                    -3.10506  -0.67796  -0.27491 
 C                    -2.01937   2.81254  -0.29134 
 C                    -2.91735   1.76015   0.05797 
 C                    -1.38402   3.22328   0.89961 
 C                     0.67299   3.44771  -0.40946 
 C                    -0.0362    3.49259   0.83757 
 C                     2.33151   1.81875  -0.99275 
 C                     2.10396   3.03626  -0.1286 
 C                     2.70573  -0.55953  -1.23474 
 C                     2.86018   0.62855  -0.49674 
 C                     3.08947  -1.90097  -0.62346 
 C                     1.27542  -2.81107  -2.10562 
 C                    -0.14419  -3.01489  -2.01542 
 C                     2.00383  -2.88288  -0.97015 
 C                    -1.94412  -2.83028  -0.37304 
 C                    -0.73537  -3.43522  -0.83656 
 C                    -1.95884  -2.92132   1.05784 
 C                    -3.16735  -0.82006   1.1216 
 C                    -2.57486  -1.93849   1.79644 
 C                    -2.90498   1.57701   1.47408 
 C                    -1.94455   2.49578   2.00735 
 C                    -3.05184   0.31128   2.00185 
 C                    -1.13387   2.09023   3.04234 
 C                     0.80891   3.05413   1.89538 
 C                     2.04873   2.65483   1.31857 
 C                     0.27261   2.38078   2.97889 
 C                     3.44392   0.60103   0.90631 
 C                     2.69121   1.55696   1.79227 
 C                     2.98575  -1.85925   0.87325 
 C                     3.16827  -0.71351   1.57605 
 C                     1.42439  -3.44018   0.22255 
 C                     0.07729  -3.74723   0.28192 
 C                    -0.69405  -3.46949   1.46579 
 C                     2.05218  -2.83623   1.34481 
 C                    -0.0704   -2.94794   2.57976 
 C                     1.33025  -2.63001   2.51047 
 C                    -1.97606  -1.47524   3.01847 
 C                    -2.27189  -0.07601   3.14337 
 C                    -1.3138    0.79316   3.63423 
 C                    -0.73211  -1.955     3.38056 
 C                     0.97191   1.26965   3.51989 
 C                     2.16018   0.87213   2.93063 
 C                     2.45312  -0.51457   2.80154 
 C                     1.54436  -1.44664   3.26477 
 C                    -0.00082   0.30256   3.95611 
 C                     0.28453  -1.04194   3.82944 
 Cl                   -2.39465   2.586    -5.12045 
 Cl                    0.39375   3.28837  -5.5227 
 Cl                    1.96262   0.73019  -5.72584 
 Cl                    2.84486  -2.34133  -4.31501 
 Cl                    4.74237  -2.35274  -1.17902 
 Cl                    5.20358   0.98283   0.75743 
 Cl                    3.37943   4.26792  -0.42179 
 Cl                    1.82692   4.36088  -3.23075 
 Cl                    0.02088  -2.55396  -5.37066 
 
 ITRead=  0  0  0  0  0  0  0  0  0  0  0  0  0  0  0  0  0  0  0  0
 ITRead=  0  0  0  0  0  0  0  0  0  0  0  0  0  0  0  0  0  0  0  0
 ITRead=  0  0  0  0  0  0  0  0  0  0  0  0  0  0  0  0  0  0  0  0
 ITRead=  0  0  0  0  0  0  0  0  0  0  0  0  0  0  0
 MicOpt= -1 -1 -1 -1 -1 -1 -1 -1 -1 -1 -1 -1 -1 -1 -1 -1 -1 -1 -1 -1
 MicOpt= -1 -1 -1 -1 -1 -1 -1 -1 -1 -1 -1 -1 -1 -1 -1 -1 -1 -1 -1 -1
 MicOpt= -1 -1 -1 -1 -1 -1 -1 -1 -1 -1 -1 -1 -1 -1 -1 -1 -1 -1 -1 -1
 MicOpt= -1 -1 -1 -1 -1 -1 -1 -1 -1 -1 -1 -1 -1 -1 -1
 NAtoms=     75 NQM=       75 NQMF=       0 NMMI=      0 NMMIF=      0
                NMic=       0 NMicF=      0.
                    Isotopes and Nuclear Properties:
 (Nuclear quadrupole moments (NQMom) in fm**2, nuclear magnetic moments (NMagM)
  in nuclear magnetons)

  Atom         1           2           3           4           5           6           7           8           9          10
 IAtWgt=          12          12          12          12          12          12          12          12          12          12
 AtmWgt=  12.0000000  12.0000000  12.0000000  12.0000000  12.0000000  12.0000000  12.0000000  12.0000000  12.0000000  12.0000000
 NucSpn=           0           0           0           0           0           0           0           0           0           0
 AtZEff=  -0.0000000  -0.0000000  -0.0000000  -0.0000000  -0.0000000  -0.0000000  -0.0000000  -0.0000000  -0.0000000  -0.0000000
 NQMom=    0.0000000   0.0000000   0.0000000   0.0000000   0.0000000   0.0000000   0.0000000   0.0000000   0.0000000   0.0000000
 NMagM=    0.0000000   0.0000000   0.0000000   0.0000000   0.0000000   0.0000000   0.0000000   0.0000000   0.0000000   0.0000000
 AtZNuc=   6.0000000   6.0000000   6.0000000   6.0000000   6.0000000   6.0000000   6.0000000   6.0000000   6.0000000   6.0000000

  Atom        11          12          13          14          15          16          17          18          19          20
 IAtWgt=          12          12          12          12          12          12          12          12          12          12
 AtmWgt=  12.0000000  12.0000000  12.0000000  12.0000000  12.0000000  12.0000000  12.0000000  12.0000000  12.0000000  12.0000000
 NucSpn=           0           0           0           0           0           0           0           0           0           0
 AtZEff=  -0.0000000  -0.0000000  -0.0000000  -0.0000000  -0.0000000  -0.0000000  -0.0000000  -0.0000000  -0.0000000  -0.0000000
 NQMom=    0.0000000   0.0000000   0.0000000   0.0000000   0.0000000   0.0000000   0.0000000   0.0000000   0.0000000   0.0000000
 NMagM=    0.0000000   0.0000000   0.0000000   0.0000000   0.0000000   0.0000000   0.0000000   0.0000000   0.0000000   0.0000000
 AtZNuc=   6.0000000   6.0000000   6.0000000   6.0000000   6.0000000   6.0000000   6.0000000   6.0000000   6.0000000   6.0000000

  Atom        21          22          23          24          25          26          27          28          29          30
 IAtWgt=          12          12          12          12          12          12          12          12          12          12
 AtmWgt=  12.0000000  12.0000000  12.0000000  12.0000000  12.0000000  12.0000000  12.0000000  12.0000000  12.0000000  12.0000000
 NucSpn=           0           0           0           0           0           0           0           0           0           0
 AtZEff=  -0.0000000  -0.0000000  -0.0000000  -0.0000000  -0.0000000  -0.0000000  -0.0000000  -0.0000000  -0.0000000  -0.0000000
 NQMom=    0.0000000   0.0000000   0.0000000   0.0000000   0.0000000   0.0000000   0.0000000   0.0000000   0.0000000   0.0000000
 NMagM=    0.0000000   0.0000000   0.0000000   0.0000000   0.0000000   0.0000000   0.0000000   0.0000000   0.0000000   0.0000000
 AtZNuc=   6.0000000   6.0000000   6.0000000   6.0000000   6.0000000   6.0000000   6.0000000   6.0000000   6.0000000   6.0000000

  Atom        31          32          33          34          35          36          37          38          39          40
 IAtWgt=          12          12          12          12          12          12          12          12          12          12
 AtmWgt=  12.0000000  12.0000000  12.0000000  12.0000000  12.0000000  12.0000000  12.0000000  12.0000000  12.0000000  12.0000000
 NucSpn=           0           0           0           0           0           0           0           0           0           0
 AtZEff=  -0.0000000  -0.0000000  -0.0000000  -0.0000000  -0.0000000  -0.0000000  -0.0000000  -0.0000000  -0.0000000  -0.0000000
 NQMom=    0.0000000   0.0000000   0.0000000   0.0000000   0.0000000   0.0000000   0.0000000   0.0000000   0.0000000   0.0000000
 NMagM=    0.0000000   0.0000000   0.0000000   0.0000000   0.0000000   0.0000000   0.0000000   0.0000000   0.0000000   0.0000000
 AtZNuc=   6.0000000   6.0000000   6.0000000   6.0000000   6.0000000   6.0000000   6.0000000   6.0000000   6.0000000   6.0000000

  Atom        41          42          43          44          45          46          47          48          49          50
 IAtWgt=          12          12          12          12          12          12          12          12          12          12
 AtmWgt=  12.0000000  12.0000000  12.0000000  12.0000000  12.0000000  12.0000000  12.0000000  12.0000000  12.0000000  12.0000000
 NucSpn=           0           0           0           0           0           0           0           0           0           0
 AtZEff=  -0.0000000  -0.0000000  -0.0000000  -0.0000000  -0.0000000  -0.0000000  -0.0000000  -0.0000000  -0.0000000  -0.0000000
 NQMom=    0.0000000   0.0000000   0.0000000   0.0000000   0.0000000   0.0000000   0.0000000   0.0000000   0.0000000   0.0000000
 NMagM=    0.0000000   0.0000000   0.0000000   0.0000000   0.0000000   0.0000000   0.0000000   0.0000000   0.0000000   0.0000000
 AtZNuc=   6.0000000   6.0000000   6.0000000   6.0000000   6.0000000   6.0000000   6.0000000   6.0000000   6.0000000   6.0000000

  Atom        51          52          53          54          55          56          57          58          59          60
 IAtWgt=          12          12          12          12          12          12          12          12          12          12
 AtmWgt=  12.0000000  12.0000000  12.0000000  12.0000000  12.0000000  12.0000000  12.0000000  12.0000000  12.0000000  12.0000000
 NucSpn=           0           0           0           0           0           0           0           0           0           0
 AtZEff=  -0.0000000  -0.0000000  -0.0000000  -0.0000000  -0.0000000  -0.0000000  -0.0000000  -0.0000000  -0.0000000  -0.0000000
 NQMom=    0.0000000   0.0000000   0.0000000   0.0000000   0.0000000   0.0000000   0.0000000   0.0000000   0.0000000   0.0000000
 NMagM=    0.0000000   0.0000000   0.0000000   0.0000000   0.0000000   0.0000000   0.0000000   0.0000000   0.0000000   0.0000000
 AtZNuc=   6.0000000   6.0000000   6.0000000   6.0000000   6.0000000   6.0000000   6.0000000   6.0000000   6.0000000   6.0000000

  Atom        61          62          63          64          65          66          67          68          69          70
 IAtWgt=          12          12          12          12          12          12          35          35          35          35
 AtmWgt=  12.0000000  12.0000000  12.0000000  12.0000000  12.0000000  12.0000000  34.9688527  34.9688527  34.9688527  34.9688527
 NucSpn=           0           0           0           0           0           0           3           3           3           3
 AtZEff=  -0.0000000  -0.0000000  -0.0000000  -0.0000000  -0.0000000  -0.0000000  -0.0000000  -0.0000000  -0.0000000  -0.0000000
 NQMom=    0.0000000   0.0000000   0.0000000   0.0000000   0.0000000   0.0000000  -8.1650000  -8.1650000  -8.1650000  -8.1650000
 NMagM=    0.0000000   0.0000000   0.0000000   0.0000000   0.0000000   0.0000000   0.8218740   0.8218740   0.8218740   0.8218740
 AtZNuc=   6.0000000   6.0000000   6.0000000   6.0000000   6.0000000   6.0000000  17.0000000  17.0000000  17.0000000  17.0000000

  Atom        71          72          73          74          75
 IAtWgt=          35          35          35          35          35
 AtmWgt=  34.9688527  34.9688527  34.9688527  34.9688527  34.9688527
 NucSpn=           3           3           3           3           3
 AtZEff=  -0.0000000  -0.0000000  -0.0000000  -0.0000000  -0.0000000
 NQMom=   -8.1650000  -8.1650000  -8.1650000  -8.1650000  -8.1650000
 NMagM=    0.8218740   0.8218740   0.8218740   0.8218740   0.8218740
 AtZNuc=  17.0000000  17.0000000  17.0000000  17.0000000  17.0000000
 Leave Link  101 at Thu Jul 14 21:42:44 2022, MaxMem=  1342177280 cpu:              13.7 elap:               0.3
 (Enter /home/mkliu/g16/l103.exe)

 GradGradGradGradGradGradGradGradGradGradGradGradGradGradGradGradGradGrad
 Berny optimization.
 Initialization pass.
                           ----------------------------
                           !    Initial Parameters    !
                           ! (Angstroms and Degrees)  !
 --------------------------                            --------------------------
 ! Name  Definition              Value          Derivative Info.                !
 --------------------------------------------------------------------------------
 ! R1    R(1,2)                  1.5653         estimate D2E/DX2                !
 ! R2    R(1,4)                  1.4956         estimate D2E/DX2                !
 ! R3    R(1,7)                  1.4863         estimate D2E/DX2                !
 ! R4    R(1,67)                 1.7975         estimate D2E/DX2                !
 ! R5    R(2,3)                  1.5719         estimate D2E/DX2                !
 ! R6    R(2,10)                 1.5684         estimate D2E/DX2                !
 ! R7    R(2,68)                 1.7743         estimate D2E/DX2                !
 ! R8    R(3,5)                  1.4876         estimate D2E/DX2                !
 ! R9    R(3,12)                 1.5056         estimate D2E/DX2                !
 ! R10   R(3,69)                 1.7744         estimate D2E/DX2                !
 ! R11   R(4,5)                  1.3362         estimate D2E/DX2                !
 ! R12   R(4,6)                  1.4303         estimate D2E/DX2                !
 ! R13   R(5,15)                 1.4685         estimate D2E/DX2                !
 ! R14   R(6,8)                  1.4035         estimate D2E/DX2                !
 ! R15   R(6,17)                 1.4128         estimate D2E/DX2                !
 ! R16   R(7,8)                  1.4301         estimate D2E/DX2                !
 ! R17   R(7,9)                  1.3898         estimate D2E/DX2                !
 ! R18   R(8,20)                 1.4244         estimate D2E/DX2                !
 ! R19   R(9,11)                 1.4429         estimate D2E/DX2                !
 ! R20   R(9,22)                 1.4071         estimate D2E/DX2                !
 ! R21   R(10,11)                1.5105         estimate D2E/DX2                !
 ! R22   R(10,13)                1.5124         estimate D2E/DX2                !
 ! R23   R(10,74)                1.8025         estimate D2E/DX2                !
 ! R24   R(11,25)                1.3699         estimate D2E/DX2                !
 ! R25   R(12,13)                1.3742         estimate D2E/DX2                !
 ! R26   R(12,14)                1.3851         estimate D2E/DX2                !
 ! R27   R(13,27)                1.3832         estimate D2E/DX2                !
 ! R28   R(14,16)                1.5223         estimate D2E/DX2                !
 ! R29   R(14,29)                1.3999         estimate D2E/DX2                !
 ! R30   R(15,16)                1.5714         estimate D2E/DX2                !
 ! R31   R(15,18)                1.508          estimate D2E/DX2                !
 ! R32   R(15,75)                1.8322         estimate D2E/DX2                !
 ! R33   R(16,32)                1.502          estimate D2E/DX2                !
 ! R34   R(16,70)                1.7819         estimate D2E/DX2                !
 ! R35   R(17,18)                1.4044         estimate D2E/DX2                !
 ! R36   R(17,19)                1.4544         estimate D2E/DX2                !
 ! R37   R(18,33)                1.3977         estimate D2E/DX2                !
 ! R38   R(19,21)                1.4484         estimate D2E/DX2                !
 ! R39   R(19,35)                1.3975         estimate D2E/DX2                !
 ! R40   R(20,21)                1.4466         estimate D2E/DX2                !
 ! R41   R(20,23)                1.3925         estimate D2E/DX2                !
 ! R42   R(21,38)                1.4051         estimate D2E/DX2                !
 ! R43   R(22,23)                1.4269         estimate D2E/DX2                !
 ! R44   R(22,24)                1.4109         estimate D2E/DX2                !
 ! R45   R(23,40)                1.428          estimate D2E/DX2                !
 ! R46   R(24,26)                1.3759         estimate D2E/DX2                !
 ! R47   R(24,41)                1.4389         estimate D2E/DX2                !
 ! R48   R(25,26)                1.4353         estimate D2E/DX2                !
 ! R49   R(25,28)                1.5152         estimate D2E/DX2                !
 ! R50   R(26,44)                1.4232         estimate D2E/DX2                !
 ! R51   R(27,28)                1.5103         estimate D2E/DX2                !
 ! R52   R(27,30)                1.3936         estimate D2E/DX2                !
 ! R53   R(28,45)                1.4976         estimate D2E/DX2                !
 ! R54   R(28,73)                1.7971         estimate D2E/DX2                !
 ! R55   R(29,30)                1.4071         estimate D2E/DX2                !
 ! R56   R(29,31)                1.5233         estimate D2E/DX2                !
 ! R57   R(30,47)                1.5199         estimate D2E/DX2                !
 ! R58   R(31,34)                1.5043         estimate D2E/DX2                !
 ! R59   R(31,49)                1.5009         estimate D2E/DX2                !
 ! R60   R(31,71)                1.8013         estimate D2E/DX2                !
 ! R61   R(32,33)                1.437          estimate D2E/DX2                !
 ! R62   R(32,34)                1.3509         estimate D2E/DX2                !
 ! R63   R(33,36)                1.3841         estimate D2E/DX2                !
 ! R64   R(34,51)                1.4384         estimate D2E/DX2                !
 ! R65   R(35,36)                1.4289         estimate D2E/DX2                !
 ! R66   R(35,37)                1.4338         estimate D2E/DX2                !
 ! R67   R(36,52)                1.4173         estimate D2E/DX2                !
 ! R68   R(37,39)                1.3751         estimate D2E/DX2                !
 ! R69   R(37,53)                1.4376         estimate D2E/DX2                !
 ! R70   R(38,39)                1.4343         estimate D2E/DX2                !
 ! R71   R(38,42)                1.4381         estimate D2E/DX2                !
 ! R72   R(39,57)                1.4375         estimate D2E/DX2                !
 ! R73   R(40,41)                1.4321         estimate D2E/DX2                !
 ! R74   R(40,42)                1.3792         estimate D2E/DX2                !
 ! R75   R(41,43)                1.3758         estimate D2E/DX2                !
 ! R76   R(42,58)                1.4358         estimate D2E/DX2                !
 ! R77   R(43,46)                1.4376         estimate D2E/DX2                !
 ! R78   R(43,59)                1.437          estimate D2E/DX2                !
 ! R79   R(44,45)                1.4245         estimate D2E/DX2                !
 ! R80   R(44,46)                1.3838         estimate D2E/DX2                !
 ! R81   R(45,48)                1.3574         estimate D2E/DX2                !
 ! R82   R(46,61)                1.42           estimate D2E/DX2                !
 ! R83   R(47,48)                1.5051         estimate D2E/DX2                !
 ! R84   R(47,50)                1.5008         estimate D2E/DX2                !
 ! R85   R(47,72)                1.8067         estimate D2E/DX2                !
 ! R86   R(48,62)                1.4307         estimate D2E/DX2                !
 ! R87   R(49,50)                1.3565         estimate D2E/DX2                !
 ! R88   R(49,54)                1.4312         estimate D2E/DX2                !
 ! R89   R(50,63)                1.4328         estimate D2E/DX2                !
 ! R90   R(51,52)                1.3829         estimate D2E/DX2                !
 ! R91   R(51,54)                1.4207         estimate D2E/DX2                !
 ! R92   R(52,53)                1.44           estimate D2E/DX2                !
 ! R93   R(53,55)                1.3791         estimate D2E/DX2                !
 ! R94   R(54,56)                1.3865         estimate D2E/DX2                !
 ! R95   R(55,56)                1.4379         estimate D2E/DX2                !
 ! R96   R(55,60)                1.437          estimate D2E/DX2                !
 ! R97   R(56,64)                1.4196         estimate D2E/DX2                !
 ! R98   R(57,58)                1.4356         estimate D2E/DX2                !
 ! R99   R(57,60)                1.3816         estimate D2E/DX2                !
 ! R100  R(58,59)                1.3836         estimate D2E/DX2                !
 ! R101  R(59,65)                1.4381         estimate D2E/DX2                !
 ! R102  R(60,66)                1.4383         estimate D2E/DX2                !
 ! R103  R(61,62)                1.3846         estimate D2E/DX2                !
 ! R104  R(61,65)                1.4394         estimate D2E/DX2                !
 ! R105  R(62,63)                1.4232         estimate D2E/DX2                !
 ! R106  R(63,64)                1.3817         estimate D2E/DX2                !
 ! R107  R(64,66)                1.4387         estimate D2E/DX2                !
 ! R108  R(65,66)                1.3803         estimate D2E/DX2                !
 ! A1    A(2,1,4)              104.4065         estimate D2E/DX2                !
 ! A2    A(2,1,7)              117.9337         estimate D2E/DX2                !
 ! A3    A(2,1,67)             113.6651         estimate D2E/DX2                !
 ! A4    A(4,1,7)               98.3106         estimate D2E/DX2                !
 ! A5    A(4,1,67)             112.3348         estimate D2E/DX2                !
 ! A6    A(7,1,67)             109.0584         estimate D2E/DX2                !
 ! A7    A(1,2,3)              104.3975         estimate D2E/DX2                !
 ! A8    A(1,2,10)             113.1185         estimate D2E/DX2                !
 ! A9    A(1,2,68)             110.3291         estimate D2E/DX2                !
 ! A10   A(3,2,10)             105.5032         estimate D2E/DX2                !
 ! A11   A(3,2,68)             110.333          estimate D2E/DX2                !
 ! A12   A(10,2,68)            112.7061         estimate D2E/DX2                !
 ! A13   A(2,3,5)              106.0241         estimate D2E/DX2                !
 ! A14   A(2,3,12)             104.8864         estimate D2E/DX2                !
 ! A15   A(2,3,69)             117.1103         estimate D2E/DX2                !
 ! A16   A(5,3,12)             103.039          estimate D2E/DX2                !
 ! A17   A(5,3,69)             113.1386         estimate D2E/DX2                !
 ! A18   A(12,3,69)            111.3893         estimate D2E/DX2                !
 ! A19   A(1,4,5)              113.7577         estimate D2E/DX2                !
 ! A20   A(1,4,6)              111.968          estimate D2E/DX2                !
 ! A21   A(5,4,6)              123.4181         estimate D2E/DX2                !
 ! A22   A(3,5,4)              111.1468         estimate D2E/DX2                !
 ! A23   A(3,5,15)             122.7415         estimate D2E/DX2                !
 ! A24   A(4,5,15)             120.8848         estimate D2E/DX2                !
 ! A25   A(4,6,8)              106.4249         estimate D2E/DX2                !
 ! A26   A(4,6,17)             120.0558         estimate D2E/DX2                !
 ! A27   A(8,6,17)             119.6801         estimate D2E/DX2                !
 ! A28   A(1,7,8)              110.7694         estimate D2E/DX2                !
 ! A29   A(1,7,9)              125.2815         estimate D2E/DX2                !
 ! A30   A(8,7,9)              117.375          estimate D2E/DX2                !
 ! A31   A(6,8,7)              108.1959         estimate D2E/DX2                !
 ! A32   A(6,8,20)             120.732          estimate D2E/DX2                !
 ! A33   A(7,8,20)             124.6779         estimate D2E/DX2                !
 ! A34   A(7,9,11)             118.6749         estimate D2E/DX2                !
 ! A35   A(7,9,22)             115.5189         estimate D2E/DX2                !
 ! A36   A(11,9,22)            119.212          estimate D2E/DX2                !
 ! A37   A(2,10,11)            121.2657         estimate D2E/DX2                !
 ! A38   A(2,10,13)            104.816          estimate D2E/DX2                !
 ! A39   A(2,10,74)            110.8695         estimate D2E/DX2                !
 ! A40   A(11,10,13)           102.3026         estimate D2E/DX2                !
 ! A41   A(11,10,74)           107.399          estimate D2E/DX2                !
 ! A42   A(13,10,74)           109.4251         estimate D2E/DX2                !
 ! A43   A(9,11,10)            120.4367         estimate D2E/DX2                !
 ! A44   A(9,11,25)            117.7774         estimate D2E/DX2                !
 ! A45   A(10,11,25)           117.1896         estimate D2E/DX2                !
 ! A46   A(3,12,13)            111.5563         estimate D2E/DX2                !
 ! A47   A(3,12,14)            124.9504         estimate D2E/DX2                !
 ! A48   A(13,12,14)           120.7588         estimate D2E/DX2                !
 ! A49   A(10,13,12)           111.9851         estimate D2E/DX2                !
 ! A50   A(10,13,27)           125.8099         estimate D2E/DX2                !
 ! A51   A(12,13,27)           120.6265         estimate D2E/DX2                !
 ! A52   A(12,14,16)           119.0471         estimate D2E/DX2                !
 ! A53   A(12,14,29)           118.0712         estimate D2E/DX2                !
 ! A54   A(16,14,29)           122.6815         estimate D2E/DX2                !
 ! A55   A(5,15,16)            115.7695         estimate D2E/DX2                !
 ! A56   A(5,15,18)            111.2704         estimate D2E/DX2                !
 ! A57   A(5,15,75)            108.1027         estimate D2E/DX2                !
 ! A58   A(16,15,18)           103.3049         estimate D2E/DX2                !
 ! A59   A(16,15,75)           110.2445         estimate D2E/DX2                !
 ! A60   A(18,15,75)           107.87           estimate D2E/DX2                !
 ! A61   A(14,16,15)           109.6722         estimate D2E/DX2                !
 ! A62   A(14,16,32)           106.9498         estimate D2E/DX2                !
 ! A63   A(14,16,70)           109.0901         estimate D2E/DX2                !
 ! A64   A(15,16,32)           103.393          estimate D2E/DX2                !
 ! A65   A(15,16,70)           113.9132         estimate D2E/DX2                !
 ! A66   A(32,16,70)           113.4933         estimate D2E/DX2                !
 ! A67   A(6,17,18)            115.7679         estimate D2E/DX2                !
 ! A68   A(6,17,19)            119.1842         estimate D2E/DX2                !
 ! A69   A(18,17,19)           120.5121         estimate D2E/DX2                !
 ! A70   A(15,18,17)           126.0819         estimate D2E/DX2                !
 ! A71   A(15,18,33)           109.3048         estimate D2E/DX2                !
 ! A72   A(17,18,33)           119.7279         estimate D2E/DX2                !
 ! A73   A(17,19,21)           119.3297         estimate D2E/DX2                !
 ! A74   A(17,19,35)           117.3524         estimate D2E/DX2                !
 ! A75   A(21,19,35)           118.6242         estimate D2E/DX2                !
 ! A76   A(8,20,21)            119.7386         estimate D2E/DX2                !
 ! A77   A(8,20,23)            113.8512         estimate D2E/DX2                !
 ! A78   A(21,20,23)           120.7319         estimate D2E/DX2                !
 ! A79   A(19,21,20)           118.4308         estimate D2E/DX2                !
 ! A80   A(19,21,38)           118.465          estimate D2E/DX2                !
 ! A81   A(20,21,38)           116.9565         estimate D2E/DX2                !
 ! A82   A(9,22,23)            123.3401         estimate D2E/DX2                !
 ! A83   A(9,22,24)            121.8532         estimate D2E/DX2                !
 ! A84   A(23,22,24)           106.9458         estimate D2E/DX2                !
 ! A85   A(20,23,22)           119.7734         estimate D2E/DX2                !
 ! A86   A(20,23,40)           120.5837         estimate D2E/DX2                !
 ! A87   A(22,23,40)           109.3853         estimate D2E/DX2                !
 ! A88   A(22,24,26)           117.3899         estimate D2E/DX2                !
 ! A89   A(22,24,41)           109.0995         estimate D2E/DX2                !
 ! A90   A(26,24,41)           121.0162         estimate D2E/DX2                !
 ! A91   A(11,25,26)           121.3014         estimate D2E/DX2                !
 ! A92   A(11,25,28)           125.3254         estimate D2E/DX2                !
 ! A93   A(26,25,28)           108.3053         estimate D2E/DX2                !
 ! A94   A(24,26,25)           121.1378         estimate D2E/DX2                !
 ! A95   A(24,26,44)           119.2025         estimate D2E/DX2                !
 ! A96   A(25,26,44)           110.044          estimate D2E/DX2                !
 ! A97   A(13,27,28)           116.8655         estimate D2E/DX2                !
 ! A98   A(13,27,30)           119.2592         estimate D2E/DX2                !
 ! A99   A(28,27,30)           122.8206         estimate D2E/DX2                !
 ! A100  A(25,28,27)           104.7821         estimate D2E/DX2                !
 ! A101  A(25,28,45)           102.3246         estimate D2E/DX2                !
 ! A102  A(25,28,73)           116.9951         estimate D2E/DX2                !
 ! A103  A(27,28,45)           110.68           estimate D2E/DX2                !
 ! A104  A(27,28,73)           110.6229         estimate D2E/DX2                !
 ! A105  A(45,28,73)           111.0003         estimate D2E/DX2                !
 ! A106  A(14,29,30)           120.1623         estimate D2E/DX2                !
 ! A107  A(14,29,31)           119.0571         estimate D2E/DX2                !
 ! A108  A(30,29,31)           120.3591         estimate D2E/DX2                !
 ! A109  A(27,30,29)           119.5244         estimate D2E/DX2                !
 ! A110  A(27,30,47)           119.3222         estimate D2E/DX2                !
 ! A111  A(29,30,47)           120.7318         estimate D2E/DX2                !
 ! A112  A(29,31,34)           107.4889         estimate D2E/DX2                !
 ! A113  A(29,31,49)           110.9953         estimate D2E/DX2                !
 ! A114  A(29,31,71)           109.163          estimate D2E/DX2                !
 ! A115  A(34,31,49)           101.4252         estimate D2E/DX2                !
 ! A116  A(34,31,71)           115.305          estimate D2E/DX2                !
 ! A117  A(49,31,71)           112.2061         estimate D2E/DX2                !
 ! A118  A(16,32,33)           110.0357         estimate D2E/DX2                !
 ! A119  A(16,32,34)           121.6186         estimate D2E/DX2                !
 ! A120  A(33,32,34)           118.1878         estimate D2E/DX2                !
 ! A121  A(18,33,32)           109.0028         estimate D2E/DX2                !
 ! A122  A(18,33,36)           120.1639         estimate D2E/DX2                !
 ! A123  A(32,33,36)           121.2296         estimate D2E/DX2                !
 ! A124  A(31,34,32)           123.2388         estimate D2E/DX2                !
 ! A125  A(31,34,51)           110.6421         estimate D2E/DX2                !
 ! A126  A(32,34,51)           120.0228         estimate D2E/DX2                !
 ! A127  A(19,35,36)           120.0905         estimate D2E/DX2                !
 ! A128  A(19,35,37)           121.9105         estimate D2E/DX2                !
 ! A129  A(36,35,37)           107.789          estimate D2E/DX2                !
 ! A130  A(33,36,35)           120.5974         estimate D2E/DX2                !
 ! A131  A(33,36,52)           119.6086         estimate D2E/DX2                !
 ! A132  A(35,36,52)           108.798          estimate D2E/DX2                !
 ! A133  A(35,37,39)           119.6844         estimate D2E/DX2                !
 ! A134  A(35,37,53)           107.3601         estimate D2E/DX2                !
 ! A135  A(39,37,53)           120.947          estimate D2E/DX2                !
 ! A136  A(21,38,39)           121.8809         estimate D2E/DX2                !
 ! A137  A(21,38,42)           121.6839         estimate D2E/DX2                !
 ! A138  A(39,38,42)           106.994          estimate D2E/DX2                !
 ! A139  A(37,39,38)           119.3173         estimate D2E/DX2                !
 ! A140  A(37,39,57)           120.0204         estimate D2E/DX2                !
 ! A141  A(38,39,57)           108.7076         estimate D2E/DX2                !
 ! A142  A(23,40,41)           107.0263         estimate D2E/DX2                !
 ! A143  A(23,40,42)           119.7536         estimate D2E/DX2                !
 ! A144  A(41,40,42)           121.1774         estimate D2E/DX2                !
 ! A145  A(24,41,40)           107.3938         estimate D2E/DX2                !
 ! A146  A(24,41,43)           119.9087         estimate D2E/DX2                !
 ! A147  A(40,41,43)           119.0898         estimate D2E/DX2                !
 ! A148  A(38,42,40)           119.7554         estimate D2E/DX2                !
 ! A149  A(38,42,58)           108.5465         estimate D2E/DX2                !
 ! A150  A(40,42,58)           119.6009         estimate D2E/DX2                !
 ! A151  A(41,43,46)           118.928          estimate D2E/DX2                !
 ! A152  A(41,43,59)           120.1405         estimate D2E/DX2                !
 ! A153  A(46,43,59)           108.8507         estimate D2E/DX2                !
 ! A154  A(26,44,45)           107.5908         estimate D2E/DX2                !
 ! A155  A(26,44,46)           120.1152         estimate D2E/DX2                !
 ! A156  A(45,44,46)           121.1937         estimate D2E/DX2                !
 ! A157  A(28,45,44)           110.6084         estimate D2E/DX2                !
 ! A158  A(28,45,48)           121.72           estimate D2E/DX2                !
 ! A159  A(44,45,48)           119.8251         estimate D2E/DX2                !
 ! A160  A(43,46,44)           120.8015         estimate D2E/DX2                !
 ! A161  A(43,46,61)           107.8698         estimate D2E/DX2                !
 ! A162  A(44,46,61)           119.2229         estimate D2E/DX2                !
 ! A163  A(30,47,48)           109.8654         estimate D2E/DX2                !
 ! A164  A(30,47,50)           110.9315         estimate D2E/DX2                !
 ! A165  A(30,47,72)           107.1076         estimate D2E/DX2                !
 ! A166  A(48,47,50)           101.6399         estimate D2E/DX2                !
 ! A167  A(48,47,72)           113.6636         estimate D2E/DX2                !
 ! A168  A(50,47,72)           113.6244         estimate D2E/DX2                !
 ! A169  A(45,48,47)           123.0242         estimate D2E/DX2                !
 ! A170  A(45,48,62)           119.2845         estimate D2E/DX2                !
 ! A171  A(47,48,62)           110.486          estimate D2E/DX2                !
 ! A172  A(31,49,50)           122.0629         estimate D2E/DX2                !
 ! A173  A(31,49,54)           110.7731         estimate D2E/DX2                !
 ! A174  A(50,49,54)           119.5803         estimate D2E/DX2                !
 ! A175  A(47,50,49)           122.2302         estimate D2E/DX2                !
 ! A176  A(47,50,63)           110.5938         estimate D2E/DX2                !
 ! A177  A(49,50,63)           119.5562         estimate D2E/DX2                !
 ! A178  A(34,51,52)           120.9331         estimate D2E/DX2                !
 ! A179  A(34,51,54)           108.1986         estimate D2E/DX2                !
 ! A180  A(52,51,54)           119.4007         estimate D2E/DX2                !
 ! A181  A(36,52,51)           118.4093         estimate D2E/DX2                !
 ! A182  A(36,52,53)           107.4093         estimate D2E/DX2                !
 ! A183  A(51,52,53)           120.9468         estimate D2E/DX2                !
 ! A184  A(37,53,52)           108.1501         estimate D2E/DX2                !
 ! A185  A(37,53,55)           118.8744         estimate D2E/DX2                !
 ! A186  A(52,53,55)           119.6555         estimate D2E/DX2                !
 ! A187  A(49,54,51)           108.5514         estimate D2E/DX2                !
 ! A188  A(49,54,56)           121.0038         estimate D2E/DX2                !
 ! A189  A(51,54,56)           119.8187         estimate D2E/DX2                !
 ! A190  A(53,55,56)           119.0247         estimate D2E/DX2                !
 ! A191  A(53,55,60)           120.2123         estimate D2E/DX2                !
 ! A192  A(56,55,60)           108.8205         estimate D2E/DX2                !
 ! A193  A(54,56,55)           120.9836         estimate D2E/DX2                !
 ! A194  A(54,56,64)           119.483          estimate D2E/DX2                !
 ! A195  A(55,56,64)           107.7957         estimate D2E/DX2                !
 ! A196  A(39,57,58)           107.5904         estimate D2E/DX2                !
 ! A197  A(39,57,60)           119.0748         estimate D2E/DX2                !
 ! A198  A(58,57,60)           120.0797         estimate D2E/DX2                !
 ! A199  A(42,58,57)           107.7994         estimate D2E/DX2                !
 ! A200  A(42,58,59)           119.2604         estimate D2E/DX2                !
 ! A201  A(57,58,59)           120.0298         estimate D2E/DX2                !
 ! A202  A(43,59,58)           120.5034         estimate D2E/DX2                !
 ! A203  A(43,59,65)           106.6055         estimate D2E/DX2                !
 ! A204  A(58,59,65)           119.8222         estimate D2E/DX2                !
 ! A205  A(55,60,57)           120.564          estimate D2E/DX2                !
 ! A206  A(55,60,66)           106.6832         estimate D2E/DX2                !
 ! A207  A(57,60,66)           119.8528         estimate D2E/DX2                !
 ! A208  A(46,61,62)           119.0215         estimate D2E/DX2                !
 ! A209  A(46,61,65)           107.9632         estimate D2E/DX2                !
 ! A210  A(62,61,65)           121.0671         estimate D2E/DX2                !
 ! A211  A(48,62,61)           121.3141         estimate D2E/DX2                !
 ! A212  A(48,62,63)           108.5317         estimate D2E/DX2                !
 ! A213  A(61,62,63)           119.6687         estimate D2E/DX2                !
 ! A214  A(50,63,62)           108.3981         estimate D2E/DX2                !
 ! A215  A(50,63,64)           121.4239         estimate D2E/DX2                !
 ! A216  A(62,63,64)           119.4386         estimate D2E/DX2                !
 ! A217  A(56,64,63)           118.9068         estimate D2E/DX2                !
 ! A218  A(56,64,66)           108.1177         estimate D2E/DX2                !
 ! A219  A(63,64,66)           121.1819         estimate D2E/DX2                !
 ! A220  A(59,65,61)           108.6603         estimate D2E/DX2                !
 ! A221  A(59,65,66)           120.0328         estimate D2E/DX2                !
 ! A222  A(61,65,66)           119.1405         estimate D2E/DX2                !
 ! A223  A(60,66,64)           108.5353         estimate D2E/DX2                !
 ! A224  A(60,66,65)           120.0587         estimate D2E/DX2                !
 ! A225  A(64,66,65)           119.4107         estimate D2E/DX2                !
 ! D1    D(4,1,2,3)              3.0241         estimate D2E/DX2                !
 ! D2    D(4,1,2,10)          -111.1587         estimate D2E/DX2                !
 ! D3    D(4,1,2,68)           121.5581         estimate D2E/DX2                !
 ! D4    D(7,1,2,3)            110.7891         estimate D2E/DX2                !
 ! D5    D(7,1,2,10)            -3.3937         estimate D2E/DX2                !
 ! D6    D(7,1,2,68)          -130.6769         estimate D2E/DX2                !
 ! D7    D(67,1,2,3)          -119.7246         estimate D2E/DX2                !
 ! D8    D(67,1,2,10)          126.0927         estimate D2E/DX2                !
 ! D9    D(67,1,2,68)           -1.1906         estimate D2E/DX2                !
 ! D10   D(2,1,4,5)             -5.2959         estimate D2E/DX2                !
 ! D11   D(2,1,4,6)            140.4352         estimate D2E/DX2                !
 ! D12   D(7,1,4,5)           -127.0526         estimate D2E/DX2                !
 ! D13   D(7,1,4,6)             18.6784         estimate D2E/DX2                !
 ! D14   D(67,1,4,5)           118.3163         estimate D2E/DX2                !
 ! D15   D(67,1,4,6)           -95.9526         estimate D2E/DX2                !
 ! D16   D(2,1,7,8)           -131.6202         estimate D2E/DX2                !
 ! D17   D(2,1,7,9)             18.9272         estimate D2E/DX2                !
 ! D18   D(4,1,7,8)            -20.3941         estimate D2E/DX2                !
 ! D19   D(4,1,7,9)            130.1534         estimate D2E/DX2                !
 ! D20   D(67,1,7,8)            96.7859         estimate D2E/DX2                !
 ! D21   D(67,1,7,9)          -112.6667         estimate D2E/DX2                !
 ! D22   D(1,2,3,5)             -0.2882         estimate D2E/DX2                !
 ! D23   D(1,2,3,12)          -108.9046         estimate D2E/DX2                !
 ! D24   D(1,2,3,69)           127.0371         estimate D2E/DX2                !
 ! D25   D(10,2,3,5)           119.1759         estimate D2E/DX2                !
 ! D26   D(10,2,3,12)           10.5595         estimate D2E/DX2                !
 ! D27   D(10,2,3,69)         -113.4988         estimate D2E/DX2                !
 ! D28   D(68,2,3,5)          -118.8195         estimate D2E/DX2                !
 ! D29   D(68,2,3,12)          132.5641         estimate D2E/DX2                !
 ! D30   D(68,2,3,69)            8.5058         estimate D2E/DX2                !
 ! D31   D(1,2,10,11)           -7.961          estimate D2E/DX2                !
 ! D32   D(1,2,10,13)          106.7763         estimate D2E/DX2                !
 ! D33   D(1,2,10,74)         -135.2536         estimate D2E/DX2                !
 ! D34   D(3,2,10,11)         -121.4758         estimate D2E/DX2                !
 ! D35   D(3,2,10,13)           -6.7385         estimate D2E/DX2                !
 ! D36   D(3,2,10,74)          111.2315         estimate D2E/DX2                !
 ! D37   D(68,2,10,11)         118.0628         estimate D2E/DX2                !
 ! D38   D(68,2,10,13)        -127.1999         estimate D2E/DX2                !
 ! D39   D(68,2,10,74)          -9.2299         estimate D2E/DX2                !
 ! D40   D(2,3,5,4)             -2.9978         estimate D2E/DX2                !
 ! D41   D(2,3,5,15)          -157.5608         estimate D2E/DX2                !
 ! D42   D(12,3,5,4)           106.9323         estimate D2E/DX2                !
 ! D43   D(12,3,5,15)          -47.6307         estimate D2E/DX2                !
 ! D44   D(69,3,5,4)          -132.6655         estimate D2E/DX2                !
 ! D45   D(69,3,5,15)           72.7715         estimate D2E/DX2                !
 ! D46   D(2,3,12,13)          -11.1762         estimate D2E/DX2                !
 ! D47   D(2,3,12,14)          150.0836         estimate D2E/DX2                !
 ! D48   D(5,3,12,13)         -121.9542         estimate D2E/DX2                !
 ! D49   D(5,3,12,14)           39.3055         estimate D2E/DX2                !
 ! D50   D(69,3,12,13)         116.4515         estimate D2E/DX2                !
 ! D51   D(69,3,12,14)         -82.2887         estimate D2E/DX2                !
 ! D52   D(1,4,5,3)              5.3686         estimate D2E/DX2                !
 ! D53   D(1,4,5,15)           160.4728         estimate D2E/DX2                !
 ! D54   D(6,4,5,3)           -135.9031         estimate D2E/DX2                !
 ! D55   D(6,4,5,15)            19.2011         estimate D2E/DX2                !
 ! D56   D(1,4,6,8)            -10.6276         estimate D2E/DX2                !
 ! D57   D(1,4,6,17)          -150.7127         estimate D2E/DX2                !
 ! D58   D(5,4,6,8)            131.243          estimate D2E/DX2                !
 ! D59   D(5,4,6,17)            -8.8422         estimate D2E/DX2                !
 ! D60   D(3,5,15,16)           17.5035         estimate D2E/DX2                !
 ! D61   D(3,5,15,18)          135.0301         estimate D2E/DX2                !
 ! D62   D(3,5,15,75)         -106.6954         estimate D2E/DX2                !
 ! D63   D(4,5,15,16)         -134.6708         estimate D2E/DX2                !
 ! D64   D(4,5,15,18)          -17.1442         estimate D2E/DX2                !
 ! D65   D(4,5,15,75)          101.1304         estimate D2E/DX2                !
 ! D66   D(4,6,8,7)             -3.1325         estimate D2E/DX2                !
 ! D67   D(4,6,8,20)          -156.2807         estimate D2E/DX2                !
 ! D68   D(17,6,8,7)           137.1326         estimate D2E/DX2                !
 ! D69   D(17,6,8,20)          -16.0156         estimate D2E/DX2                !
 ! D70   D(4,6,17,18)           -1.7369         estimate D2E/DX2                !
 ! D71   D(4,6,17,19)          154.5215         estimate D2E/DX2                !
 ! D72   D(8,6,17,18)         -136.6317         estimate D2E/DX2                !
 ! D73   D(8,6,17,19)           19.6267         estimate D2E/DX2                !
 ! D74   D(1,7,8,6)             15.9029         estimate D2E/DX2                !
 ! D75   D(1,7,8,20)           167.731          estimate D2E/DX2                !
 ! D76   D(9,7,8,6)           -137.2246         estimate D2E/DX2                !
 ! D77   D(9,7,8,20)            14.6035         estimate D2E/DX2                !
 ! D78   D(1,7,9,11)           -21.3493         estimate D2E/DX2                !
 ! D79   D(1,7,9,22)          -172.6897         estimate D2E/DX2                !
 ! D80   D(8,7,9,11)           127.4708         estimate D2E/DX2                !
 ! D81   D(8,7,9,22)           -23.8696         estimate D2E/DX2                !
 ! D82   D(6,8,20,21)            1.6677         estimate D2E/DX2                !
 ! D83   D(6,8,20,23)          155.3131         estimate D2E/DX2                !
 ! D84   D(7,8,20,21)         -146.8803         estimate D2E/DX2                !
 ! D85   D(7,8,20,23)            6.7652         estimate D2E/DX2                !
 ! D86   D(7,9,11,10)            7.9372         estimate D2E/DX2                !
 ! D87   D(7,9,11,25)         -147.3596         estimate D2E/DX2                !
 ! D88   D(22,9,11,10)         158.2093         estimate D2E/DX2                !
 ! D89   D(22,9,11,25)           2.9124         estimate D2E/DX2                !
 ! D90   D(7,9,22,23)           13.9718         estimate D2E/DX2                !
 ! D91   D(7,9,22,24)          159.0055         estimate D2E/DX2                !
 ! D92   D(11,9,22,23)        -137.2057         estimate D2E/DX2                !
 ! D93   D(11,9,22,24)           7.828          estimate D2E/DX2                !
 ! D94   D(2,10,11,9)            6.3531         estimate D2E/DX2                !
 ! D95   D(2,10,11,25)         161.7901         estimate D2E/DX2                !
 ! D96   D(13,10,11,9)        -109.6623         estimate D2E/DX2                !
 ! D97   D(13,10,11,25)         45.7748         estimate D2E/DX2                !
 ! D98   D(74,10,11,9)         135.1838         estimate D2E/DX2                !
 ! D99   D(74,10,11,25)        -69.3791         estimate D2E/DX2                !
 ! D100  D(2,10,13,12)           0.0685         estimate D2E/DX2                !
 ! D101  D(2,10,13,27)        -165.5665         estimate D2E/DX2                !
 ! D102  D(11,10,13,12)        127.4529         estimate D2E/DX2                !
 ! D103  D(11,10,13,27)        -38.1821         estimate D2E/DX2                !
 ! D104  D(74,10,13,12)       -118.8793         estimate D2E/DX2                !
 ! D105  D(74,10,13,27)         75.4857         estimate D2E/DX2                !
 ! D106  D(9,11,25,26)          -9.8398         estimate D2E/DX2                !
 ! D107  D(9,11,25,28)         141.979          estimate D2E/DX2                !
 ! D108  D(10,11,25,26)       -165.9434         estimate D2E/DX2                !
 ! D109  D(10,11,25,28)        -14.1245         estimate D2E/DX2                !
 ! D110  D(3,12,13,10)           7.1783         estimate D2E/DX2                !
 ! D111  D(3,12,13,27)         173.6566         estimate D2E/DX2                !
 ! D112  D(14,12,13,10)       -154.9767         estimate D2E/DX2                !
 ! D113  D(14,12,13,27)         11.5016         estimate D2E/DX2                !
 ! D114  D(3,12,14,16)           0.2048         estimate D2E/DX2                !
 ! D115  D(3,12,14,29)        -174.7938         estimate D2E/DX2                !
 ! D116  D(13,12,14,16)        159.8568         estimate D2E/DX2                !
 ! D117  D(13,12,14,29)        -15.1418         estimate D2E/DX2                !
 ! D118  D(10,13,27,28)         -5.0302         estimate D2E/DX2                !
 ! D119  D(10,13,27,30)        163.5614         estimate D2E/DX2                !
 ! D120  D(12,13,27,28)       -169.5236         estimate D2E/DX2                !
 ! D121  D(12,13,27,30)         -0.9319         estimate D2E/DX2                !
 ! D122  D(12,14,16,15)        -34.1002         estimate D2E/DX2                !
 ! D123  D(12,14,16,32)       -145.5764         estimate D2E/DX2                !
 ! D124  D(12,14,16,70)         91.2981         estimate D2E/DX2                !
 ! D125  D(29,14,16,15)        140.656          estimate D2E/DX2                !
 ! D126  D(29,14,16,32)         29.1798         estimate D2E/DX2                !
 ! D127  D(29,14,16,70)        -93.9457         estimate D2E/DX2                !
 ! D128  D(12,14,29,30)          8.5776         estimate D2E/DX2                !
 ! D129  D(12,14,29,31)       -178.8458         estimate D2E/DX2                !
 ! D130  D(16,14,29,30)       -166.2272         estimate D2E/DX2                !
 ! D131  D(16,14,29,31)          6.3494         estimate D2E/DX2                !
 ! D132  D(5,15,16,14)          25.2235         estimate D2E/DX2                !
 ! D133  D(5,15,16,32)         139.0133         estimate D2E/DX2                !
 ! D134  D(5,15,16,70)         -97.3556         estimate D2E/DX2                !
 ! D135  D(18,15,16,14)        -96.654          estimate D2E/DX2                !
 ! D136  D(18,15,16,32)         17.1359         estimate D2E/DX2                !
 ! D137  D(18,15,16,70)        140.7669         estimate D2E/DX2                !
 ! D138  D(75,15,16,14)        148.303          estimate D2E/DX2                !
 ! D139  D(75,15,16,32)        -97.9072         estimate D2E/DX2                !
 ! D140  D(75,15,16,70)         25.7239         estimate D2E/DX2                !
 ! D141  D(5,15,18,17)           7.0794         estimate D2E/DX2                !
 ! D142  D(5,15,18,33)        -147.7979         estimate D2E/DX2                !
 ! D143  D(16,15,18,17)        131.9314         estimate D2E/DX2                !
 ! D144  D(16,15,18,33)        -22.9459         estimate D2E/DX2                !
 ! D145  D(75,15,18,17)       -111.3352         estimate D2E/DX2                !
 ! D146  D(75,15,18,33)         93.7874         estimate D2E/DX2                !
 ! D147  D(14,16,32,33)        109.1163         estimate D2E/DX2                !
 ! D148  D(14,16,32,34)        -35.4666         estimate D2E/DX2                !
 ! D149  D(15,16,32,33)         -6.6265         estimate D2E/DX2                !
 ! D150  D(15,16,32,34)       -151.2094         estimate D2E/DX2                !
 ! D151  D(70,16,32,33)       -130.5334         estimate D2E/DX2                !
 ! D152  D(70,16,32,34)         84.8838         estimate D2E/DX2                !
 ! D153  D(6,17,18,15)           1.7862         estimate D2E/DX2                !
 ! D154  D(6,17,18,33)         154.3079         estimate D2E/DX2                !
 ! D155  D(19,17,18,15)       -154.1343         estimate D2E/DX2                !
 ! D156  D(19,17,18,33)         -1.6126         estimate D2E/DX2                !
 ! D157  D(6,17,19,21)          -9.1383         estimate D2E/DX2                !
 ! D158  D(6,17,19,35)        -164.5492         estimate D2E/DX2                !
 ! D159  D(18,17,19,21)        145.973          estimate D2E/DX2                !
 ! D160  D(18,17,19,35)         -9.438          estimate D2E/DX2                !
 ! D161  D(15,18,33,32)         19.6546         estimate D2E/DX2                !
 ! D162  D(15,18,33,36)        166.2056         estimate D2E/DX2                !
 ! D163  D(17,18,33,32)       -137.072          estimate D2E/DX2                !
 ! D164  D(17,18,33,36)          9.479          estimate D2E/DX2                !
 ! D165  D(17,19,21,20)         -4.797          estimate D2E/DX2                !
 ! D166  D(17,19,21,38)       -156.4271         estimate D2E/DX2                !
 ! D167  D(35,19,21,20)        150.3024         estimate D2E/DX2                !
 ! D168  D(35,19,21,38)         -1.3277         estimate D2E/DX2                !
 ! D169  D(17,19,35,36)         12.7587         estimate D2E/DX2                !
 ! D170  D(17,19,35,37)        153.7261         estimate D2E/DX2                !
 ! D171  D(21,19,35,36)       -142.8303         estimate D2E/DX2                !
 ! D172  D(21,19,35,37)         -1.8629         estimate D2E/DX2                !
 ! D173  D(8,20,21,19)           8.5792         estimate D2E/DX2                !
 ! D174  D(8,20,21,38)         160.6333         estimate D2E/DX2                !
 ! D175  D(23,20,21,19)       -143.2342         estimate D2E/DX2                !
 ! D176  D(23,20,21,38)          8.82           estimate D2E/DX2                !
 ! D177  D(8,20,23,22)         -17.3591         estimate D2E/DX2                !
 ! D178  D(8,20,23,40)        -158.8311         estimate D2E/DX2                !
 ! D179  D(21,20,23,22)        135.9977         estimate D2E/DX2                !
 ! D180  D(21,20,23,40)         -5.4743         estimate D2E/DX2                !
 ! D181  D(19,21,38,39)          3.1907         estimate D2E/DX2                !
 ! D182  D(19,21,38,42)        145.2251         estimate D2E/DX2                !
 ! D183  D(20,21,38,39)       -148.8537         estimate D2E/DX2                !
 ! D184  D(20,21,38,42)         -6.8192         estimate D2E/DX2                !
 ! D185  D(9,22,23,20)           7.829          estimate D2E/DX2                !
 ! D186  D(9,22,23,40)         153.1852         estimate D2E/DX2                !
 ! D187  D(24,22,23,20)       -141.5815         estimate D2E/DX2                !
 ! D188  D(24,22,23,40)          3.7747         estimate D2E/DX2                !
 ! D189  D(9,22,24,26)         -11.2918         estimate D2E/DX2                !
 ! D190  D(9,22,24,41)        -153.8112         estimate D2E/DX2                !
 ! D191  D(23,22,24,26)        138.6746         estimate D2E/DX2                !
 ! D192  D(23,22,24,41)         -3.8448         estimate D2E/DX2                !
 ! D193  D(20,23,40,41)        142.7871         estimate D2E/DX2                !
 ! D194  D(20,23,40,42)         -0.218          estimate D2E/DX2                !
 ! D195  D(22,23,40,41)         -2.2416         estimate D2E/DX2                !
 ! D196  D(22,23,40,42)       -145.2466         estimate D2E/DX2                !
 ! D197  D(22,24,26,25)          4.2697         estimate D2E/DX2                !
 ! D198  D(22,24,26,44)       -138.5194         estimate D2E/DX2                !
 ! D199  D(41,24,26,25)        142.1313         estimate D2E/DX2                !
 ! D200  D(41,24,26,44)         -0.6579         estimate D2E/DX2                !
 ! D201  D(22,24,41,40)          2.5043         estimate D2E/DX2                !
 ! D202  D(22,24,41,43)        142.6744         estimate D2E/DX2                !
 ! D203  D(26,24,41,40)       -138.415          estimate D2E/DX2                !
 ! D204  D(26,24,41,43)          1.7551         estimate D2E/DX2                !
 ! D205  D(11,25,26,24)          6.4075         estimate D2E/DX2                !
 ! D206  D(11,25,26,44)        152.2186         estimate D2E/DX2                !
 ! D207  D(28,25,26,24)       -149.6483         estimate D2E/DX2                !
 ! D208  D(28,25,26,44)         -3.8372         estimate D2E/DX2                !
 ! D209  D(11,25,28,27)        -30.5962         estimate D2E/DX2                !
 ! D210  D(11,25,28,45)       -146.1594         estimate D2E/DX2                !
 ! D211  D(11,25,28,73)         92.3081         estimate D2E/DX2                !
 ! D212  D(26,25,28,27)        124.2513         estimate D2E/DX2                !
 ! D213  D(26,25,28,45)          8.6881         estimate D2E/DX2                !
 ! D214  D(26,25,28,73)       -112.8444         estimate D2E/DX2                !
 ! D215  D(24,26,44,45)        143.4605         estimate D2E/DX2                !
 ! D216  D(24,26,44,46)         -0.8334         estimate D2E/DX2                !
 ! D217  D(25,26,44,45)         -3.1042         estimate D2E/DX2                !
 ! D218  D(25,26,44,46)       -147.3981         estimate D2E/DX2                !
 ! D219  D(13,27,28,25)         38.5577         estimate D2E/DX2                !
 ! D220  D(13,27,28,45)        148.1647         estimate D2E/DX2                !
 ! D221  D(13,27,28,73)        -88.3766         estimate D2E/DX2                !
 ! D222  D(30,27,28,25)       -129.5927         estimate D2E/DX2                !
 ! D223  D(30,27,28,45)        -19.9858         estimate D2E/DX2                !
 ! D224  D(30,27,28,73)        103.4729         estimate D2E/DX2                !
 ! D225  D(13,27,30,29)         -5.4523         estimate D2E/DX2                !
 ! D226  D(13,27,30,47)       -178.0569         estimate D2E/DX2                !
 ! D227  D(28,27,30,29)        162.4272         estimate D2E/DX2                !
 ! D228  D(28,27,30,47)        -10.1773         estimate D2E/DX2                !
 ! D229  D(25,28,45,44)        -10.8342         estimate D2E/DX2                !
 ! D230  D(25,28,45,48)        138.1579         estimate D2E/DX2                !
 ! D231  D(27,28,45,44)       -122.034          estimate D2E/DX2                !
 ! D232  D(27,28,45,48)         26.9581         estimate D2E/DX2                !
 ! D233  D(73,28,45,44)        114.7253         estimate D2E/DX2                !
 ! D234  D(73,28,45,48)        -96.2826         estimate D2E/DX2                !
 ! D235  D(14,29,30,27)          1.553          estimate D2E/DX2                !
 ! D236  D(14,29,30,47)        174.051          estimate D2E/DX2                !
 ! D237  D(31,29,30,27)       -170.9262         estimate D2E/DX2                !
 ! D238  D(31,29,30,47)          1.5719         estimate D2E/DX2                !
 ! D239  D(14,29,31,34)        -35.8249         estimate D2E/DX2                !
 ! D240  D(14,29,31,49)       -145.9078         estimate D2E/DX2                !
 ! D241  D(14,29,31,71)         89.903          estimate D2E/DX2                !
 ! D242  D(30,29,31,34)        136.7367         estimate D2E/DX2                !
 ! D243  D(30,29,31,49)         26.6538         estimate D2E/DX2                !
 ! D244  D(30,29,31,71)        -97.5353         estimate D2E/DX2                !
 ! D245  D(27,30,47,48)         32.826          estimate D2E/DX2                !
 ! D246  D(27,30,47,50)        144.411          estimate D2E/DX2                !
 ! D247  D(27,30,47,72)        -91.0726         estimate D2E/DX2                !
 ! D248  D(29,30,47,48)       -139.687          estimate D2E/DX2                !
 ! D249  D(29,30,47,50)        -28.102          estimate D2E/DX2                !
 ! D250  D(29,30,47,72)         96.4144         estimate D2E/DX2                !
 ! D251  D(29,31,34,32)         30.8784         estimate D2E/DX2                !
 ! D252  D(29,31,34,51)       -121.5133         estimate D2E/DX2                !
 ! D253  D(49,31,34,32)        147.4252         estimate D2E/DX2                !
 ! D254  D(49,31,34,51)         -4.9666         estimate D2E/DX2                !
 ! D255  D(71,31,34,32)        -91.1046         estimate D2E/DX2                !
 ! D256  D(71,31,34,51)        116.5036         estimate D2E/DX2                !
 ! D257  D(29,31,49,50)        -28.9674         estimate D2E/DX2                !
 ! D258  D(29,31,49,54)        120.4169         estimate D2E/DX2                !
 ! D259  D(34,31,49,50)       -142.9185         estimate D2E/DX2                !
 ! D260  D(34,31,49,54)          6.4657         estimate D2E/DX2                !
 ! D261  D(71,31,49,50)         93.4734         estimate D2E/DX2                !
 ! D262  D(71,31,49,54)       -117.1424         estimate D2E/DX2                !
 ! D263  D(16,32,33,18)         -7.6817         estimate D2E/DX2                !
 ! D264  D(16,32,33,36)       -153.8114         estimate D2E/DX2                !
 ! D265  D(34,32,33,18)        138.2694         estimate D2E/DX2                !
 ! D266  D(34,32,33,36)         -7.8603         estimate D2E/DX2                !
 ! D267  D(16,32,34,31)          5.6432         estimate D2E/DX2                !
 ! D268  D(16,32,34,51)        155.5852         estimate D2E/DX2                !
 ! D269  D(33,32,34,31)       -136.2077         estimate D2E/DX2                !
 ! D270  D(33,32,34,51)         13.7343         estimate D2E/DX2                !
 ! D271  D(18,33,36,35)         -6.1544         estimate D2E/DX2                !
 ! D272  D(18,33,36,52)       -146.2063         estimate D2E/DX2                !
 ! D273  D(32,33,36,35)        136.2944         estimate D2E/DX2                !
 ! D274  D(32,33,36,52)         -3.7575         estimate D2E/DX2                !
 ! D275  D(31,34,51,52)        144.9098         estimate D2E/DX2                !
 ! D276  D(31,34,51,54)          1.8308         estimate D2E/DX2                !
 ! D277  D(32,34,51,52)         -8.4959         estimate D2E/DX2                !
 ! D278  D(32,34,51,54)       -151.575          estimate D2E/DX2                !
 ! D279  D(19,35,36,33)         -5.333          estimate D2E/DX2                !
 ! D280  D(19,35,36,52)        138.5309         estimate D2E/DX2                !
 ! D281  D(37,35,36,33)       -151.1782         estimate D2E/DX2                !
 ! D282  D(37,35,36,52)         -7.3142         estimate D2E/DX2                !
 ! D283  D(19,35,37,39)          3.2917         estimate D2E/DX2                !
 ! D284  D(19,35,37,53)       -139.6836         estimate D2E/DX2                !
 ! D285  D(36,35,37,39)        148.3843         estimate D2E/DX2                !
 ! D286  D(36,35,37,53)          5.409          estimate D2E/DX2                !
 ! D287  D(33,36,52,51)          9.1002         estimate D2E/DX2                !
 ! D288  D(33,36,52,53)        150.5742         estimate D2E/DX2                !
 ! D289  D(35,36,52,51)       -135.1791         estimate D2E/DX2                !
 ! D290  D(35,36,52,53)          6.2948         estimate D2E/DX2                !
 ! D291  D(35,37,39,38)         -1.4185         estimate D2E/DX2                !
 ! D292  D(35,37,39,57)       -139.9514         estimate D2E/DX2                !
 ! D293  D(53,37,39,38)        136.5046         estimate D2E/DX2                !
 ! D294  D(53,37,39,57)         -2.0283         estimate D2E/DX2                !
 ! D295  D(35,37,53,52)         -1.5713         estimate D2E/DX2                !
 ! D296  D(35,37,53,55)        139.269          estimate D2E/DX2                !
 ! D297  D(39,37,53,52)       -143.984          estimate D2E/DX2                !
 ! D298  D(39,37,53,55)         -3.1438         estimate D2E/DX2                !
 ! D299  D(21,38,39,37)         -1.8165         estimate D2E/DX2                !
 ! D300  D(21,38,39,57)        140.9304         estimate D2E/DX2                !
 ! D301  D(42,38,39,37)       -148.6275         estimate D2E/DX2                !
 ! D302  D(42,38,39,57)         -5.8806         estimate D2E/DX2                !
 ! D303  D(21,38,42,40)          1.438          estimate D2E/DX2                !
 ! D304  D(21,38,42,58)       -140.9288         estimate D2E/DX2                !
 ! D305  D(39,38,42,40)        148.3287         estimate D2E/DX2                !
 ! D306  D(39,38,42,58)          5.962          estimate D2E/DX2                !
 ! D307  D(37,39,57,58)        146.0249         estimate D2E/DX2                !
 ! D308  D(37,39,57,60)          4.9585         estimate D2E/DX2                !
 ! D309  D(38,39,57,58)          3.5843         estimate D2E/DX2                !
 ! D310  D(38,39,57,60)       -137.4822         estimate D2E/DX2                !
 ! D311  D(23,40,41,24)         -0.1453         estimate D2E/DX2                !
 ! D312  D(23,40,41,43)       -140.6992         estimate D2E/DX2                !
 ! D313  D(42,40,41,24)        142.2213         estimate D2E/DX2                !
 ! D314  D(42,40,41,43)          1.6674         estimate D2E/DX2                !
 ! D315  D(23,40,42,38)          2.2629         estimate D2E/DX2                !
 ! D316  D(23,40,42,58)        140.5201         estimate D2E/DX2                !
 ! D317  D(41,40,42,38)       -135.4767         estimate D2E/DX2                !
 ! D318  D(41,40,42,58)          2.7805         estimate D2E/DX2                !
 ! D319  D(24,41,43,46)         -1.315          estimate D2E/DX2                !
 ! D320  D(24,41,43,59)       -139.7129         estimate D2E/DX2                !
 ! D321  D(40,41,43,46)        134.302          estimate D2E/DX2                !
 ! D322  D(40,41,43,59)         -4.0958         estimate D2E/DX2                !
 ! D323  D(38,42,58,57)         -3.8025         estimate D2E/DX2                !
 ! D324  D(38,42,58,59)        137.6745         estimate D2E/DX2                !
 ! D325  D(40,42,58,57)       -146.237          estimate D2E/DX2                !
 ! D326  D(40,42,58,59)         -4.7601         estimate D2E/DX2                !
 ! D327  D(41,43,46,44)         -0.1633         estimate D2E/DX2                !
 ! D328  D(41,43,46,61)       -142.2926         estimate D2E/DX2                !
 ! D329  D(59,43,46,44)        142.4834         estimate D2E/DX2                !
 ! D330  D(59,43,46,61)          0.3541         estimate D2E/DX2                !
 ! D331  D(41,43,59,58)          2.0995         estimate D2E/DX2                !
 ! D332  D(41,43,59,65)        143.1773         estimate D2E/DX2                !
 ! D333  D(46,43,59,58)       -140.0178         estimate D2E/DX2                !
 ! D334  D(46,43,59,65)          1.06           estimate D2E/DX2                !
 ! D335  D(26,44,45,28)          9.0292         estimate D2E/DX2                !
 ! D336  D(26,44,45,48)       -140.6321         estimate D2E/DX2                !
 ! D337  D(46,44,45,28)        152.8597         estimate D2E/DX2                !
 ! D338  D(46,44,45,48)          3.1984         estimate D2E/DX2                !
 ! D339  D(26,44,46,43)          1.2586         estimate D2E/DX2                !
 ! D340  D(26,44,46,61)        139.2324         estimate D2E/DX2                !
 ! D341  D(45,44,46,43)       -138.1722         estimate D2E/DX2                !
 ! D342  D(45,44,46,61)         -0.1984         estimate D2E/DX2                !
 ! D343  D(28,45,48,47)         -3.2768         estimate D2E/DX2                !
 ! D344  D(28,45,48,62)       -150.7473         estimate D2E/DX2                !
 ! D345  D(44,45,48,47)        142.9567         estimate D2E/DX2                !
 ! D346  D(44,45,48,62)         -4.5137         estimate D2E/DX2                !
 ! D347  D(43,46,61,62)        141.5198         estimate D2E/DX2                !
 ! D348  D(43,46,61,65)         -1.6344         estimate D2E/DX2                !
 ! D349  D(44,46,61,62)         -1.3098         estimate D2E/DX2                !
 ! D350  D(44,46,61,65)       -144.464          estimate D2E/DX2                !
 ! D351  D(30,47,48,45)        -26.8109         estimate D2E/DX2                !
 ! D352  D(30,47,48,62)        123.1443         estimate D2E/DX2                !
 ! D353  D(50,47,48,45)       -144.3439         estimate D2E/DX2                !
 ! D354  D(50,47,48,62)          5.6113         estimate D2E/DX2                !
 ! D355  D(72,47,48,45)         93.1775         estimate D2E/DX2                !
 ! D356  D(72,47,48,62)       -116.8673         estimate D2E/DX2                !
 ! D357  D(30,47,50,49)         26.804          estimate D2E/DX2                !
 ! D358  D(30,47,50,63)       -122.4943         estimate D2E/DX2                !
 ! D359  D(48,47,50,49)        143.5638         estimate D2E/DX2                !
 ! D360  D(48,47,50,63)         -5.7345         estimate D2E/DX2                !
 ! D361  D(72,47,50,49)        -93.9306         estimate D2E/DX2                !
 ! D362  D(72,47,50,63)        116.771          estimate D2E/DX2                !
 ! D363  D(45,48,62,61)          3.0339         estimate D2E/DX2                !
 ! D364  D(45,48,62,63)        147.6203         estimate D2E/DX2                !
 ! D365  D(47,48,62,61)       -148.196          estimate D2E/DX2                !
 ! D366  D(47,48,62,63)         -3.6096         estimate D2E/DX2                !
 ! D367  D(31,49,50,47)          1.9618         estimate D2E/DX2                !
 ! D368  D(31,49,50,63)        148.6333         estimate D2E/DX2                !
 ! D369  D(54,49,50,47)       -144.8402         estimate D2E/DX2                !
 ! D370  D(54,49,50,63)          1.8313         estimate D2E/DX2                !
 ! D371  D(31,49,54,51)         -5.8011         estimate D2E/DX2                !
 ! D372  D(31,49,54,56)       -150.2512         estimate D2E/DX2                !
 ! D373  D(50,49,54,51)        144.4448         estimate D2E/DX2                !
 ! D374  D(50,49,54,56)         -0.0053         estimate D2E/DX2                !
 ! D375  D(47,50,63,62)          3.9403         estimate D2E/DX2                !
 ! D376  D(47,50,63,64)        148.0572         estimate D2E/DX2                !
 ! D377  D(49,50,63,62)       -146.2907         estimate D2E/DX2                !
 ! D378  D(49,50,63,64)         -2.1738         estimate D2E/DX2                !
 ! D379  D(34,51,52,36)         -3.2506         estimate D2E/DX2                !
 ! D380  D(34,51,52,53)       -139.3835         estimate D2E/DX2                !
 ! D381  D(54,51,52,36)        135.8276         estimate D2E/DX2                !
 ! D382  D(54,51,52,53)         -0.3052         estimate D2E/DX2                !
 ! D383  D(34,51,54,49)          2.4047         estimate D2E/DX2                !
 ! D384  D(34,51,54,56)        147.3474         estimate D2E/DX2                !
 ! D385  D(52,51,54,49)       -141.3357         estimate D2E/DX2                !
 ! D386  D(52,51,54,56)          3.6071         estimate D2E/DX2                !
 ! D387  D(36,52,53,37)         -2.8896         estimate D2E/DX2                !
 ! D388  D(36,52,53,55)       -143.3711         estimate D2E/DX2                !
 ! D389  D(51,52,53,37)        137.4085         estimate D2E/DX2                !
 ! D390  D(51,52,53,55)         -3.073          estimate D2E/DX2                !
 ! D391  D(37,53,55,56)       -133.2566         estimate D2E/DX2                !
 ! D392  D(37,53,55,60)          5.3367         estimate D2E/DX2                !
 ! D393  D(52,53,55,56)          3.0729         estimate D2E/DX2                !
 ! D394  D(52,53,55,60)        141.6662         estimate D2E/DX2                !
 ! D395  D(49,54,56,55)        136.9519         estimate D2E/DX2                !
 ! D396  D(49,54,56,64)         -1.5535         estimate D2E/DX2                !
 ! D397  D(51,54,56,55)         -3.6048         estimate D2E/DX2                !
 ! D398  D(51,54,56,64)       -142.1102         estimate D2E/DX2                !
 ! D399  D(53,55,56,54)          0.221          estimate D2E/DX2                !
 ! D400  D(53,55,56,64)        142.9394         estimate D2E/DX2                !
 ! D401  D(60,55,56,54)       -142.6332         estimate D2E/DX2                !
 ! D402  D(60,55,56,64)          0.0851         estimate D2E/DX2                !
 ! D403  D(53,55,60,57)         -2.4203         estimate D2E/DX2                !
 ! D404  D(53,55,60,66)       -143.725          estimate D2E/DX2                !
 ! D405  D(56,55,60,57)        139.9177         estimate D2E/DX2                !
 ! D406  D(56,55,60,66)         -1.387          estimate D2E/DX2                !
 ! D407  D(54,56,64,63)          1.2223         estimate D2E/DX2                !
 ! D408  D(54,56,64,66)        144.637          estimate D2E/DX2                !
 ! D409  D(55,56,64,63)       -142.1539         estimate D2E/DX2                !
 ! D410  D(55,56,64,66)          1.2608         estimate D2E/DX2                !
 ! D411  D(39,57,58,42)          0.1416         estimate D2E/DX2                !
 ! D412  D(39,57,58,59)       -140.9845         estimate D2E/DX2                !
 ! D413  D(60,57,58,42)        140.7435         estimate D2E/DX2                !
 ! D414  D(60,57,58,59)         -0.3826         estimate D2E/DX2                !
 ! D415  D(39,57,60,55)         -2.7662         estimate D2E/DX2                !
 ! D416  D(39,57,60,66)        133.5651         estimate D2E/DX2                !
 ! D417  D(58,57,60,55)       -138.9568         estimate D2E/DX2                !
 ! D418  D(58,57,60,66)         -2.6255         estimate D2E/DX2                !
 ! D419  D(42,58,59,43)          2.3609         estimate D2E/DX2                !
 ! D420  D(42,58,59,65)       -133.6945         estimate D2E/DX2                !
 ! D421  D(57,58,59,43)        139.1283         estimate D2E/DX2                !
 ! D422  D(57,58,59,65)          3.0728         estimate D2E/DX2                !
 ! D423  D(43,59,65,61)         -2.0686         estimate D2E/DX2                !
 ! D424  D(43,59,65,66)       -144.1527         estimate D2E/DX2                !
 ! D425  D(58,59,65,61)        139.3271         estimate D2E/DX2                !
[...]
              Bcc     0.0061     0.821     0.293     0.274 -0.6147  0.0053  0.7887
 
              Baa    -0.0046    -0.616    -0.220    -0.206  0.7291  0.6834  0.0369
    14 C(13)  Bbb    -0.0028    -0.376    -0.134    -0.125  0.5262 -0.5942  0.6084
              Bcc     0.0074     0.992     0.354     0.331 -0.4377  0.4241  0.7928
 
              Baa    -0.0076    -1.023    -0.365    -0.341  0.5712 -0.3633  0.7360
    15 C(13)  Bbb     0.0027     0.361     0.129     0.120  0.7004  0.6833 -0.2063
              Bcc     0.0049     0.662     0.236     0.221 -0.4280  0.6334  0.6448
 
              Baa    -0.0045    -0.609    -0.217    -0.203  0.1781  0.9322 -0.3151
    16 C(13)  Bbb    -0.0028    -0.372    -0.133    -0.124  0.9293 -0.2646 -0.2576
              Bcc     0.0073     0.981     0.350     0.327  0.3235  0.2470  0.9134
 
              Baa    -0.1023   -13.732    -4.900    -4.581  0.3915 -0.4149  0.8213
    17 C(13)  Bbb     0.0422     5.666     2.022     1.890  0.8059 -0.2763 -0.5237
              Bcc     0.0601     8.066     2.878     2.691  0.4442  0.8669  0.2261
 
              Baa    -0.1350   -18.122    -6.466    -6.045 -0.2007  0.5614  0.8028
    18 C(13)  Bbb    -0.1291   -17.322    -6.181    -5.778  0.8454  0.5133 -0.1476
              Bcc     0.2641    35.444    12.647    11.823 -0.4950  0.6491 -0.5777
 
              Baa    -0.0282    -3.789    -1.352    -1.264 -0.1682  0.9429  0.2874
    19 C(13)  Bbb    -0.0239    -3.203    -1.143    -1.068  0.9637  0.2187 -0.1535
              Bcc     0.0521     6.992     2.495     2.332  0.2076 -0.2512  0.9454
 
              Baa    -0.0299    -4.014    -1.432    -1.339  0.3543  0.8767 -0.3253
    20 C(13)  Bbb    -0.0281    -3.776    -1.347    -1.259  0.9212 -0.3870 -0.0397
              Bcc     0.0580     7.790     2.780     2.598  0.1607  0.2856  0.9448
 
              Baa    -0.0427    -5.730    -2.045    -1.911  0.1150  0.0036  0.9934
    21 C(13)  Bbb     0.0178     2.390     0.853     0.797  0.1734  0.9846 -0.0237
              Bcc     0.0249     3.340     1.192     1.114  0.9781 -0.1749 -0.1126
 
              Baa    -0.0780   -10.469    -3.736    -3.492 -0.5133 -0.2031  0.8338
    22 C(13)  Bbb    -0.0723    -9.701    -3.461    -3.236  0.7711 -0.5355  0.3443
              Bcc     0.1503    20.170     7.197     6.728  0.3766  0.8197  0.4315
 
              Baa    -0.0632    -8.487    -3.028    -2.831  0.2546  0.5990  0.7592
    23 C(13)  Bbb     0.0305     4.088     1.459     1.364  0.7138 -0.6461  0.2704
              Bcc     0.0328     4.399     1.570     1.467  0.6525  0.4731 -0.5920
 
              Baa    -0.0378    -5.074    -1.811    -1.693  0.1374  0.9801  0.1436
    24 C(13)  Bbb     0.0148     1.986     0.709     0.662  0.7394 -0.0050 -0.6733
              Bcc     0.0230     3.088     1.102     1.030  0.6591 -0.1987  0.7253
 
              Baa    -0.0524    -7.038    -2.511    -2.348  0.3520  0.8440 -0.4046
    25 C(13)  Bbb     0.0243     3.264     1.165     1.089 -0.1590  0.4799  0.8628
              Bcc     0.0281     3.774     1.346     1.259  0.9224 -0.2394  0.3031
 
              Baa    -0.0384    -5.157    -1.840    -1.720 -0.6290  0.2736  0.7277
    26 C(13)  Bbb    -0.0339    -4.552    -1.624    -1.518  0.7710  0.0989  0.6291
              Bcc     0.0724     9.709     3.465     3.239  0.1001  0.9567 -0.2731
 
              Baa    -0.0013    -0.177    -0.063    -0.059  0.2612  0.7578 -0.5979
    27 C(13)  Bbb    -0.0002    -0.023    -0.008    -0.008 -0.0894  0.6358  0.7667
              Bcc     0.0015     0.201     0.072     0.067  0.9611 -0.1468  0.2338
 
              Baa    -0.0007    -0.091    -0.032    -0.030 -0.2616  0.8690  0.4200
    28 C(13)  Bbb    -0.0001    -0.018    -0.006    -0.006  0.9479  0.3133 -0.0580
              Bcc     0.0008     0.109     0.039     0.036  0.1820 -0.3829  0.9057
 
              Baa    -0.0036    -0.482    -0.172    -0.161 -0.6374  0.2043  0.7429
    29 C(13)  Bbb     0.0003     0.045     0.016     0.015  0.2107  0.9737 -0.0869
              Bcc     0.0033     0.436     0.156     0.146  0.7411 -0.1012  0.6637
 
              Baa    -0.0072    -0.966    -0.345    -0.322  0.1579  0.9825 -0.0984
    30 C(13)  Bbb    -0.0056    -0.747    -0.267    -0.249  0.8188 -0.0745  0.5693
              Bcc     0.0128     1.713     0.611     0.572 -0.5520  0.1704  0.8162
 
              Baa    -0.0009    -0.116    -0.042    -0.039  0.3947  0.8194 -0.4158
    31 C(13)  Bbb    -0.0002    -0.025    -0.009    -0.008  0.8392 -0.5057 -0.2000
              Bcc     0.0011     0.142     0.051     0.047  0.3741  0.2700  0.8872
 
              Baa    -0.0269    -3.608    -1.287    -1.204 -0.1586 -0.1530  0.9754
    32 C(13)  Bbb    -0.0258    -3.461    -1.235    -1.154  0.9481  0.2521  0.1938
              Bcc     0.0527     7.069     2.522     2.358 -0.2756  0.9555  0.1051
 
              Baa    -0.0578    -7.752    -2.766    -2.586 -0.3306  0.8629 -0.3822
    33 C(13)  Bbb     0.0227     3.040     1.085     1.014 -0.3062  0.2850  0.9083
              Bcc     0.0351     4.712     1.682     1.572  0.8927  0.4173  0.1699
 
              Baa    -0.0437    -5.863    -2.092    -1.956 -0.0744  0.9260  0.3700
    34 C(13)  Bbb     0.0197     2.647     0.945     0.883 -0.2381 -0.3768  0.8952
              Bcc     0.0240     3.216     1.148     1.073  0.9684 -0.0215  0.2485
 
              Baa    -0.0555    -7.446    -2.657    -2.484  0.0663 -0.5237  0.8493
    35 C(13)  Bbb     0.0271     3.632     1.296     1.212  0.9466  0.3021  0.1124
              Bcc     0.0284     3.814     1.361     1.272 -0.3155  0.7965  0.5158
 
              Baa    -0.0678    -9.101    -3.248    -3.036 -0.4211  0.4918  0.7621
    36 C(13)  Bbb    -0.0632    -8.486    -3.028    -2.831  0.9058  0.2713  0.3254
              Bcc     0.1311    17.588     6.276     5.867 -0.0467  0.8274 -0.5597
 
              Baa    -0.0178    -2.393    -0.854    -0.798  0.8540 -0.5122  0.0908
    37 C(13)  Bbb    -0.0163    -2.185    -0.780    -0.729  0.3762  0.7287  0.5723
              Bcc     0.0341     4.578     1.633     1.527 -0.3593 -0.4546  0.8150
 
              Baa    -0.0419    -5.628    -2.008    -1.877 -0.6315  0.7541 -0.1800
    38 C(13)  Bbb    -0.0416    -5.584    -1.993    -1.863  0.7534  0.6517  0.0871
              Bcc     0.0836    11.212     4.001     3.740 -0.1830  0.0806  0.9798
 
              Baa    -0.0274    -3.671    -1.310    -1.224 -0.3927 -0.1574  0.9061
    39 C(13)  Bbb     0.0122     1.644     0.586     0.548  0.7432 -0.6346  0.2119
              Bcc     0.0151     2.027     0.723     0.676  0.5417  0.7566  0.3662
 
              Baa    -0.0187    -2.506    -0.894    -0.836  0.9711  0.2230  0.0849
    40 C(13)  Bbb    -0.0170    -2.281    -0.814    -0.761 -0.1180  0.7580 -0.6415
              Bcc     0.0357     4.787     1.708     1.597 -0.2074  0.6129  0.7624
 
              Baa    -0.0065    -0.872    -0.311    -0.291  0.7224  0.3840 -0.5751
    41 C(13)  Bbb    -0.0051    -0.685    -0.245    -0.229  0.5843  0.1059  0.8046
              Bcc     0.0116     1.557     0.556     0.519 -0.3699  0.9172  0.1479
 
              Baa    -0.0329    -4.411    -1.574    -1.471 -0.3477  0.3617  0.8650
    42 C(13)  Bbb     0.0151     2.031     0.725     0.677  0.9176  0.3210  0.2346
              Bcc     0.0177     2.380     0.849     0.794 -0.1928  0.8753 -0.4435
 
              Baa    -0.0027    -0.365    -0.130    -0.122  0.2613  0.8458 -0.4651
    43 C(13)  Bbb    -0.0004    -0.054    -0.019    -0.018  0.6728  0.1859  0.7161
              Bcc     0.0031     0.419     0.150     0.140  0.6921 -0.5000 -0.5205
 
              Baa    -0.0066    -0.885    -0.316    -0.295 -0.0272  0.9304 -0.3656
    44 C(13)  Bbb     0.0018     0.239     0.085     0.080 -0.5891  0.2806  0.7578
              Bcc     0.0048     0.646     0.230     0.215  0.8076  0.2360  0.5405
 
              Baa    -0.0070    -0.939    -0.335    -0.313  0.9634 -0.0619 -0.2610
    45 C(13)  Bbb    -0.0059    -0.785    -0.280    -0.262  0.2199  0.7395  0.6363
              Bcc     0.0128     1.724     0.615     0.575  0.1536 -0.6704  0.7260
 
              Baa    -0.0114    -1.533    -0.547    -0.511 -0.6205 -0.0343  0.7835
    46 C(13)  Bbb    -0.0108    -1.455    -0.519    -0.485  0.5733  0.6619  0.4830
              Bcc     0.0223     2.988     1.066     0.997 -0.5352  0.7488 -0.3910
 
              Baa    -0.0003    -0.046    -0.016    -0.015  0.1643  0.9827 -0.0861
    47 C(13)  Bbb    -0.0002    -0.032    -0.011    -0.011  0.9321 -0.1832 -0.3125
              Bcc     0.0006     0.078     0.028     0.026  0.3229  0.0289  0.9460
 
              Baa    -0.0037    -0.495    -0.177    -0.165  0.7738 -0.3211 -0.5460
    48 C(13)  Bbb    -0.0029    -0.395    -0.141    -0.132  0.4086  0.9117  0.0429
              Bcc     0.0066     0.890     0.318     0.297  0.4840 -0.2563  0.8367
 
              Baa    -0.0049    -0.651    -0.232    -0.217  0.9395 -0.1818 -0.2905
    49 C(13)  Bbb    -0.0038    -0.505    -0.180    -0.169 -0.0752  0.7175 -0.6925
              Bcc     0.0086     1.156     0.413     0.386  0.3343  0.6724  0.6604
 
              Baa    -0.0038    -0.505    -0.180    -0.169  0.8320  0.0999 -0.5457
    50 C(13)  Bbb    -0.0031    -0.418    -0.149    -0.139 -0.1959  0.9732 -0.1205
              Bcc     0.0069     0.924     0.330     0.308  0.5190  0.2072  0.8293
 
              Baa    -0.0341    -4.573    -1.632    -1.525 -0.6529 -0.0031  0.7575
    51 C(13)  Bbb    -0.0301    -4.035    -1.440    -1.346  0.7218 -0.3059  0.6208
              Bcc     0.0641     8.608     3.072     2.871  0.2298  0.9521  0.2020
 
              Baa    -0.0308    -4.136    -1.476    -1.380  0.1782  0.9531 -0.2446
    52 C(13)  Bbb     0.0123     1.651     0.589     0.551  0.7229 -0.2955 -0.6246
              Bcc     0.0185     2.485     0.887     0.829  0.6676  0.0655  0.7417
 
              Baa    -0.0045    -0.607    -0.217    -0.203 -0.5601  0.5602  0.6102
    53 C(13)  Bbb    -0.0033    -0.438    -0.156    -0.146  0.5607 -0.2859  0.7771
              Bcc     0.0078     1.045     0.373     0.349  0.6098  0.7774 -0.1540
 
              Baa    -0.0032    -0.432    -0.154    -0.144  0.3164  0.9444  0.0895
    54 C(13)  Bbb     0.0001     0.017     0.006     0.006 -0.6379  0.1420  0.7569
              Bcc     0.0031     0.416     0.148     0.139  0.7021 -0.2965  0.6474
 
              Baa    -0.0030    -0.400    -0.143    -0.133 -0.0987  0.9104  0.4019
    55 C(13)  Bbb    -0.0012    -0.155    -0.055    -0.052  0.5736 -0.2780  0.7705
              Bcc     0.0041     0.555     0.198     0.185  0.8132  0.3066 -0.4947
 
              Baa    -0.0107    -1.436    -0.512    -0.479 -0.5040  0.1330  0.8534
    56 C(13)  Bbb    -0.0101    -1.352    -0.483    -0.451 -0.4690  0.7875 -0.3998
              Bcc     0.0208     2.788     0.995     0.930  0.7252  0.6017  0.3346
 
              Baa    -0.0023    -0.305    -0.109    -0.102  0.0982  0.5445  0.8330
    57 C(13)  Bbb    -0.0017    -0.231    -0.083    -0.077 -0.4890  0.7554 -0.4362
              Bcc     0.0040     0.536     0.191     0.179  0.8667  0.3645 -0.3404
 
              Baa    -0.0030    -0.400    -0.143    -0.133  0.2887 -0.1903  0.9383
    58 C(13)  Bbb    -0.0024    -0.326    -0.116    -0.109  0.5947  0.8037 -0.0200
              Bcc     0.0054     0.726     0.259     0.242  0.7504 -0.5638 -0.3452
 
              Baa    -0.0094    -1.255    -0.448    -0.419  0.7805 -0.5677 -0.2619
    59 C(13)  Bbb     0.0046     0.611     0.218     0.204  0.4448  0.2098  0.8707
              Bcc     0.0048     0.644     0.230     0.215  0.4393  0.7961 -0.4163
 
              Baa    -0.0089    -1.194    -0.426    -0.398  0.9177  0.2700 -0.2913
    60 C(13)  Bbb     0.0043     0.577     0.206     0.193  0.3603 -0.2574  0.8966
              Bcc     0.0046     0.617     0.220     0.206 -0.1671  0.9278  0.3335
 
              Baa    -0.0044    -0.586    -0.209    -0.196  0.6911 -0.4054  0.5984
    61 C(13)  Bbb     0.0014     0.188     0.067     0.063  0.7162  0.2726 -0.6424
              Bcc     0.0030     0.398     0.142     0.133  0.0973  0.8725  0.4788
 
              Baa    -0.0081    -1.084    -0.387    -0.362  0.7199 -0.2903 -0.6304
    62 C(13)  Bbb    -0.0071    -0.950    -0.339    -0.317  0.4046  0.9136  0.0413
              Bcc     0.0152     2.035     0.726     0.679  0.5639 -0.2848  0.7751
 
              Baa    -0.0061    -0.818    -0.292    -0.273  0.7633 -0.0544 -0.6438
    63 C(13)  Bbb    -0.0051    -0.680    -0.243    -0.227 -0.0862  0.9790 -0.1849
              Bcc     0.0112     1.498     0.535     0.500  0.6403  0.1966  0.7425
 
              Baa    -0.0022    -0.292    -0.104    -0.097  0.7316  0.2872  0.6183
    64 C(13)  Bbb     0.0003     0.043     0.015     0.014  0.6742 -0.4397 -0.5934
              Bcc     0.0019     0.249     0.089     0.083  0.1014  0.8510 -0.5153
 
              Baa    -0.0016    -0.221    -0.079    -0.074  0.8372 -0.5226  0.1611
    65 C(13)  Bbb     0.0006     0.085     0.030     0.028 -0.1086  0.1298  0.9856
              Bcc     0.0010     0.136     0.048     0.045  0.5360  0.8426 -0.0519
 
              Baa    -0.0031    -0.415    -0.148    -0.138  0.9754  0.1732  0.1366
    66 C(13)  Bbb     0.0014     0.182     0.065     0.061 -0.1281 -0.0592  0.9900
              Bcc     0.0017     0.233     0.083     0.078 -0.1796  0.9831  0.0355
 
              Baa    -0.1072    -5.613    -2.003    -1.872  0.0347  0.9579  0.2851
    67 Cl(35) Bbb    -0.0711    -3.719    -1.327    -1.240 -0.4387 -0.2417  0.8655
              Bcc     0.1783     9.332     3.330     3.113  0.8980 -0.1551  0.4118
 
              Baa    -0.0100    -0.522    -0.186    -0.174  0.6772 -0.0177  0.7356
    68 Cl(35) Bbb    -0.0069    -0.363    -0.130    -0.121 -0.2828  0.9167  0.2824
              Bcc     0.0169     0.885     0.316     0.295  0.6793  0.3993 -0.6157
 
              Baa    -0.0416    -2.175    -0.776    -0.725 -0.4060  0.7980 -0.4453
    69 Cl(35) Bbb    -0.0384    -2.008    -0.716    -0.670  0.6062  0.5998  0.5223
              Bcc     0.0799     4.183     1.493     1.395 -0.6839  0.0579  0.7273
 
              Baa    -0.0134    -0.700    -0.250    -0.233 -0.1121  0.9664 -0.2314
    70 Cl(35) Bbb    -0.0012    -0.061    -0.022    -0.021 -0.6335  0.1099  0.7659
              Bcc     0.0145     0.761     0.272     0.254  0.7656  0.2324  0.5999
 
              Baa    -0.0219    -1.144    -0.408    -0.382 -0.1310  0.1552  0.9792
    71 Cl(35) Bbb     0.0090     0.469     0.167     0.156  0.8740  0.4843  0.0401
              Bcc     0.0129     0.675     0.241     0.225 -0.4680  0.8610 -0.1991
 
              Baa    -0.0033    -0.172    -0.061    -0.057  0.1368  0.9842  0.1127
    72 Cl(35) Bbb    -0.0017    -0.088    -0.031    -0.029  0.2348 -0.1427  0.9615
              Bcc     0.0050     0.260     0.093     0.087  0.9624 -0.1051 -0.2506
 
              Baa    -0.0243    -1.271    -0.453    -0.424 -0.1074 -0.1338  0.9852
    73 Cl(35) Bbb     0.0101     0.530     0.189     0.177 -0.4628  0.8837  0.0696
              Bcc     0.0141     0.741     0.264     0.247  0.8799  0.4485  0.1569
 
              Baa    -0.0166    -0.867    -0.309    -0.289 -0.4541  0.7900 -0.4120
    74 Cl(35) Bbb    -0.0117    -0.613    -0.219    -0.205  0.3902  0.5920  0.7052
              Bcc     0.0283     1.480     0.528     0.494  0.8010  0.1595 -0.5771
 
              Baa    -0.1977   -10.349    -3.693    -3.452  0.2834  0.2495  0.9259
    75 Cl(35) Bbb    -0.1737    -9.090    -3.244    -3.032  0.6984  0.6079 -0.3776
              Bcc     0.3714    19.439     6.936     6.484 -0.6571  0.7538 -0.0020
 

 ---------------------------------------------------------------------------------

 No NMR shielding tensors so no spin-rotation constants.
 Leave Link  601 at Fri Jul 15 00:22:22 2022, MaxMem=  1342177280 cpu:             110.4 elap:               2.6
 (Enter /home/mkliu/g16/l9999.exe)
 1\1\GINC-NODE04\FOpt\UB3LYP\6-311G(d,p)\C66Cl9(2)\MKLIU\15-Jul-2022\0\
 \#P opt b3lyp/6-311G(d, p) empiricaldispersion=GD3\\force\\0,2\C,-1.31
 09510113,1.8639580599,-3.8836850129\C,0.1928556022,2.2940551149,-4.115
 9938799\C,0.9434629975,0.8745779673,-4.3060282999\C,-1.3107807429,0.36
 78569076,-3.9561095514\C,-0.1198323312,-0.167746916,-4.2468002442\C,-2
 .2299500205,-0.1813625883,-2.9937340573\C,-1.902708751,2.0629698607,-2
 .5231254954\C,-2.626564774,0.9011267786,-2.1504021875\C,-1.4070505528,
 2.9395539261,-1.5439514588\C,0.880392923,2.9481567717,-2.8006884828\C,
 -0.0095643857,3.3154546469,-1.5998022396\C,1.7313120996,0.697768955,-3
 .0409082109\C,1.793365219,1.8498545752,-2.2830510666\C,2.0876368124,-0
 .5405917062,-2.5048633345\C,0.1632619904,-1.5867682889,-3.9074657335\C
 ,1.5917947487,-1.8191820005,-3.1914766367\C,-1.9704727815,-1.453069381
 7,-2.4160929802\C,-0.8184886115,-2.1243534211,-2.8769309582\C,-2.49952
 15724,-1.7455676591,-1.0827663189\C,-3.0816210579,0.6857819031,-0.8199
 264805\C,-3.1085328323,-0.6718719099,-0.2898054785\C,-2.0651539706,2.8
 757688458,-0.2893196859\C,-2.9526488218,1.7858363216,0.0477692257\C,-1
 .4129022177,3.2858971591,0.911640159\C,0.6501036713,3.5263296659,-0.40
 27453684\C,-0.0471591382,3.5535136689,0.8479012939\C,2.3551967555,1.83
 78788514,-1.0078355977\C,2.0942929468,3.0533977786,-0.1304046998\C,2.7
 243501125,-0.5689132832,-1.2481719422\C,2.8846720871,0.6312722737,-0.5
 083333997\C,3.085231302,-1.9255419658,-0.6257949745\C,1.2621065249,-2.
 8254516757,-2.1155351731\C,-0.1514295664,-3.042501584,-2.042059613\C,2
 .0098983032,-2.9433416417,-0.9819730364\C,-1.96175591,-2.854074226,-0.
 3975743159\C,-0.748634801,-3.4800806509,-0.8605649105\C,-1.9577486495,
 -2.9323189142,1.0433342153\C,-3.1735210421,-0.8156240517,1.1159716659\
 C,-2.56598007,-1.9383025253,1.7880534546\C,-2.9146485992,1.6028750279,
 1.4729950087\C,-1.9526385044,2.5298229983,2.0248261708\C,-3.0455669988
 ,0.3276336947,1.9978033389\C,-1.1351855909,2.1288767347,3.0734909633\C
 ,0.8119352064,3.0898729947,1.9127650595\C,2.0375309752,2.6595259063,1.
 3246292865\C,0.2847099426,2.4240098695,3.0220637622\C,3.4492383192,0.6
 008505059,0.915458443\C,2.6945363113,1.5697656358,1.813465584\C,2.9852
 993231,-1.8783914344,0.8863949147\C,3.1724275988,-0.7283540797,1.59312
 33204\C,1.4276723817,-3.4711938648,0.217412268\C,0.0670288531,-3.79134
 87079,0.2754456897\C,-0.6914223317,-3.4928668643,1.4706562322\C,2.0654
 943833,-2.8681510285,1.3607984044\C,-0.0609551909,-2.9851989374,2.6015
 128434\C,1.3564776247,-2.6735949333,2.5502421664\C,-1.960334642,-1.472
 2220053,3.0195114786\C,-2.2571905309,-0.0653468266,3.1488832782\C,-1.2
 96203126,0.8124124662,3.6589892393\C,-0.7108235773,-1.9661220556,3.401
 7618472\C,0.9936801388,1.302878801,3.5708260545\C,2.1778165791,0.88454
 30939,2.958396729\C,2.472945921,-0.5224419246,2.8260841845\C,1.5773084
 915,-1.4772705026,3.3113978522\C,0.0206787326,0.3092706743,3.997082129
 9\C,0.3059853122,-1.0462682133,3.8712543691\Cl,-2.5455689033,2.5637296
 451,-5.061489044\Cl,0.3492021773,3.3190143342,-5.5618527454\Cl,2.04443
 45935,0.7295058202,-5.7437340829\Cl,2.9083509792,-2.4289018436,-4.2877
 738339\Cl,4.7800990991,-2.4136460548,-1.1565399774\Cl,5.2542313315,0.9
 780604224,0.8465335646\Cl,3.4124710602,4.3303222345,-0.3044127975\Cl,1
 .8511242755,4.4377361784,-3.2306518809\Cl,-0.023510897,-2.607468783,-5
 .4427679291\\Version=ES64L-G16RevA.03\State=2-A\HF=-6657.4538582\S2=0.
 793864\S2-1=0.\S2A=0.751779\RMSD=6.236e-09\RMSF=2.822e-05\Dipole=-1.54
 73362,-0.5033323,1.9618966\Quadrupole=-1.0191707,2.122677,-1.1035062,-
 0.0685124,-2.2443612,-0.7517251\PG=C01 [X(C66Cl9)]\\@


 FRICTION IS A DRAG,
 AND ENTROPY AIN'T WHAT IT USED TO BE.
 Job cpu time:       5 days  7 hours  5 minutes 23.1 seconds.
 Elapsed time:       0 days  2 hours 39 minutes  8.0 seconds.
 File lengths (MBytes):  RWF=   2194 Int=      0 D2E=      0 Chk=    198 Scr=      1
 Normal termination of Gaussian 16 at Fri Jul 15 00:22:25 2022.
