 Entering Gaussian System, Link 0=g16
 Input=dp9pq8jhr1bls_addon_9.gjf
 Output=dp9pq8jhr1bls_addon_9.log
 Initial command:
 /home/mkliu/g16/l1.exe "/data/scratch/Gau-132740.inp" -scrdir="/data/scratch/"
 Entering Link 1 = /home/mkliu/g16/l1.exe PID=    132741.
  
 Copyright (c) 1988,1990,1992,1993,1995,1998,2003,2009,2016,
            Gaussian, Inc.  All Rights Reserved.
  
 This is part of the Gaussian(R) 16 program.  It is based on
 the Gaussian(R) 09 system (copyright 2009, Gaussian, Inc.),
 the Gaussian(R) 03 system (copyright 2003, Gaussian, Inc.),
 the Gaussian(R) 98 system (copyright 1998, Gaussian, Inc.),
 the Gaussian(R) 94 system (copyright 1995, Gaussian, Inc.),
 the Gaussian 92(TM) system (copyright 1992, Gaussian, Inc.),
 the Gaussian 90(TM) system (copyright 1990, Gaussian, Inc.),
 the Gaussian 88(TM) system (copyright 1988, Gaussian, Inc.),
 the Gaussian 86(TM) system (copyright 1986, Carnegie Mellon
 University), and the Gaussian 82(TM) system (copyright 1983,
 Carnegie Mellon University). Gaussian is a federally registered
 trademark of Gaussian, Inc.
  
 This software contains proprietary and confidential information,
 including trade secrets, belonging to Gaussian, Inc.
  
 This software is provided under written license and may be
 used, copied, transmitted, or stored only in accord with that
 written license.
  
 The following legend is applicable only to US Government
 contracts under FAR:
  
                    RESTRICTED RIGHTS LEGEND
  
 Use, reproduction and disclosure by the US Government is
 subject to restrictions as set forth in subparagraphs (a)
 and (c) of the Commercial Computer Software - Restricted
 Rights clause in FAR 52.227-19.
  
 Gaussian, Inc.
 340 Quinnipiac St., Bldg. 40, Wallingford CT 06492
  
  
 ---------------------------------------------------------------
 Warning -- This program may not be used in any manner that
 competes with the business of Gaussian, Inc. or will provide
 assistance to any competitor of Gaussian, Inc.  The licensee
 of this program is prohibited from giving any competitor of
 Gaussian, Inc. access to this program.  By using this program,
 the user acknowledges that Gaussian, Inc. is engaged in the
 business of creating and licensing software in the field of
 computational chemistry and represents and warrants to the
 licensee that it is not a competitor of Gaussian, Inc. and that
 it will not use this program in any manner prohibited above.
 ---------------------------------------------------------------
  

 Cite this work as:
 Gaussian 16, Revision A.03,
 M. J. Frisch, G. W. Trucks, H. B. Schlegel, G. E. Scuseria, 
 M. A. Robb, J. R. Cheeseman, G. Scalmani, V. Barone, 
 G. A. Petersson, H. Nakatsuji, X. Li, M. Caricato, A. V. Marenich, 
 J. Bloino, B. G. Janesko, R. Gomperts, B. Mennucci, H. P. Hratchian, 
 J. V. Ortiz, A. F. Izmaylov, J. L. Sonnenberg, D. Williams-Young, 
 F. Ding, F. Lipparini, F. Egidi, J. Goings, B. Peng, A. Petrone, 
 T. Henderson, D. Ranasinghe, V. G. Zakrzewski, J. Gao, N. Rega, 
 G. Zheng, W. Liang, M. Hada, M. Ehara, K. Toyota, R. Fukuda, 
 J. Hasegawa, M. Ishida, T. Nakajima, Y. Honda, O. Kitao, H. Nakai, 
 T. Vreven, K. Throssell, J. A. Montgomery, Jr., J. E. Peralta, 
 F. Ogliaro, M. J. Bearpark, J. J. Heyd, E. N. Brothers, K. N. Kudin, 
 V. N. Staroverov, T. A. Keith, R. Kobayashi, J. Normand, 
 K. Raghavachari, A. P. Rendell, J. C. Burant, S. S. Iyengar, 
 J. Tomasi, M. Cossi, J. M. Millam, M. Klene, C. Adamo, R. Cammi, 
 J. W. Ochterski, R. L. Martin, K. Morokuma, O. Farkas, 
 J. B. Foresman, and D. J. Fox, Gaussian, Inc., Wallingford CT, 2016.
 
 ******************************************
 Gaussian 16:  ES64L-G16RevA.03 25-Dec-2016
                15-Jul-2022 
 ******************************************
 %mem=10GB
 %chk=dp9pq8jhr1bls_addon_9.chk
 %nprocshared=48
 Will use up to   48 processors via shared memory.
 -------------------------------------------------
 #P opt b3lyp/6-311G(d, p) empiricaldispersion=GD3
 -------------------------------------------------
 1/18=20,19=15,26=3,38=1/1,3;
 2/9=110,12=2,17=6,18=5,40=1/2;
 3/5=4,6=6,7=101,11=2,25=1,30=1,71=1,74=-5,124=31/1,2,3;
 4//1;
 5/5=2,38=5/2;
 6/7=2,8=2,9=2,10=2,28=1/1;
 7//1,2,3,16;
 1/18=20,19=15,26=3/3(2);
 2/9=110/2;
 99//99;
 2/9=110/2;
 3/5=4,6=6,7=101,11=2,25=1,30=1,71=1,74=-5,124=31/1,2,3;
 4/5=5,16=3,69=1/1;
 5/5=2,38=5/2;
 7//1,2,3,16;
 1/18=20,19=15,26=3/3(-5);
 2/9=110/2;
 6/7=2,8=2,9=2,10=2,19=2,28=1/1;
 99/9=1/99;
 Leave Link    1 at Fri Jul 15 22:43:16 2022, MaxMem=  1342177280 cpu:               2.0 elap:               0.0
 (Enter /home/mkliu/g16/l101.exe)
 -----
 force
 -----
 Symbolic Z-matrix:
 Charge =  0 Multiplicity = 2
 C                    -1.29972   1.88683  -3.90594 
 C                     0.21619   2.26584  -4.08113 
 C                     0.96004   0.89721  -4.26836 
 C                    -1.30752   0.39347  -3.83989 
 C                    -0.07394  -0.158    -4.10627 
 C                    -2.18796  -0.1344   -2.93187 
 C                    -1.94277   2.13308  -2.59254 
 C                    -2.89891   0.98866  -2.25406 
 C                    -1.35306   2.82263  -1.56247 
 C                     0.88238   2.90008  -2.80873 
 C                     0.03526   3.20562  -1.60079 
 C                     1.77879   0.69644  -3.02144 
 C                     1.81378   1.8408   -2.2676 
 C                     2.14919  -0.53249  -2.49099 
 C                     0.20475  -1.38052  -3.56581 
 C                     1.59384  -1.79456  -3.1437 
 C                    -1.94811  -1.38883  -2.35725 
 C                    -0.77216  -2.03467  -2.79045 
 C                    -2.52338  -1.73747  -1.06802 
 C                    -3.14483   0.66841  -0.80496 
 C                    -3.13674  -0.668    -0.28952 
 C                    -2.01238   2.77548  -0.30582 
 C                    -2.9419    1.737     0.05305 
 C                    -1.37663   3.18991   0.87352 
 C                     0.6896    3.41937  -0.4175 
 C                    -0.01858   3.47591   0.82783 
 C                     2.36524   1.81588  -1.00293 
 C                     2.12281   3.02864  -0.1338 
 C                     2.77283  -0.56382  -1.24228 
 C                     2.89435   0.626    -0.50349 
 C                     3.11581  -1.91604  -0.6249 
 C                     1.29046  -2.80617  -2.08483 
 C                    -0.12247  -3.01212  -1.99807 
 C                     2.03626  -2.91179  -0.95958 
 C                    -1.95938  -2.81883  -0.39235 
 C                    -0.73264  -3.42875  -0.84572 
 C                    -1.96081  -2.91218   1.04 
 C                    -3.176    -0.81818   1.11426 
 C                    -2.57377  -1.93097   1.77792 
 C                    -2.90709   1.56406   1.46886 
 C                    -1.94038   2.47445   1.99518 
 C                    -3.05161   0.30254   1.99798 
 C                    -1.12683   2.08065   3.03416 
 C                     0.81328   3.04923   1.88849 
 C                     2.06049   2.64784   1.317 
 C                     0.28057   2.37422   2.97688 
 C                     3.46075   0.60128   0.90866 
 C                     2.69675   1.55002   1.78979 
 C                     3.00561  -1.86326   0.87282 
 C                     3.18122  -0.71593   1.57305 
 C                     1.43868  -3.44713   0.22321 
 C                     0.08361  -3.74345   0.27717 
 C                    -0.69197  -3.45885   1.44483 
 C                     2.0674   -2.83867   1.34494 
 C                    -0.0655   -2.94936   2.56501 
 C                     1.33504  -2.63349   2.5008 
 C                    -1.97171  -1.48144   3.01122 
 C                    -2.26682  -0.08508   3.13799 
 C                    -1.30926   0.78496   3.63104 
 C                    -0.72794  -1.95808   3.36564 
 C                     0.97898   1.26336   3.51722 
 C                     2.16856   0.8641    2.9331 
 C                     2.45957  -0.52019   2.79613 
 C                     1.54949  -1.45103   3.25757 
 C                     0.00406   0.2951    3.94972 
 C                     0.28938  -1.04716   3.81927 
 Cl                   -2.34798   2.48473  -5.24589 
 Cl                    0.41756   3.3093   -5.50852 
 Cl                    1.95879   0.7396   -5.72187 
 Cl                    2.6894   -2.39342  -4.42265 
 Cl                    4.75945  -2.38247  -1.20916 
 Cl                    5.21885   0.99668   0.77674 
 Cl                    3.39435   4.26884  -0.41179 
 Cl                    1.81567   4.38085  -3.21526 
 Cl                   -4.57087   1.24213  -2.9547 
 
 ITRead=  0  0  0  0  0  0  0  0  0  0  0  0  0  0  0  0  0  0  0  0
 ITRead=  0  0  0  0  0  0  0  0  0  0  0  0  0  0  0  0  0  0  0  0
 ITRead=  0  0  0  0  0  0  0  0  0  0  0  0  0  0  0  0  0  0  0  0
 ITRead=  0  0  0  0  0  0  0  0  0  0  0  0  0  0  0
 MicOpt= -1 -1 -1 -1 -1 -1 -1 -1 -1 -1 -1 -1 -1 -1 -1 -1 -1 -1 -1 -1
 MicOpt= -1 -1 -1 -1 -1 -1 -1 -1 -1 -1 -1 -1 -1 -1 -1 -1 -1 -1 -1 -1
 MicOpt= -1 -1 -1 -1 -1 -1 -1 -1 -1 -1 -1 -1 -1 -1 -1 -1 -1 -1 -1 -1
 MicOpt= -1 -1 -1 -1 -1 -1 -1 -1 -1 -1 -1 -1 -1 -1 -1
 NAtoms=     75 NQM=       75 NQMF=       0 NMMI=      0 NMMIF=      0
                NMic=       0 NMicF=      0.
                    Isotopes and Nuclear Properties:
 (Nuclear quadrupole moments (NQMom) in fm**2, nuclear magnetic moments (NMagM)
  in nuclear magnetons)

  Atom         1           2           3           4           5           6           7           8           9          10
 IAtWgt=          12          12          12          12          12          12          12          12          12          12
 AtmWgt=  12.0000000  12.0000000  12.0000000  12.0000000  12.0000000  12.0000000  12.0000000  12.0000000  12.0000000  12.0000000
 NucSpn=           0           0           0           0           0           0           0           0           0           0
 AtZEff=  -0.0000000  -0.0000000  -0.0000000  -0.0000000  -0.0000000  -0.0000000  -0.0000000  -0.0000000  -0.0000000  -0.0000000
 NQMom=    0.0000000   0.0000000   0.0000000   0.0000000   0.0000000   0.0000000   0.0000000   0.0000000   0.0000000   0.0000000
 NMagM=    0.0000000   0.0000000   0.0000000   0.0000000   0.0000000   0.0000000   0.0000000   0.0000000   0.0000000   0.0000000
 AtZNuc=   6.0000000   6.0000000   6.0000000   6.0000000   6.0000000   6.0000000   6.0000000   6.0000000   6.0000000   6.0000000

  Atom        11          12          13          14          15          16          17          18          19          20
 IAtWgt=          12          12          12          12          12          12          12          12          12          12
 AtmWgt=  12.0000000  12.0000000  12.0000000  12.0000000  12.0000000  12.0000000  12.0000000  12.0000000  12.0000000  12.0000000
 NucSpn=           0           0           0           0           0           0           0           0           0           0
 AtZEff=  -0.0000000  -0.0000000  -0.0000000  -0.0000000  -0.0000000  -0.0000000  -0.0000000  -0.0000000  -0.0000000  -0.0000000
 NQMom=    0.0000000   0.0000000   0.0000000   0.0000000   0.0000000   0.0000000   0.0000000   0.0000000   0.0000000   0.0000000
 NMagM=    0.0000000   0.0000000   0.0000000   0.0000000   0.0000000   0.0000000   0.0000000   0.0000000   0.0000000   0.0000000
 AtZNuc=   6.0000000   6.0000000   6.0000000   6.0000000   6.0000000   6.0000000   6.0000000   6.0000000   6.0000000   6.0000000

  Atom        21          22          23          24          25          26          27          28          29          30
 IAtWgt=          12          12          12          12          12          12          12          12          12          12
 AtmWgt=  12.0000000  12.0000000  12.0000000  12.0000000  12.0000000  12.0000000  12.0000000  12.0000000  12.0000000  12.0000000
 NucSpn=           0           0           0           0           0           0           0           0           0           0
 AtZEff=  -0.0000000  -0.0000000  -0.0000000  -0.0000000  -0.0000000  -0.0000000  -0.0000000  -0.0000000  -0.0000000  -0.0000000
 NQMom=    0.0000000   0.0000000   0.0000000   0.0000000   0.0000000   0.0000000   0.0000000   0.0000000   0.0000000   0.0000000
 NMagM=    0.0000000   0.0000000   0.0000000   0.0000000   0.0000000   0.0000000   0.0000000   0.0000000   0.0000000   0.0000000
 AtZNuc=   6.0000000   6.0000000   6.0000000   6.0000000   6.0000000   6.0000000   6.0000000   6.0000000   6.0000000   6.0000000

  Atom        31          32          33          34          35          36          37          38          39          40
 IAtWgt=          12          12          12          12          12          12          12          12          12          12
 AtmWgt=  12.0000000  12.0000000  12.0000000  12.0000000  12.0000000  12.0000000  12.0000000  12.0000000  12.0000000  12.0000000
 NucSpn=           0           0           0           0           0           0           0           0           0           0
 AtZEff=  -0.0000000  -0.0000000  -0.0000000  -0.0000000  -0.0000000  -0.0000000  -0.0000000  -0.0000000  -0.0000000  -0.0000000
 NQMom=    0.0000000   0.0000000   0.0000000   0.0000000   0.0000000   0.0000000   0.0000000   0.0000000   0.0000000   0.0000000
 NMagM=    0.0000000   0.0000000   0.0000000   0.0000000   0.0000000   0.0000000   0.0000000   0.0000000   0.0000000   0.0000000
 AtZNuc=   6.0000000   6.0000000   6.0000000   6.0000000   6.0000000   6.0000000   6.0000000   6.0000000   6.0000000   6.0000000

  Atom        41          42          43          44          45          46          47          48          49          50
 IAtWgt=          12          12          12          12          12          12          12          12          12          12
 AtmWgt=  12.0000000  12.0000000  12.0000000  12.0000000  12.0000000  12.0000000  12.0000000  12.0000000  12.0000000  12.0000000
 NucSpn=           0           0           0           0           0           0           0           0           0           0
 AtZEff=  -0.0000000  -0.0000000  -0.0000000  -0.0000000  -0.0000000  -0.0000000  -0.0000000  -0.0000000  -0.0000000  -0.0000000
 NQMom=    0.0000000   0.0000000   0.0000000   0.0000000   0.0000000   0.0000000   0.0000000   0.0000000   0.0000000   0.0000000
 NMagM=    0.0000000   0.0000000   0.0000000   0.0000000   0.0000000   0.0000000   0.0000000   0.0000000   0.0000000   0.0000000
 AtZNuc=   6.0000000   6.0000000   6.0000000   6.0000000   6.0000000   6.0000000   6.0000000   6.0000000   6.0000000   6.0000000

  Atom        51          52          53          54          55          56          57          58          59          60
 IAtWgt=          12          12          12          12          12          12          12          12          12          12
 AtmWgt=  12.0000000  12.0000000  12.0000000  12.0000000  12.0000000  12.0000000  12.0000000  12.0000000  12.0000000  12.0000000
 NucSpn=           0           0           0           0           0           0           0           0           0           0
 AtZEff=  -0.0000000  -0.0000000  -0.0000000  -0.0000000  -0.0000000  -0.0000000  -0.0000000  -0.0000000  -0.0000000  -0.0000000
 NQMom=    0.0000000   0.0000000   0.0000000   0.0000000   0.0000000   0.0000000   0.0000000   0.0000000   0.0000000   0.0000000
 NMagM=    0.0000000   0.0000000   0.0000000   0.0000000   0.0000000   0.0000000   0.0000000   0.0000000   0.0000000   0.0000000
 AtZNuc=   6.0000000   6.0000000   6.0000000   6.0000000   6.0000000   6.0000000   6.0000000   6.0000000   6.0000000   6.0000000

  Atom        61          62          63          64          65          66          67          68          69          70
 IAtWgt=          12          12          12          12          12          12          35          35          35          35
 AtmWgt=  12.0000000  12.0000000  12.0000000  12.0000000  12.0000000  12.0000000  34.9688527  34.9688527  34.9688527  34.9688527
 NucSpn=           0           0           0           0           0           0           3           3           3           3
 AtZEff=  -0.0000000  -0.0000000  -0.0000000  -0.0000000  -0.0000000  -0.0000000  -0.0000000  -0.0000000  -0.0000000  -0.0000000
 NQMom=    0.0000000   0.0000000   0.0000000   0.0000000   0.0000000   0.0000000  -8.1650000  -8.1650000  -8.1650000  -8.1650000
 NMagM=    0.0000000   0.0000000   0.0000000   0.0000000   0.0000000   0.0000000   0.8218740   0.8218740   0.8218740   0.8218740
 AtZNuc=   6.0000000   6.0000000   6.0000000   6.0000000   6.0000000   6.0000000  17.0000000  17.0000000  17.0000000  17.0000000

  Atom        71          72          73          74          75
 IAtWgt=          35          35          35          35          35
 AtmWgt=  34.9688527  34.9688527  34.9688527  34.9688527  34.9688527
 NucSpn=           3           3           3           3           3
 AtZEff=  -0.0000000  -0.0000000  -0.0000000  -0.0000000  -0.0000000
 NQMom=   -8.1650000  -8.1650000  -8.1650000  -8.1650000  -8.1650000
 NMagM=    0.8218740   0.8218740   0.8218740   0.8218740   0.8218740
 AtZNuc=  17.0000000  17.0000000  17.0000000  17.0000000  17.0000000
 Leave Link  101 at Fri Jul 15 22:43:16 2022, MaxMem=  1342177280 cpu:              27.5 elap:               0.6
 (Enter /home/mkliu/g16/l103.exe)

 GradGradGradGradGradGradGradGradGradGradGradGradGradGradGradGradGradGrad
 Berny optimization.
 Initialization pass.
                           ----------------------------
                           !    Initial Parameters    !
                           ! (Angstroms and Degrees)  !
 --------------------------                            --------------------------
 ! Name  Definition              Value          Derivative Info.                !
 --------------------------------------------------------------------------------
 ! R1    R(1,2)                  1.5724         estimate D2E/DX2                !
 ! R2    R(1,4)                  1.4948         estimate D2E/DX2                !
 ! R3    R(1,7)                  1.483          estimate D2E/DX2                !
 ! R4    R(1,67)                 1.8033         estimate D2E/DX2                !
 ! R5    R(2,3)                  1.5689         estimate D2E/DX2                !
 ! R6    R(2,10)                 1.5701         estimate D2E/DX2                !
 ! R7    R(2,68)                 1.7796         estimate D2E/DX2                !
 ! R8    R(3,5)                  1.4862         estimate D2E/DX2                !
 ! R9    R(3,12)                 1.5052         estimate D2E/DX2                !
 ! R10   R(3,69)                 1.7706         estimate D2E/DX2                !
 ! R11   R(4,5)                  1.3772         estimate D2E/DX2                !
 ! R12   R(4,6)                  1.3705         estimate D2E/DX2                !
 ! R13   R(5,15)                 1.3654         estimate D2E/DX2                !
 ! R14   R(6,8)                  1.492          estimate D2E/DX2                !
 ! R15   R(6,17)                 1.4005         estimate D2E/DX2                !
 ! R16   R(7,8)                  1.5292         estimate D2E/DX2                !
 ! R17   R(7,9)                  1.3727         estimate D2E/DX2                !
 ! R18   R(8,20)                 1.5043         estimate D2E/DX2                !
 ! R19   R(8,75)                 1.8305         estimate D2E/DX2                !
 ! R20   R(9,11)                 1.4407         estimate D2E/DX2                !
 ! R21   R(9,22)                 1.4199         estimate D2E/DX2                !
 ! R22   R(10,11)                1.5067         estimate D2E/DX2                !
 ! R23   R(10,13)                1.5108         estimate D2E/DX2                !
 ! R24   R(10,74)                1.7969         estimate D2E/DX2                !
 ! R25   R(11,25)                1.3689         estimate D2E/DX2                !
 ! R26   R(12,13)                1.3708         estimate D2E/DX2                !
 ! R27   R(12,14)                1.3888         estimate D2E/DX2                !
 ! R28   R(13,27)                1.3799         estimate D2E/DX2                !
 ! R29   R(14,16)                1.5255         estimate D2E/DX2                !
 ! R30   R(14,29)                1.3961         estimate D2E/DX2                !
 ! R31   R(15,16)                1.5097         estimate D2E/DX2                !
 ! R32   R(15,18)                1.4083         estimate D2E/DX2                !
 ! R33   R(16,32)                1.4955         estimate D2E/DX2                !
 ! R34   R(16,70)                1.7873         estimate D2E/DX2                !
 ! R35   R(17,18)                1.4098         estimate D2E/DX2                !
 ! R36   R(17,19)                1.4542         estimate D2E/DX2                !
 ! R37   R(18,33)                1.4161         estimate D2E/DX2                !
 ! R38   R(19,21)                1.4581         estimate D2E/DX2                !
 ! R39   R(19,35)                1.3943         estimate D2E/DX2                !
 ! R40   R(20,21)                1.4324         estimate D2E/DX2                !
 ! R41   R(20,23)                1.3854         estimate D2E/DX2                !
 ! R42   R(21,38)                1.4123         estimate D2E/DX2                !
 ! R43   R(22,23)                1.4392         estimate D2E/DX2                !
 ! R44   R(22,24)                1.4024         estimate D2E/DX2                !
 ! R45   R(23,40)                1.4268         estimate D2E/DX2                !
 ! R46   R(24,26)                1.3886         estimate D2E/DX2                !
 ! R47   R(24,41)                1.4449         estimate D2E/DX2                !
 ! R48   R(25,26)                1.4337         estimate D2E/DX2                !
 ! R49   R(25,28)                1.5124         estimate D2E/DX2                !
 ! R50   R(26,44)                1.4139         estimate D2E/DX2                !
 ! R51   R(27,28)                1.5116         estimate D2E/DX2                !
 ! R52   R(27,30)                1.3947         estimate D2E/DX2                !
 ! R53   R(28,45)                1.5012         estimate D2E/DX2                !
 ! R54   R(28,73)                1.7978         estimate D2E/DX2                !
 ! R55   R(29,30)                1.4058         estimate D2E/DX2                !
 ! R56   R(29,31)                1.5255         estimate D2E/DX2                !
 ! R57   R(30,47)                1.5217         estimate D2E/DX2                !
 ! R58   R(31,34)                1.5063         estimate D2E/DX2                !
 ! R59   R(31,49)                1.5027         estimate D2E/DX2                !
 ! R60   R(31,71)                1.8057         estimate D2E/DX2                !
 ! R61   R(32,33)                1.4305         estimate D2E/DX2                !
 ! R62   R(32,34)                1.3541         estimate D2E/DX2                !
 ! R63   R(33,36)                1.3689         estimate D2E/DX2                !
 ! R64   R(34,51)                1.4292         estimate D2E/DX2                !
 ! R65   R(35,36)                1.4431         estimate D2E/DX2                !
 ! R66   R(35,37)                1.4354         estimate D2E/DX2                !
 ! R67   R(36,52)                1.4234         estimate D2E/DX2                !
 ! R68   R(37,39)                1.3722         estimate D2E/DX2                !
 ! R69   R(37,53)                1.4397         estimate D2E/DX2                !
 ! R70   R(38,39)                1.4288         estimate D2E/DX2                !
 ! R71   R(38,42)                1.4326         estimate D2E/DX2                !
 ! R72   R(39,57)                1.4442         estimate D2E/DX2                !
 ! R73   R(40,41)                1.4284         estimate D2E/DX2                !
 ! R74   R(40,42)                1.3756         estimate D2E/DX2                !
 ! R75   R(41,43)                1.3771         estimate D2E/DX2                !
 ! R76   R(42,58)                1.4373         estimate D2E/DX2                !
 ! R77   R(43,46)                1.4388         estimate D2E/DX2                !
 ! R78   R(43,59)                1.4382         estimate D2E/DX2                !
 ! R79   R(44,45)                1.4294         estimate D2E/DX2                !
 ! R80   R(44,46)                1.3871         estimate D2E/DX2                !
 ! R81   R(45,48)                1.3541         estimate D2E/DX2                !
 ! R82   R(46,61)                1.4191         estimate D2E/DX2                !
 ! R83   R(47,48)                1.5034         estimate D2E/DX2                !
 ! R84   R(47,50)                1.5015         estimate D2E/DX2                !
 ! R85   R(47,72)                1.8068         estimate D2E/DX2                !
 ! R86   R(48,62)                1.4341         estimate D2E/DX2                !
 ! R87   R(49,50)                1.3556         estimate D2E/DX2                !
 ! R88   R(49,54)                1.4334         estimate D2E/DX2                !
 ! R89   R(50,63)                1.4335         estimate D2E/DX2                !
 ! R90   R(51,52)                1.3881         estimate D2E/DX2                !
 ! R91   R(51,54)                1.4226         estimate D2E/DX2                !
 ! R92   R(52,53)                1.4304         estimate D2E/DX2                !
 ! R93   R(53,55)                1.3809         estimate D2E/DX2                !
 ! R94   R(54,56)                1.3836         estimate D2E/DX2                !
 ! R95   R(55,56)                1.4372         estimate D2E/DX2                !
 ! R96   R(55,60)                1.4361         estimate D2E/DX2                !
 ! R97   R(56,64)                1.4202         estimate D2E/DX2                !
 ! R98   R(57,58)                1.4328         estimate D2E/DX2                !
 ! R99   R(57,60)                1.3783         estimate D2E/DX2                !
 ! R100  R(58,59)                1.3846         estimate D2E/DX2                !
 ! R101  R(59,65)                1.4375         estimate D2E/DX2                !
 ! R102  R(60,66)                1.4389         estimate D2E/DX2                !
 ! R103  R(61,62)                1.3841         estimate D2E/DX2                !
 ! R104  R(61,65)                1.4405         estimate D2E/DX2                !
 ! R105  R(62,63)                1.4212         estimate D2E/DX2                !
 ! R106  R(63,64)                1.3812         estimate D2E/DX2                !
 ! R107  R(64,66)                1.4375         estimate D2E/DX2                !
 ! R108  R(65,66)                1.3784         estimate D2E/DX2                !
 ! A1    A(2,1,4)              104.5226         estimate D2E/DX2                !
 ! A2    A(2,1,7)              118.4705         estimate D2E/DX2                !
 ! A3    A(2,1,67)             113.4361         estimate D2E/DX2                !
 ! A4    A(4,1,7)               97.1514         estimate D2E/DX2                !
 ! A5    A(4,1,67)             111.1641         estimate D2E/DX2                !
 ! A6    A(7,1,67)             110.547          estimate D2E/DX2                !
 ! A7    A(1,2,3)              105.0768         estimate D2E/DX2                !
 ! A8    A(1,2,10)             114.5923         estimate D2E/DX2                !
 ! A9    A(1,2,68)             109.865          estimate D2E/DX2                !
 ! A10   A(3,2,10)             104.3553         estimate D2E/DX2                !
 ! A11   A(3,2,68)             111.2311         estimate D2E/DX2                !
 ! A12   A(10,2,68)            111.4174         estimate D2E/DX2                !
 ! A13   A(2,3,5)              106.0509         estimate D2E/DX2                !
 ! A14   A(2,3,12)             105.9859         estimate D2E/DX2                !
 ! A15   A(2,3,69)             116.2991         estimate D2E/DX2                !
 ! A16   A(5,3,12)             101.1505         estimate D2E/DX2                !
 ! A17   A(5,3,69)             114.7563         estimate D2E/DX2                !
 ! A18   A(12,3,69)            111.1838         estimate D2E/DX2                !
 ! A19   A(1,4,5)              112.7555         estimate D2E/DX2                !
 ! A20   A(1,4,6)              114.671          estimate D2E/DX2                !
 ! A21   A(5,4,6)              123.3207         estimate D2E/DX2                !
 ! A22   A(3,5,4)              111.0967         estimate D2E/DX2                !
 ! A23   A(3,5,15)             122.4704         estimate D2E/DX2                !
 ! A24   A(4,5,15)             117.6954         estimate D2E/DX2                !
 ! A25   A(4,6,8)              108.4925         estimate D2E/DX2                !
 ! A26   A(4,6,17)             120.4523         estimate D2E/DX2                !
 ! A27   A(8,6,17)             124.7101         estimate D2E/DX2                !
 ! A28   A(1,7,8)              110.0533         estimate D2E/DX2                !
 ! A29   A(1,7,9)              124.1757         estimate D2E/DX2                !
 ! A30   A(8,7,9)              118.5836         estimate D2E/DX2                !
 ! A31   A(6,8,7)               99.4868         estimate D2E/DX2                !
 ! A32   A(6,8,20)             110.8105         estimate D2E/DX2                !
 ! A33   A(6,8,75)             111.4433         estimate D2E/DX2                !
 ! A34   A(7,8,20)             118.3439         estimate D2E/DX2                !
 ! A35   A(7,8,75)             112.5045         estimate D2E/DX2                !
 ! A36   A(20,8,75)            104.4107         estimate D2E/DX2                !
 ! A37   A(7,9,11)             121.8406         estimate D2E/DX2                !
 ! A38   A(7,9,22)             116.6132         estimate D2E/DX2                !
 ! A39   A(11,9,22)            118.6752         estimate D2E/DX2                !
 ! A40   A(2,10,11)            119.5433         estimate D2E/DX2                !
 ! A41   A(2,10,13)            105.5826         estimate D2E/DX2                !
 ! A42   A(2,10,74)            111.7105         estimate D2E/DX2                !
 ! A43   A(11,10,13)           101.6334         estimate D2E/DX2                !
 ! A44   A(11,10,74)           107.8357         estimate D2E/DX2                !
 ! A45   A(13,10,74)           109.7932         estimate D2E/DX2                !
 ! A46   A(9,11,10)            120.6124         estimate D2E/DX2                !
 ! A47   A(9,11,25)            118.6282         estimate D2E/DX2                !
 ! A48   A(10,11,25)           117.1236         estimate D2E/DX2                !
 ! A49   A(3,12,13)            110.984          estimate D2E/DX2                !
 ! A50   A(3,12,14)            125.417          estimate D2E/DX2                !
 ! A51   A(13,12,14)           121.4571         estimate D2E/DX2                !
 ! A52   A(10,13,12)           111.8781         estimate D2E/DX2                !
 ! A53   A(10,13,27)           125.9666         estimate D2E/DX2                !
 ! A54   A(12,13,27)           119.9427         estimate D2E/DX2                !
 ! A55   A(12,14,16)           118.1347         estimate D2E/DX2                !
 ! A56   A(12,14,29)           118.7242         estimate D2E/DX2                !
 ! A57   A(16,14,29)           121.7846         estimate D2E/DX2                !
 ! A58   A(5,15,16)            122.9588         estimate D2E/DX2                !
 ! A59   A(5,15,18)            119.4865         estimate D2E/DX2                !
 ! A60   A(16,15,18)           110.911          estimate D2E/DX2                !
 ! A61   A(14,16,15)           103.161          estimate D2E/DX2                !
 ! A62   A(14,16,32)           109.3002         estimate D2E/DX2                !
 ! A63   A(14,16,70)           111.1128         estimate D2E/DX2                !
 ! A64   A(15,16,32)           101.3512         estimate D2E/DX2                !
 ! A65   A(15,16,70)           117.117          estimate D2E/DX2                !
 ! A66   A(32,16,70)           113.8499         estimate D2E/DX2                !
 ! A67   A(6,17,18)            115.2839         estimate D2E/DX2                !
 ! A68   A(6,17,19)            120.7149         estimate D2E/DX2                !
 ! A69   A(18,17,19)           119.509          estimate D2E/DX2                !
 ! A70   A(15,18,17)           122.3417         estimate D2E/DX2                !
 ! A71   A(15,18,33)           108.0849         estimate D2E/DX2                !
 ! A72   A(17,18,33)           121.7989         estimate D2E/DX2                !
 ! A73   A(17,19,21)           117.6407         estimate D2E/DX2                !
 ! A74   A(17,19,35)           117.1011         estimate D2E/DX2                !
 ! A75   A(21,19,35)           118.7038         estimate D2E/DX2                !
 ! A76   A(8,20,21)            122.9796         estimate D2E/DX2                !
 ! A77   A(8,20,23)            114.108          estimate D2E/DX2                !
 ! A78   A(21,20,23)           119.7329         estimate D2E/DX2                !
 ! A79   A(19,21,20)           119.6412         estimate D2E/DX2                !
 ! A80   A(19,21,38)           117.671          estimate D2E/DX2                !
 ! A81   A(20,21,38)           117.1754         estimate D2E/DX2                !
 ! A82   A(9,22,23)            122.9948         estimate D2E/DX2                !
 ! A83   A(9,22,24)            121.5966         estimate D2E/DX2                !
 ! A84   A(23,22,24)           107.2372         estimate D2E/DX2                !
 ! A85   A(20,23,22)           119.785          estimate D2E/DX2                !
 ! A86   A(20,23,40)           121.6457         estimate D2E/DX2                !
 ! A87   A(22,23,40)           108.6117         estimate D2E/DX2                !
 ! A88   A(22,24,26)           118.4602         estimate D2E/DX2                !
 ! A89   A(22,24,41)           109.2445         estimate D2E/DX2                !
 ! A90   A(26,24,41)           120.6042         estimate D2E/DX2                !
 ! A91   A(11,25,26)           121.3898         estimate D2E/DX2                !
 ! A92   A(11,25,28)           125.084          estimate D2E/DX2                !
 ! A93   A(26,25,28)           108.3813         estimate D2E/DX2                !
 ! A94   A(24,26,25)           120.2345         estimate D2E/DX2                !
 ! A95   A(24,26,44)           119.2467         estimate D2E/DX2                !
 ! A96   A(25,26,44)           110.4318         estimate D2E/DX2                !
 ! A97   A(13,27,28)           116.6399         estimate D2E/DX2                !
 ! A98   A(13,27,30)           119.6833         estimate D2E/DX2                !
 ! A99   A(28,27,30)           122.6443         estimate D2E/DX2                !
 ! A100  A(25,28,27)           104.5607         estimate D2E/DX2                !
 ! A101  A(25,28,45)           101.9749         estimate D2E/DX2                !
 ! A102  A(25,28,73)           117.582          estimate D2E/DX2                !
 ! A103  A(27,28,45)           111.0267         estimate D2E/DX2                !
 ! A104  A(27,28,73)           110.5556         estimate D2E/DX2                !
 ! A105  A(45,28,73)           110.7181         estimate D2E/DX2                !
 ! A106  A(14,29,30)           119.3186         estimate D2E/DX2                !
 ! A107  A(14,29,31)           118.8339         estimate D2E/DX2                !
 ! A108  A(30,29,31)           121.2047         estimate D2E/DX2                !
 ! A109  A(27,30,29)           120.0722         estimate D2E/DX2                !
 ! A110  A(27,30,47)           119.1682         estimate D2E/DX2                !
 ! A111  A(29,30,47)           120.4061         estimate D2E/DX2                !
 ! A112  A(29,31,34)           109.5667         estimate D2E/DX2                !
 ! A113  A(29,31,49)           110.8385         estimate D2E/DX2                !
 ! A114  A(29,31,71)           107.618          estimate D2E/DX2                !
 ! A115  A(34,31,49)           101.076          estimate D2E/DX2                !
 ! A116  A(34,31,71)           114.1874         estimate D2E/DX2                !
 ! A117  A(49,31,71)           113.4731         estimate D2E/DX2                !
 ! A118  A(16,32,33)           109.9194         estimate D2E/DX2                !
 ! A119  A(16,32,34)           121.9649         estimate D2E/DX2                !
 ! A120  A(33,32,34)           118.8415         estimate D2E/DX2                !
 ! A121  A(18,33,32)           108.653          estimate D2E/DX2                !
 ! A122  A(18,33,36)           118.4652         estimate D2E/DX2                !
 ! A123  A(32,33,36)           122.3535         estimate D2E/DX2                !
 ! A124  A(31,34,32)           121.8574         estimate D2E/DX2                !
 ! A125  A(31,34,51)           111.3085         estimate D2E/DX2                !
 ! A126  A(32,34,51)           119.1202         estimate D2E/DX2                !
 ! A127  A(19,35,36)           121.2943         estimate D2E/DX2                !
 ! A128  A(19,35,37)           122.2507         estimate D2E/DX2                !
 ! A129  A(36,35,37)           106.6696         estimate D2E/DX2                !
 ! A130  A(33,36,35)           120.9811         estimate D2E/DX2                !
 ! A131  A(33,36,52)           118.4093         estimate D2E/DX2                !
 ! A132  A(35,36,52)           109.4563         estimate D2E/DX2                !
 ! A133  A(35,37,39)           119.3767         estimate D2E/DX2                !
 ! A134  A(35,37,53)           107.7235         estimate D2E/DX2                !
 ! A135  A(39,37,53)           120.9294         estimate D2E/DX2                !
 ! A136  A(21,38,39)           122.1928         estimate D2E/DX2                !
 ! A137  A(21,38,42)           121.838          estimate D2E/DX2                !
 ! A138  A(39,38,42)           106.6278         estimate D2E/DX2                !
 ! A139  A(37,39,38)           119.6964         estimate D2E/DX2                !
 ! A140  A(37,39,57)           119.7088         estimate D2E/DX2                !
 ! A141  A(38,39,57)           109.266          estimate D2E/DX2                !
 ! A142  A(23,40,41)           107.7522         estimate D2E/DX2                !
 ! A143  A(23,40,42)           119.3597         estimate D2E/DX2                !
 ! A144  A(41,40,42)           120.9214         estimate D2E/DX2                !
 ! A145  A(24,41,40)           107.0735         estimate D2E/DX2                !
 ! A146  A(24,41,43)           119.7869         estimate D2E/DX2                !
 ! A147  A(40,41,43)           119.7065         estimate D2E/DX2                !
 ! A148  A(38,42,40)           119.2916         estimate D2E/DX2                !
 ! A149  A(38,42,58)           109.0084         estimate D2E/DX2                !
 ! A150  A(40,42,58)           119.6725         estimate D2E/DX2                !
 ! A151  A(41,43,46)           119.3064         estimate D2E/DX2                !
 ! A152  A(41,43,59)           119.7239         estimate D2E/DX2                !
 ! A153  A(46,43,59)           108.9301         estimate D2E/DX2                !
 ! A154  A(26,44,45)           107.3477         estimate D2E/DX2                !
 ! A155  A(26,44,46)           120.633          estimate D2E/DX2                !
 ! A156  A(45,44,46)           120.8072         estimate D2E/DX2                !
 ! A157  A(28,45,44)           110.5706         estimate D2E/DX2                !
 ! A158  A(28,45,48)           121.5724         estimate D2E/DX2                !
 ! A159  A(44,45,48)           119.8713         estimate D2E/DX2                !
 ! A160  A(43,46,44)           120.4102         estimate D2E/DX2                !
 ! A161  A(43,46,61)           107.8503         estimate D2E/DX2                !
 ! A162  A(44,46,61)           119.3868         estimate D2E/DX2                !
 ! A163  A(30,47,48)           110.1511         estimate D2E/DX2                !
 ! A164  A(30,47,50)           110.8285         estimate D2E/DX2                !
 ! A165  A(30,47,72)           106.9097         estimate D2E/DX2                !
 ! A166  A(48,47,50)           101.517          estimate D2E/DX2                !
 ! A167  A(48,47,72)           113.5261         estimate D2E/DX2                !
 ! A168  A(50,47,72)           113.9178         estimate D2E/DX2                !
 ! A169  A(45,48,47)           123.0774         estimate D2E/DX2                !
 ! A170  A(45,48,62)           119.5426         estimate D2E/DX2                !
 ! A171  A(47,48,62)           110.646          estimate D2E/DX2                !
 ! A172  A(31,49,50)           122.3496         estimate D2E/DX2                !
 ! A173  A(31,49,54)           110.6336         estimate D2E/DX2                !
 ! A174  A(50,49,54)           119.3807         estimate D2E/DX2                !
 ! A175  A(47,50,49)           122.5504         estimate D2E/DX2                !
 ! A176  A(47,50,63)           110.5758         estimate D2E/DX2                !
 ! A177  A(49,50,63)           119.4125         estimate D2E/DX2                !
 ! A178  A(34,51,52)           121.3511         estimate D2E/DX2                !
 ! A179  A(34,51,54)           107.9123         estimate D2E/DX2                !
 ! A180  A(52,51,54)           119.4771         estimate D2E/DX2                !
 ! A181  A(36,52,51)           118.8106         estimate D2E/DX2                !
 ! A182  A(36,52,53)           106.8009         estimate D2E/DX2                !
 ! A183  A(51,52,53)           121.2362         estimate D2E/DX2                !
 ! A184  A(37,53,52)           108.8979         estimate D2E/DX2                !
 ! A185  A(37,53,55)           119.1992         estimate D2E/DX2                !
 ! A186  A(52,53,55)           119.3163         estimate D2E/DX2                !
 ! A187  A(49,54,51)           108.6999         estimate D2E/DX2                !
 ! A188  A(49,54,56)           121.3791         estimate D2E/DX2                !
 ! A189  A(51,54,56)           119.222          estimate D2E/DX2                !
 ! A190  A(53,55,56)           119.1415         estimate D2E/DX2                !
 ! A191  A(53,55,60)           119.8443         estimate D2E/DX2                !
 ! A192  A(56,55,60)           108.8272         estimate D2E/DX2                !
 ! A193  A(54,56,55)           121.3689         estimate D2E/DX2                !
 ! A194  A(54,56,64)           119.2542         estimate D2E/DX2                !
 ! A195  A(55,56,64)           107.8393         estimate D2E/DX2                !
 ! A196  A(39,57,58)           107.0407         estimate D2E/DX2                !
 ! A197  A(39,57,60)           119.2189         estimate D2E/DX2                !
 ! A198  A(58,57,60)           120.0076         estimate D2E/DX2                !
 ! A199  A(42,58,57)           107.7646         estimate D2E/DX2                !
 ! A200  A(42,58,59)           119.3812         estimate D2E/DX2                !
 ! A201  A(57,58,59)           120.0968         estimate D2E/DX2                !
 ! A202  A(43,59,58)           120.4019         estimate D2E/DX2                !
 ! A203  A(43,59,65)           106.4477         estimate D2E/DX2                !
 ! A204  A(58,59,65)           119.7802         estimate D2E/DX2                !
 ! A205  A(55,60,57)           120.7693         estimate D2E/DX2                !
 ! A206  A(55,60,66)           106.6546         estimate D2E/DX2                !
 ! A207  A(57,60,66)           120.009          estimate D2E/DX2                !
 ! A208  A(46,61,62)           119.2167         estimate D2E/DX2                !
 ! A209  A(46,61,65)           107.9034         estimate D2E/DX2                !
 ! A210  A(62,61,65)           120.9635         estimate D2E/DX2                !
 ! A211  A(48,62,61)           120.9997         estimate D2E/DX2                !
 ! A212  A(48,62,63)           108.2779         estimate D2E/DX2                !
 ! A213  A(61,62,63)           119.8443         estimate D2E/DX2                !
 ! A214  A(50,63,62)           108.5613         estimate D2E/DX2                !
 ! A215  A(50,63,64)           121.6493         estimate D2E/DX2                !
 ! A216  A(62,63,64)           119.2971         estimate D2E/DX2                !
 ! A217  A(56,64,63)           118.8563         estimate D2E/DX2                !
 ! A218  A(56,64,66)           108.0455         estimate D2E/DX2                !
 ! A219  A(63,64,66)           121.2513         estimate D2E/DX2                !
 ! A220  A(59,65,61)           108.8268         estimate D2E/DX2                !
 ! A221  A(59,65,66)           119.9977         estimate D2E/DX2                !
 ! A222  A(61,65,66)           119.08           estimate D2E/DX2                !
 ! A223  A(60,66,64)           108.5844         estimate D2E/DX2                !
 ! A224  A(60,66,65)           119.9957         estimate D2E/DX2                !
 ! A225  A(64,66,65)           119.4716         estimate D2E/DX2                !
 ! D1    D(4,1,2,3)              6.3711         estimate D2E/DX2                !
 ! D2    D(4,1,2,10)          -107.5625         estimate D2E/DX2                !
 ! D3    D(4,1,2,68)           126.1133         estimate D2E/DX2                !
 ! D4    D(7,1,2,3)            113.0356         estimate D2E/DX2                !
 ! D5    D(7,1,2,10)            -0.898          estimate D2E/DX2                !
 ! D6    D(7,1,2,68)          -127.2222         estimate D2E/DX2                !
 ! D7    D(67,1,2,3)          -114.8793         estimate D2E/DX2                !
 ! D8    D(67,1,2,10)          131.1871         estimate D2E/DX2                !
 ! D9    D(67,1,2,68)            4.8629         estimate D2E/DX2                !
 ! D10   D(2,1,4,5)             -7.2539         estimate D2E/DX2                !
 ! D11   D(2,1,4,6)            140.762          estimate D2E/DX2                !
 ! D12   D(7,1,4,5)           -129.1784         estimate D2E/DX2                !
 ! D13   D(7,1,4,6)             18.8375         estimate D2E/DX2                !
 ! D14   D(67,1,4,5)           115.4881         estimate D2E/DX2                !
 ! D15   D(67,1,4,6)           -96.4961         estimate D2E/DX2                !
 ! D16   D(2,1,7,8)           -141.2937         estimate D2E/DX2                !
 ! D17   D(2,1,7,9)              8.4146         estimate D2E/DX2                !
 ! D18   D(4,1,7,8)            -30.4674         estimate D2E/DX2                !
 ! D19   D(4,1,7,9)            119.2409         estimate D2E/DX2                !
 ! D20   D(67,1,7,8)            85.3573         estimate D2E/DX2                !
 ! D21   D(67,1,7,9)          -124.9344         estimate D2E/DX2                !
 ! D22   D(1,2,3,5)             -3.753          estimate D2E/DX2                !
 ! D23   D(1,2,3,12)          -110.7157         estimate D2E/DX2                !
 ! D24   D(1,2,3,69)           125.1677         estimate D2E/DX2                !
 ! D25   D(10,2,3,5)           117.166          estimate D2E/DX2                !
 ! D26   D(10,2,3,12)           10.2033         estimate D2E/DX2                !
 ! D27   D(10,2,3,69)         -113.9132         estimate D2E/DX2                !
 ! D28   D(68,2,3,5)          -122.5822         estimate D2E/DX2                !
 ! D29   D(68,2,3,12)          130.4551         estimate D2E/DX2                !
 ! D30   D(68,2,3,69)            6.3386         estimate D2E/DX2                !
 ! D31   D(1,2,10,11)           -5.2896         estimate D2E/DX2                !
 ! D32   D(1,2,10,13)          108.2067         estimate D2E/DX2                !
 ! D33   D(1,2,10,74)         -132.4904         estimate D2E/DX2                !
 ! D34   D(3,2,10,11)         -119.646          estimate D2E/DX2                !
 ! D35   D(3,2,10,13)           -6.1497         estimate D2E/DX2                !
 ! D36   D(3,2,10,74)          113.1533         estimate D2E/DX2                !
 ! D37   D(68,2,10,11)         120.2273         estimate D2E/DX2                !
 ! D38   D(68,2,10,13)        -126.2764         estimate D2E/DX2                !
 ! D39   D(68,2,10,74)          -6.9735         estimate D2E/DX2                !
 ! D40   D(2,3,5,4)             -0.5654         estimate D2E/DX2                !
 ! D41   D(2,3,5,15)          -147.2826         estimate D2E/DX2                !
 ! D42   D(12,3,5,4)           109.8482         estimate D2E/DX2                !
 ! D43   D(12,3,5,15)          -36.8689         estimate D2E/DX2                !
 ! D44   D(69,3,5,4)          -130.3842         estimate D2E/DX2                !
 ! D45   D(69,3,5,15)           82.8987         estimate D2E/DX2                !
 ! D46   D(2,3,12,13)          -11.2276         estimate D2E/DX2                !
 ! D47   D(2,3,12,14)          152.2239         estimate D2E/DX2                !
 ! D48   D(5,3,12,13)         -121.6914         estimate D2E/DX2                !
 ! D49   D(5,3,12,14)           41.7601         estimate D2E/DX2                !
 ! D50   D(69,3,12,13)         116.0232         estimate D2E/DX2                !
 ! D51   D(69,3,12,14)         -80.5253         estimate D2E/DX2                !
 ! D52   D(1,4,5,3)              5.0885         estimate D2E/DX2                !
 ! D53   D(1,4,5,15)           153.5622         estimate D2E/DX2                !
 ! D54   D(6,4,5,3)           -139.7398         estimate D2E/DX2                !
 ! D55   D(6,4,5,15)             8.7339         estimate D2E/DX2                !
 ! D56   D(1,4,6,8)             -0.1416         estimate D2E/DX2                !
 ! D57   D(1,4,6,17)          -153.4121         estimate D2E/DX2                !
 ! D58   D(5,4,6,8)            144.0871         estimate D2E/DX2                !
 ! D59   D(5,4,6,17)            -9.1834         estimate D2E/DX2                !
 ! D60   D(3,5,15,16)           -2.8895         estimate D2E/DX2                !
 ! D61   D(3,5,15,18)          145.9044         estimate D2E/DX2                !
 ! D62   D(4,5,15,16)         -147.5628         estimate D2E/DX2                !
 ! D63   D(4,5,15,18)            1.2312         estimate D2E/DX2                !
 ! D64   D(4,6,8,7)            -18.1519         estimate D2E/DX2                !
 ! D65   D(4,6,8,20)          -143.4936         estimate D2E/DX2                !
 ! D66   D(4,6,8,75)           100.7006         estimate D2E/DX2                !
 ! D67   D(17,6,8,7)           133.7054         estimate D2E/DX2                !
 ! D68   D(17,6,8,20)            8.3636         estimate D2E/DX2                !
 ! D69   D(17,6,8,75)         -107.4421         estimate D2E/DX2                !
 ! D70   D(4,6,17,18)           -0.4866         estimate D2E/DX2                !
 ! D71   D(4,6,17,19)          155.6145         estimate D2E/DX2                !
 ! D72   D(8,6,17,18)         -149.2284         estimate D2E/DX2                !
 ! D73   D(8,6,17,19)            6.8728         estimate D2E/DX2                !
 ! D74   D(1,7,8,6)             31.443          estimate D2E/DX2                !
 ! D75   D(1,7,8,20)           151.4041         estimate D2E/DX2                !
 ! D76   D(1,7,8,75)           -86.6195         estimate D2E/DX2                !
 ! D77   D(9,7,8,6)           -120.1832         estimate D2E/DX2                !
 ! D78   D(9,7,8,20)            -0.2221         estimate D2E/DX2                !
 ! D79   D(9,7,8,75)           121.7543         estimate D2E/DX2                !
 ! D80   D(1,7,9,11)            -9.2776         estimate D2E/DX2                !
 ! D81   D(1,7,9,22)          -169.8278         estimate D2E/DX2                !
 ! D82   D(8,7,9,11)           138.0668         estimate D2E/DX2                !
 ! D83   D(8,7,9,22)           -22.4833         estimate D2E/DX2                !
 ! D84   D(6,8,20,21)          -20.4162         estimate D2E/DX2                !
 ! D85   D(6,8,20,23)          139.3182         estimate D2E/DX2                !
 ! D86   D(7,8,20,21)         -134.3302         estimate D2E/DX2                !
 ! D87   D(7,8,20,23)           25.4041         estimate D2E/DX2                !
 ! D88   D(75,8,20,21)          99.6806         estimate D2E/DX2                !
 ! D89   D(75,8,20,23)        -100.585          estimate D2E/DX2                !
 ! D90   D(7,9,11,10)            2.1872         estimate D2E/DX2                !
 ! D91   D(7,9,11,25)         -155.7084         estimate D2E/DX2                !
 ! D92   D(22,9,11,10)         162.3518         estimate D2E/DX2                !
 ! D93   D(22,9,11,25)           4.4562         estimate D2E/DX2                !
 ! D94   D(7,9,22,23)           21.6915         estimate D2E/DX2                !
 ! D95   D(7,9,22,24)          166.1985         estimate D2E/DX2                !
 ! D96   D(11,9,22,23)        -139.4993         estimate D2E/DX2                !
 ! D97   D(11,9,22,24)           5.0078         estimate D2E/DX2                !
 ! D98   D(2,10,11,9)            5.07           estimate D2E/DX2                !
 ! D99   D(2,10,11,25)         163.2863         estimate D2E/DX2                !
 ! D100  D(13,10,11,9)        -110.5205         estimate D2E/DX2                !
 ! D101  D(13,10,11,25)         47.6958         estimate D2E/DX2                !
 ! D102  D(74,10,11,9)         134.0485         estimate D2E/DX2                !
 ! D103  D(74,10,11,25)        -67.7352         estimate D2E/DX2                !
 ! D104  D(2,10,13,12)          -0.5033         estimate D2E/DX2                !
 ! D105  D(2,10,13,27)        -163.434          estimate D2E/DX2                !
 ! D106  D(11,10,13,12)        124.9506         estimate D2E/DX2                !
 ! D107  D(11,10,13,27)        -37.9801         estimate D2E/DX2                !
 ! D108  D(74,10,13,12)       -121.068          estimate D2E/DX2                !
 ! D109  D(74,10,13,27)         76.0013         estimate D2E/DX2                !
 ! D110  D(9,11,25,26)          -9.8807         estimate D2E/DX2                !
 ! D111  D(9,11,25,28)         141.7608         estimate D2E/DX2                !
 ! D112  D(10,11,25,26)       -168.5428         estimate D2E/DX2                !
 ! D113  D(10,11,25,28)        -16.9013         estimate D2E/DX2                !
 ! D114  D(3,12,13,10)           7.4805         estimate D2E/DX2                !
 ! D115  D(3,12,13,27)         171.5684         estimate D2E/DX2                !
 ! D116  D(14,12,13,10)       -156.7294         estimate D2E/DX2                !
 ! D117  D(14,12,13,27)          7.3584         estimate D2E/DX2                !
 ! D118  D(3,12,14,16)          -5.4691         estimate D2E/DX2                !
 ! D119  D(3,12,14,29)        -172.4179         estimate D2E/DX2                !
 ! D120  D(13,12,14,16)        156.3658         estimate D2E/DX2                !
 ! D121  D(13,12,14,29)        -10.5829         estimate D2E/DX2                !
 ! D122  D(10,13,27,28)         -6.4877         estimate D2E/DX2                !
 ! D123  D(10,13,27,30)        162.2001         estimate D2E/DX2                !
 ! D124  D(12,13,27,28)       -168.1664         estimate D2E/DX2                !
 ! D125  D(12,13,27,30)          0.5214         estimate D2E/DX2                !
 ! D126  D(12,14,16,15)        -35.1344         estimate D2E/DX2                !
 ! D127  D(12,14,16,32)       -142.3552         estimate D2E/DX2                !
 ! D128  D(12,14,16,70)         91.17           estimate D2E/DX2                !
 ! D129  D(29,14,16,15)        131.3936         estimate D2E/DX2                !
 ! D130  D(29,14,16,32)         24.1728         estimate D2E/DX2                !
 ! D131  D(29,14,16,70)       -102.302          estimate D2E/DX2                !
 ! D132  D(12,14,29,30)          5.9616         estimate D2E/DX2                !
 ! D133  D(12,14,29,31)        176.8853         estimate D2E/DX2                !
 ! D134  D(16,14,29,30)       -160.4896         estimate D2E/DX2                !
 ! D135  D(16,14,29,31)         10.434          estimate D2E/DX2                !
 ! D136  D(5,15,16,14)          40.5362         estimate D2E/DX2                !
 ! D137  D(5,15,16,32)         153.6867         estimate D2E/DX2                !
 ! D138  D(5,15,16,70)         -81.8315         estimate D2E/DX2                !
 ! D139  D(18,15,16,14)       -110.5949         estimate D2E/DX2                !
 ! D140  D(18,15,16,32)          2.5556         estimate D2E/DX2                !
 ! D141  D(18,15,16,70)        127.0374         estimate D2E/DX2                !
 ! D142  D(5,15,18,17)         -10.9273         estimate D2E/DX2                !
 ! D143  D(5,15,18,33)        -160.5687         estimate D2E/DX2                !
 ! D144  D(16,15,18,17)        141.3375         estimate D2E/DX2                !
 ! D145  D(16,15,18,33)         -8.3039         estimate D2E/DX2                !
 ! D146  D(14,16,32,33)        112.5386         estimate D2E/DX2                !
 ! D147  D(14,16,32,34)        -33.6543         estimate D2E/DX2                !
 ! D148  D(15,16,32,33)          4.0955         estimate D2E/DX2                !
 ! D149  D(15,16,32,34)       -142.0974         estimate D2E/DX2                !
 ! D150  D(70,16,32,33)       -122.5639         estimate D2E/DX2                !
 ! D151  D(70,16,32,34)         91.2432         estimate D2E/DX2                !
 ! D152  D(6,17,18,15)          10.2974         estimate D2E/DX2                !
 ! D153  D(6,17,18,33)         155.8749         estimate D2E/DX2                !
 ! D154  D(19,17,18,15)       -146.1114         estimate D2E/DX2                !
 ! D155  D(19,17,18,33)         -0.5339         estimate D2E/DX2                !
 ! D156  D(6,17,19,21)         -11.2717         estimate D2E/DX2                !
 ! D157  D(6,17,19,35)        -162.5572         estimate D2E/DX2                !
 ! D158  D(18,17,19,21)        143.8359         estimate D2E/DX2                !
 ! D159  D(18,17,19,35)         -7.4495         estimate D2E/DX2                !
 ! D160  D(15,18,33,32)         10.81           estimate D2E/DX2                !
 ! D161  D(15,18,33,36)        156.4493         estimate D2E/DX2                !
 ! D162  D(17,18,33,32)       -139.0298         estimate D2E/DX2                !
 ! D163  D(17,18,33,36)          6.6095         estimate D2E/DX2                !
 ! D164  D(17,19,21,20)         -0.4305         estimate D2E/DX2                !
 ! D165  D(17,19,21,38)       -153.5209         estimate D2E/DX2                !
 ! D166  D(35,19,21,20)        150.3855         estimate D2E/DX2                !
 ! D167  D(35,19,21,38)         -2.7049         estimate D2E/DX2                !
 ! D168  D(17,19,35,36)          9.5571         estimate D2E/DX2                !
 ! D169  D(17,19,35,37)        150.8615         estimate D2E/DX2                !
 ! D170  D(21,19,35,36)       -141.4145         estimate D2E/DX2                !
 ! D171  D(21,19,35,37)         -0.11           estimate D2E/DX2                !
 ! D172  D(8,20,21,19)          17.2842         estimate D2E/DX2                !
 ! D173  D(8,20,21,38)         170.5047         estimate D2E/DX2                !
 ! D174  D(23,20,21,19)       -141.3638         estimate D2E/DX2                !
 ! D175  D(23,20,21,38)         11.8567         estimate D2E/DX2                !
 ! D176  D(8,20,23,22)         -27.5584         estimate D2E/DX2                !
 ! D177  D(8,20,23,40)        -169.252          estimate D2E/DX2                !
 ! D178  D(21,20,23,22)        132.8926         estimate D2E/DX2                !
 ! D179  D(21,20,23,40)         -8.801          estimate D2E/DX2                !
 ! D180  D(19,21,38,39)          3.6244         estimate D2E/DX2                !
 ! D181  D(19,21,38,42)        145.7114         estimate D2E/DX2                !
 ! D182  D(20,21,38,39)       -150.1333         estimate D2E/DX2                !
 ! D183  D(20,21,38,42)         -8.0462         estimate D2E/DX2                !
 ! D184  D(9,22,23,20)           5.1252         estimate D2E/DX2                !
 ! D185  D(9,22,23,40)         151.2892         estimate D2E/DX2                !
 ! D186  D(24,22,23,20)       -143.6908         estimate D2E/DX2                !
 ! D187  D(24,22,23,40)          2.4732         estimate D2E/DX2                !
 ! D188  D(9,22,24,26)          -8.913          estimate D2E/DX2                !
 ! D189  D(9,22,24,41)        -152.2919         estimate D2E/DX2                !
 ! D190  D(23,22,24,26)        140.4323         estimate D2E/DX2                !
 ! D191  D(23,22,24,41)         -2.9466         estimate D2E/DX2                !
 ! D192  D(20,23,40,41)        144.3683         estimate D2E/DX2                !
 ! D193  D(20,23,40,42)          1.318          estimate D2E/DX2                !
 ! D194  D(22,23,40,41)         -1.044          estimate D2E/DX2                !
 ! D195  D(22,23,40,42)       -144.0943         estimate D2E/DX2                !
 ! D196  D(22,24,26,25)          3.5144         estimate D2E/DX2                !
 ! D197  D(22,24,26,44)       -138.6188         estimate D2E/DX2                !
 ! D198  D(41,24,26,25)        142.6454         estimate D2E/DX2                !
 ! D199  D(41,24,26,44)          0.5122         estimate D2E/DX2                !
 ! D200  D(22,24,41,40)          2.322          estimate D2E/DX2                !
 ! D201  D(22,24,41,43)        142.9576         estimate D2E/DX2                !
 ! D202  D(26,24,41,40)       -140.139          estimate D2E/DX2                !
 ! D203  D(26,24,41,43)          0.4966         estimate D2E/DX2                !
 ! D204  D(11,25,26,24)          6.0164         estimate D2E/DX2                !
 ! D205  D(11,25,26,44)        151.1589         estimate D2E/DX2                !
 ! D206  D(28,25,26,24)       -149.805          estimate D2E/DX2                !
 ! D207  D(28,25,26,44)         -4.6624         estimate D2E/DX2                !
 ! D208  D(11,25,28,27)        -29.3873         estimate D2E/DX2                !
 ! D209  D(11,25,28,45)       -145.1121         estimate D2E/DX2                !
 ! D210  D(11,25,28,73)         93.6354         estimate D2E/DX2                !
 ! D211  D(26,25,28,27)        125.3184         estimate D2E/DX2                !
 ! D212  D(26,25,28,45)          9.5936         estimate D2E/DX2                !
 ! D213  D(26,25,28,73)       -111.6589         estimate D2E/DX2                !
 ! D214  D(24,26,44,45)        142.7545         estimate D2E/DX2                !
 ! D215  D(24,26,44,46)         -1.2011         estimate D2E/DX2                !
 ! D216  D(25,26,44,45)         -2.7783         estimate D2E/DX2                !
 ! D217  D(25,26,44,46)       -146.7339         estimate D2E/DX2                !
 ! D218  D(13,27,28,25)         39.4502         estimate D2E/DX2                !
 ! D219  D(13,27,28,45)        148.6891         estimate D2E/DX2                !
 ! D220  D(13,27,28,73)        -88.0175         estimate D2E/DX2                !
 ! D221  D(30,27,28,25)       -128.8734         estimate D2E/DX2                !
 ! D222  D(30,27,28,45)        -19.6344         estimate D2E/DX2                !
 ! D223  D(30,27,28,73)        103.659          estimate D2E/DX2                !
 ! D224  D(13,27,30,29)         -4.9293         estimate D2E/DX2                !
 ! D225  D(13,27,30,47)       -178.1314         estimate D2E/DX2                !
 ! D226  D(28,27,30,29)        163.0525         estimate D2E/DX2                !
 ! D227  D(28,27,30,47)        -10.1497         estimate D2E/DX2                !
 ! D228  D(25,28,45,44)        -11.5529         estimate D2E/DX2                !
 ! D229  D(25,28,45,48)        137.2098         estimate D2E/DX2                !
 ! D230  D(27,28,45,44)       -122.4605         estimate D2E/DX2                !
 ! D231  D(27,28,45,48)         26.3022         estimate D2E/DX2                !
 ! D232  D(73,28,45,44)        114.3395         estimate D2E/DX2                !
 ! D233  D(73,28,45,48)        -96.8978         estimate D2E/DX2                !
 ! D234  D(14,29,30,27)          1.6147         estimate D2E/DX2                !
 ! D235  D(14,29,30,47)        174.7318         estimate D2E/DX2                !
 ! D236  D(31,29,30,27)       -169.0874         estimate D2E/DX2                !
 ! D237  D(31,29,30,47)          4.0297         estimate D2E/DX2                !
 ! D238  D(14,29,31,34)        -36.2642         estimate D2E/DX2                !
 ! D239  D(14,29,31,49)       -146.9623         estimate D2E/DX2                !
 ! D240  D(14,29,31,71)         88.4236         estimate D2E/DX2                !
 ! D241  D(30,29,31,34)        134.4819         estimate D2E/DX2                !
 ! D242  D(30,29,31,49)         23.7838         estimate D2E/DX2                !
 ! D243  D(30,29,31,71)       -100.8303         estimate D2E/DX2                !
 ! D244  D(27,30,47,48)         32.7809         estimate D2E/DX2                !
 ! D245  D(27,30,47,50)        144.3209         estimate D2E/DX2                !
 ! D246  D(27,30,47,72)        -90.9965         estimate D2E/DX2                !
 ! D247  D(29,30,47,48)       -140.398          estimate D2E/DX2                !
 ! D248  D(29,30,47,50)        -28.858          estimate D2E/DX2                !
 ! D249  D(29,30,47,72)         95.8246         estimate D2E/DX2                !
 ! D250  D(29,31,34,32)         28.0921         estimate D2E/DX2                !
 ! D251  D(29,31,34,51)       -120.9313         estimate D2E/DX2                !
 ! D252  D(49,31,34,32)        145.1108         estimate D2E/DX2                !
 ! D253  D(49,31,34,51)         -3.9127         estimate D2E/DX2                !
 ! D254  D(71,31,34,32)        -92.69           estimate D2E/DX2                !
 ! D255  D(71,31,34,51)        118.2865         estimate D2E/DX2                !
 ! D256  D(29,31,49,50)        -27.1727         estimate D2E/DX2                !
 ! D257  D(29,31,49,54)        122.0371         estimate D2E/DX2                !
 ! D258  D(34,31,49,50)       -143.2547         estimate D2E/DX2                !
 ! D259  D(34,31,49,54)          5.955          estimate D2E/DX2                !
 ! D260  D(71,31,49,50)         94.0499         estimate D2E/DX2                !
 ! D261  D(71,31,49,54)       -116.7404         estimate D2E/DX2                !
 ! D262  D(16,32,33,18)         -9.3462         estimate D2E/DX2                !
 ! D263  D(16,32,33,36)       -153.3773         estimate D2E/DX2                !
 ! D264  D(34,32,33,18)        138.0465         estimate D2E/DX2                !
 ! D265  D(34,32,33,36)         -5.9845         estimate D2E/DX2                !
 ! D266  D(16,32,34,31)          7.3551         estimate D2E/DX2                !
 ! D267  D(16,32,34,51)        154.0649         estimate D2E/DX2                !
 ! D268  D(33,32,34,31)       -135.9762         estimate D2E/DX2                !
 ! D269  D(33,32,34,51)         10.7337         estimate D2E/DX2                !
 ! D270  D(18,33,36,35)         -4.5655         estimate D2E/DX2                !
 ! D271  D(18,33,36,52)       -144.604          estimate D2E/DX2                !
 ! D272  D(32,33,36,35)        136.1609         estimate D2E/DX2                !
 ! D273  D(32,33,36,52)         -3.8776         estimate D2E/DX2                !
 ! D274  D(31,34,51,52)        143.9218         estimate D2E/DX2                !
 ! D275  D(31,34,51,54)          0.5544         estimate D2E/DX2                !
 ! D276  D(32,34,51,52)         -6.0512         estimate D2E/DX2                !
 ! D277  D(32,34,51,54)       -149.4186         estimate D2E/DX2                !
 ! D278  D(19,35,36,33)         -3.6886         estimate D2E/DX2                !
 ! D279  D(19,35,36,52)        139.5032         estimate D2E/DX2                !
 ! D280  D(37,35,36,33)       -150.1895         estimate D2E/DX2                !
 ! D281  D(37,35,36,52)         -6.9976         estimate D2E/DX2                !
 ! D282  D(19,35,37,39)          2.1847         estimate D2E/DX2                !
 ! D283  D(19,35,37,53)       -140.8619         estimate D2E/DX2                !
 ! D284  D(36,35,37,39)        148.2905         estimate D2E/DX2                !
 ! D285  D(36,35,37,53)          5.2439         estimate D2E/DX2                !
 ! D286  D(33,36,52,51)          8.5665         estimate D2E/DX2                !
 ! D287  D(33,36,52,53)        150.2202         estimate D2E/DX2                !
 ! D288  D(35,36,52,51)       -135.7016         estimate D2E/DX2                !
 ! D289  D(35,36,52,53)          5.9521         estimate D2E/DX2                !
 ! D290  D(35,37,39,38)         -1.3196         estimate D2E/DX2                !
 ! D291  D(35,37,39,57)       -141.0259         estimate D2E/DX2                !
 ! D292  D(53,37,39,38)        136.8016         estimate D2E/DX2                !
 ! D293  D(53,37,39,57)         -2.9047         estimate D2E/DX2                !
 ! D294  D(35,37,53,52)         -1.692          estimate D2E/DX2                !
 ! D295  D(35,37,53,55)        139.9531         estimate D2E/DX2                !
 ! D296  D(39,37,53,52)       -144.0516         estimate D2E/DX2                !
 ! D297  D(39,37,53,55)         -2.4064         estimate D2E/DX2                !
 ! D298  D(21,38,39,37)         -1.6221         estimate D2E/DX2                !
 ! D299  D(21,38,39,57)        141.8636         estimate D2E/DX2                !
 ! D300  D(42,38,39,37)       -148.6115         estimate D2E/DX2                !
 ! D301  D(42,38,39,57)         -5.1258         estimate D2E/DX2                !
 ! D302  D(21,38,42,40)          0.8584         estimate D2E/DX2                !
 ! D303  D(21,38,42,58)       -141.6654         estimate D2E/DX2                !
 ! D304  D(39,38,42,40)        147.9915         estimate D2E/DX2                !
 ! D305  D(39,38,42,58)          5.4676         estimate D2E/DX2                !
 ! D306  D(37,39,57,58)        146.3398         estimate D2E/DX2                !
 ! D307  D(37,39,57,60)          5.9164         estimate D2E/DX2                !
 ! D308  D(38,39,57,58)          2.8593         estimate D2E/DX2                !
 ! D309  D(38,39,57,60)       -137.564          estimate D2E/DX2                !
 ! D310  D(23,40,41,24)         -0.7459         estimate D2E/DX2                !
 ! D311  D(23,40,41,43)       -141.4191         estimate D2E/DX2                !
 ! D312  D(42,40,41,24)        141.6137         estimate D2E/DX2                !
 ! D313  D(42,40,41,43)          0.9404         estimate D2E/DX2                !
 ! D314  D(23,40,42,38)          2.6841         estimate D2E/DX2                !
 ! D315  D(23,40,42,58)        141.2261         estimate D2E/DX2                !
 ! D316  D(41,40,42,38)       -135.4539         estimate D2E/DX2                !
 ! D317  D(41,40,42,58)          3.0881         estimate D2E/DX2                !
 ! D318  D(24,41,43,46)         -0.8127         estimate D2E/DX2                !
 ! D319  D(24,41,43,59)       -139.3059         estimate D2E/DX2                !
 ! D320  D(40,41,43,46)        134.9175         estimate D2E/DX2                !
 ! D321  D(40,41,43,59)         -3.5757         estimate D2E/DX2                !
 ! D322  D(38,42,58,57)         -3.7705         estimate D2E/DX2                !
 ! D323  D(38,42,58,59)        137.9213         estimate D2E/DX2                !
 ! D324  D(40,42,58,57)       -146.1288         estimate D2E/DX2                !
 ! D325  D(40,42,58,59)         -4.437          estimate D2E/DX2                !
 ! D326  D(41,43,46,44)          0.1342         estimate D2E/DX2                !
 ! D327  D(41,43,46,61)       -141.7504         estimate D2E/DX2                !
 ! D328  D(59,43,46,44)        142.6589         estimate D2E/DX2                !
 ! D329  D(59,43,46,61)          0.7743         estimate D2E/DX2                !
 ! D330  D(41,43,59,58)          2.1915         estimate D2E/DX2                !
 ! D331  D(41,43,59,65)        142.8739         estimate D2E/DX2                !
 ! D332  D(46,43,59,58)       -140.1515         estimate D2E/DX2                !
 ! D333  D(46,43,59,65)          0.5309         estimate D2E/DX2                !
 ! D334  D(26,44,45,28)          9.3156         estimate D2E/DX2                !
 ! D335  D(26,44,45,48)       -140.053          estimate D2E/DX2                !
 ! D336  D(46,44,45,28)        153.1956         estimate D2E/DX2                !
 ! D337  D(46,44,45,48)          3.8271         estimate D2E/DX2                !
 ! D338  D(26,44,46,43)          0.8879         estimate D2E/DX2                !
 ! D339  D(26,44,46,61)        138.4883         estimate D2E/DX2                !
 ! D340  D(45,44,46,43)       -138.2744         estimate D2E/DX2                !
 ! D341  D(45,44,46,61)         -0.674          estimate D2E/DX2                !
 ! D342  D(28,45,48,47)         -2.5803         estimate D2E/DX2                !
 ! D343  D(28,45,48,62)       -151.0997         estimate D2E/DX2                !
 ! D344  D(44,45,48,47)        143.3704         estimate D2E/DX2                !
 ! D345  D(44,45,48,62)         -5.1489         estimate D2E/DX2                !
 ! D346  D(43,46,61,62)        141.3726         estimate D2E/DX2                !
 ! D347  D(43,46,61,65)         -1.7727         estimate D2E/DX2                !
 ! D348  D(44,46,61,62)         -0.9699         estimate D2E/DX2                !
 ! D349  D(44,46,61,65)       -144.1152         estimate D2E/DX2                !
 ! D350  D(30,47,48,45)        -27.1278         estimate D2E/DX2                !
 ! D351  D(30,47,48,62)        123.8271         estimate D2E/DX2                !
 ! D352  D(50,47,48,45)       -144.5995         estimate D2E/DX2                !
 ! D353  D(50,47,48,62)          6.3554         estimate D2E/DX2                !
 ! D354  D(72,47,48,45)         92.7186         estimate D2E/DX2                !
 ! D355  D(72,47,48,62)       -116.3265         estimate D2E/DX2                !
 ! D356  D(30,47,50,49)         26.4836         estimate D2E/DX2                !
 ! D357  D(30,47,50,63)       -123.0498         estimate D2E/DX2                !
 ! D358  D(48,47,50,49)        143.4634         estimate D2E/DX2                !
 ! D359  D(48,47,50,63)         -6.07           estimate D2E/DX2                !
 ! D360  D(72,47,50,49)        -94.1244         estimate D2E/DX2                !
 ! D361  D(72,47,50,63)        116.3422         estimate D2E/DX2                !
 ! D362  D(45,48,62,61)          3.5339         estimate D2E/DX2                !
 ! D363  D(45,48,62,63)        147.6172         estimate D2E/DX2                !
 ! D364  D(47,48,62,61)       -148.5869         estimate D2E/DX2                !
 ! D365  D(47,48,62,63)         -4.5036         estimate D2E/DX2                !
 ! D366  D(31,49,50,47)          1.7946         estimate D2E/DX2                !
 ! D367  D(31,49,50,63)        148.7748         estimate D2E/DX2                !
 ! D368  D(54,49,50,47)       -144.8539         estimate D2E/DX2                !
 ! D369  D(54,49,50,63)          2.1263         estimate D2E/DX2                !
 ! D370  D(31,49,54,51)         -6.0642         estimate D2E/DX2                !
 ! D371  D(31,49,54,56)       -150.1737         estimate D2E/DX2                !
 ! D372  D(50,49,54,51)        144.1815         estimate D2E/DX2                !
 ! D373  D(50,49,54,56)          0.072          estimate D2E/DX2                !
 ! D374  D(47,50,63,62)          3.771          estimate D2E/DX2                !
 ! D375  D(47,50,63,64)        148.195          estimate D2E/DX2                !
 ! D376  D(49,50,63,62)       -146.847          estimate D2E/DX2                !
 ! D377  D(49,50,63,64)         -2.423          estimate D2E/DX2                !
 ! D378  D(34,51,52,36)         -3.8266         estimate D2E/DX2                !
 ! D379  D(34,51,52,53)       -139.8292         estimate D2E/DX2                !
 ! D380  D(54,51,52,36)        135.467          estimate D2E/DX2                !
 ! D381  D(54,51,52,53)         -0.5356         estimate D2E/DX2                !
 ! D382  D(34,51,54,49)          3.3471         estimate D2E/DX2                !
 ! D383  D(34,51,54,56)        148.3539         estimate D2E/DX2                !
 ! D384  D(52,51,54,49)       -140.8263         estimate D2E/DX2                !
 ! D385  D(52,51,54,56)          4.1804         estimate D2E/DX2                !
 ! D386  D(36,52,53,37)         -2.6038         estimate D2E/DX2                !
 ! D387  D(36,52,53,55)       -144.197          estimate D2E/DX2                !
 ! D388  D(51,52,53,37)        137.9182         estimate D2E/DX2                !
 ! D389  D(51,52,53,55)         -3.675          estimate D2E/DX2                !
 ! D390  D(37,53,55,56)       -133.5489         estimate D2E/DX2                !
 ! D391  D(37,53,55,60)          4.6838         estimate D2E/DX2                !
 ! D392  D(52,53,55,56)          4.1279         estimate D2E/DX2                !
 ! D393  D(52,53,55,60)        142.3605         estimate D2E/DX2                !
 ! D394  D(49,54,56,55)        136.7677         estimate D2E/DX2                !
 ! D395  D(49,54,56,64)         -2.0592         estimate D2E/DX2                !
 ! D396  D(51,54,56,55)         -3.7183         estimate D2E/DX2                !
 ! D397  D(51,54,56,64)       -142.5453         estimate D2E/DX2                !
 ! D398  D(53,55,56,54)         -0.481          estimate D2E/DX2                !
 ! D399  D(53,55,56,64)        142.4065         estimate D2E/DX2                !
 ! D400  D(60,55,56,54)       -142.8604         estimate D2E/DX2                !
 ! D401  D(60,55,56,64)          0.0271         estimate D2E/DX2                !
 ! D402  D(53,55,60,57)         -1.6516         estimate D2E/DX2                !
 ! D403  D(53,55,60,66)       -143.4344         estimate D2E/DX2                !
 ! D404  D(56,55,60,57)        140.4198         estimate D2E/DX2                !
 ! D405  D(56,55,60,66)         -1.363          estimate D2E/DX2                !
 ! D406  D(54,56,64,63)          1.768          estimate D2E/DX2                !
 ! D407  D(54,56,64,66)        145.1387         estimate D2E/DX2                !
 ! D408  D(55,56,64,63)       -142.0396         estimate D2E/DX2                !
 ! D409  D(55,56,64,66)          1.3312         estimate D2E/DX2                !
 ! D410  D(39,57,58,42)          0.5609         estimate D2E/DX2                !
 ! D411  D(39,57,58,59)       -140.8061         estimate D2E/DX2                !
 ! D412  D(60,57,58,42)        140.6113         estimate D2E/DX2                !
 ! D413  D(60,57,58,59)         -0.7557         estimate D2E/DX2                !
 ! D414  D(39,57,60,55)         -3.6564         estimate D2E/DX2                !
 ! D415  D(39,57,60,66)        133.1516         estimate D2E/DX2                !
 ! D416  D(58,57,60,55)       -138.9538         estimate D2E/DX2                !
 ! D417  D(58,57,60,66)         -2.1458         estimate D2E/DX2                !
 ! D418  D(42,58,59,43)          1.8161         estimate D2E/DX2                !
 ! D419  D(42,58,59,65)       -133.7445         estimate D2E/DX2                !
 ! D420  D(57,58,59,43)        138.7905         estimate D2E/DX2                !
 ! D421  D(57,58,59,65)          3.2299         estimate D2E/DX2                !
 ! D422  D(43,59,65,61)         -1.6281         estimate D2E/DX2                !
 ! D423  D(43,59,65,66)       -143.791          estimate D2E/DX2                !
 ! D424  D(58,59,65,61)        139.3479         estimate D2E/DX2                !
 ! D425  D(58,59,65,66)         -2.815          estimate D2E/DX2                !
[...]
              Bcc     0.0065     0.870     0.310     0.290  0.4349  0.8216  0.3686
 
              Baa    -0.0022    -0.300    -0.107    -0.100 -0.4837  0.8742  0.0429
    14 C(13)  Bbb     0.0006     0.080     0.028     0.027 -0.5151 -0.3239  0.7936
              Bcc     0.0016     0.220     0.079     0.073  0.7076  0.3618  0.6070
 
              Baa    -0.0078    -1.053    -0.376    -0.351 -0.3092  0.7141 -0.6280
    15 C(13)  Bbb    -0.0057    -0.759    -0.271    -0.253  0.6503  0.6406  0.4083
              Bcc     0.0135     1.812     0.647     0.605  0.6939 -0.2822 -0.6625
 
              Baa    -0.0009    -0.121    -0.043    -0.040  0.9096 -0.3601  0.2074
    16 C(13)  Bbb    -0.0006    -0.078    -0.028    -0.026 -0.3235 -0.3001  0.8974
              Bcc     0.0015     0.199     0.071     0.066  0.2609  0.8834  0.3894
 
              Baa    -0.0067    -0.902    -0.322    -0.301 -0.6309  0.7594  0.1594
    17 C(13)  Bbb    -0.0036    -0.486    -0.174    -0.162  0.6456  0.3997  0.6507
              Bcc     0.0103     1.388     0.495     0.463 -0.4304 -0.5134  0.7424
 
              Baa    -0.0079    -1.062    -0.379    -0.354  0.8216 -0.5680  0.0486
    18 C(13)  Bbb    -0.0056    -0.752    -0.268    -0.251  0.4684  0.7211  0.5105
              Bcc     0.0135     1.814     0.647     0.605 -0.3251 -0.3967  0.8585
 
              Baa    -0.0049    -0.662    -0.236    -0.221 -0.4451  0.7307  0.5177
    19 C(13)  Bbb    -0.0024    -0.316    -0.113    -0.105  0.8913  0.3060  0.3345
              Bcc     0.0073     0.978     0.349     0.326 -0.0860 -0.6103  0.7875
 
              Baa    -0.0547    -7.335    -2.617    -2.447 -0.1789  0.2626  0.9482
    20 C(13)  Bbb    -0.0434    -5.822    -2.077    -1.942  0.9269 -0.2783  0.2520
              Bcc     0.0980    13.157     4.695     4.389  0.3300  0.9239 -0.1936
 
              Baa    -0.0249    -3.338    -1.191    -1.114  0.2487  0.8905 -0.3810
    21 C(13)  Bbb     0.0093     1.247     0.445     0.416 -0.3274  0.4475  0.8322
              Bcc     0.0156     2.092     0.746     0.698  0.9116 -0.0822  0.4028
 
              Baa    -0.1636   -21.959    -7.836    -7.325 -0.4784  0.7640 -0.4329
    22 C(13)  Bbb    -0.1563   -20.972    -7.483    -6.996 -0.6619  0.0102  0.7495
              Bcc     0.3199    42.931    15.319    14.320  0.5770  0.6451  0.5009
 
              Baa    -0.0580    -7.783    -2.777    -2.596  0.4635  0.8576  0.2229
    23 C(13)  Bbb     0.0260     3.491     1.246     1.164 -0.6120  0.1279  0.7804
              Bcc     0.0320     4.292     1.532     1.432  0.6408 -0.4982  0.5841
 
              Baa    -0.0837   -11.237    -4.009    -3.748  0.3170  0.5023  0.8045
    24 C(13)  Bbb     0.0330     4.429     1.580     1.477 -0.6684  0.7201 -0.1862
              Bcc     0.0507     6.808     2.429     2.271  0.6729  0.4787 -0.5639
 
              Baa    -0.1124   -15.078    -5.380    -5.030  0.4780 -0.0540  0.8767
    25 C(13)  Bbb     0.0528     7.087     2.529     2.364 -0.0167  0.9974  0.0706
              Bcc     0.0596     7.991     2.851     2.666  0.8782  0.0484 -0.4758
 
              Baa    -0.0900   -12.079    -4.310    -4.029 -0.4825  0.8758  0.0136
    26 C(13)  Bbb    -0.0818   -10.976    -3.917    -3.661  0.8378  0.4660 -0.2844
              Bcc     0.1718    23.056     8.227     7.691  0.2555  0.1258  0.9586
 
              Baa    -0.0054    -0.722    -0.258    -0.241  0.0754  0.2770  0.9579
    27 C(13)  Bbb    -0.0024    -0.318    -0.113    -0.106  0.9854  0.1262 -0.1141
              Bcc     0.0078     1.040     0.371     0.347 -0.1525  0.9525 -0.2635
 
              Baa    -0.0013    -0.177    -0.063    -0.059 -0.1151  0.5120  0.8513
    28 C(13)  Bbb    -0.0000    -0.003    -0.001    -0.001  0.9601 -0.1624  0.2275
              Bcc     0.0013     0.180     0.064     0.060  0.2547  0.8435 -0.4729
 
              Baa    -0.0019    -0.253    -0.090    -0.084  0.0236 -0.1655  0.9859
    29 C(13)  Bbb    -0.0012    -0.166    -0.059    -0.055  0.9956  0.0933 -0.0081
              Bcc     0.0031     0.419     0.150     0.140 -0.0906  0.9818  0.1669
 
              Baa    -0.0030    -0.404    -0.144    -0.135 -0.4052  0.6478 -0.6451
    30 C(13)  Bbb     0.0012     0.162     0.058     0.054  0.8172 -0.0598 -0.5732
              Bcc     0.0018     0.242     0.086     0.081  0.4099  0.7595  0.5052
 
              Baa    -0.0003    -0.044    -0.016    -0.015  0.3589 -0.4481  0.8188
    31 C(13)  Bbb    -0.0003    -0.035    -0.012    -0.012  0.8393 -0.2288 -0.4932
              Bcc     0.0006     0.079     0.028     0.026  0.4084  0.8642  0.2940
 
              Baa    -0.0016    -0.216    -0.077    -0.072 -0.4859  0.1801  0.8553
    32 C(13)  Bbb    -0.0001    -0.011    -0.004    -0.004 -0.4853  0.7583 -0.4354
              Bcc     0.0017     0.227     0.081     0.076  0.7269  0.6266  0.2810
 
              Baa    -0.0029    -0.385    -0.137    -0.128 -0.3673 -0.1378  0.9198
    33 C(13)  Bbb     0.0003     0.038     0.014     0.013 -0.4526  0.8905 -0.0474
              Bcc     0.0026     0.347     0.124     0.116  0.8126  0.4337  0.3894
 
              Baa    -0.0005    -0.073    -0.026    -0.025 -0.1270  0.8900 -0.4379
    34 C(13)  Bbb     0.0000     0.003     0.001     0.001  0.9905  0.0908 -0.1028
              Bcc     0.0005     0.070     0.025     0.023  0.0517  0.4468  0.8931
 
              Baa    -0.0061    -0.825    -0.294    -0.275 -0.1333  0.7168 -0.6844
    35 C(13)  Bbb     0.0026     0.351     0.125     0.117  0.1088  0.6970  0.7088
              Bcc     0.0035     0.474     0.169     0.158  0.9851  0.0200 -0.1709
 
              Baa    -0.0031    -0.419    -0.149    -0.140 -0.4108  0.9047  0.1129
    36 C(13)  Bbb    -0.0019    -0.251    -0.090    -0.084  0.9078  0.3944  0.1425
              Bcc     0.0050     0.670     0.239     0.223 -0.0844 -0.1610  0.9833
 
              Baa    -0.0130    -1.747    -0.624    -0.583 -0.6012  0.4385  0.6680
    37 C(13)  Bbb    -0.0119    -1.592    -0.568    -0.531  0.6861  0.7119  0.1501
              Bcc     0.0249     3.340     1.192     1.114  0.4097 -0.5486  0.7288
 
              Baa    -0.0341    -4.578    -1.633    -1.527 -0.4990  0.2809  0.8198
    38 C(13)  Bbb    -0.0313    -4.197    -1.497    -1.400  0.8651  0.2177  0.4519
              Bcc     0.0654     8.775     3.131     2.927 -0.0516  0.9347 -0.3516
 
              Baa    -0.0138    -1.857    -0.663    -0.620 -0.2896  0.8336 -0.4704
    39 C(13)  Bbb     0.0053     0.714     0.255     0.238 -0.6236  0.2085  0.7534
              Bcc     0.0085     1.144     0.408     0.381  0.7261  0.5116  0.4594
 
              Baa    -0.0140    -1.874    -0.669    -0.625 -0.4356 -0.1777  0.8824
    40 C(13)  Bbb    -0.0126    -1.688    -0.602    -0.563  0.8978 -0.0151  0.4402
              Bcc     0.0265     3.562     1.271     1.188 -0.0649  0.9840  0.1661
 
              Baa    -0.0232    -3.118    -1.113    -1.040  0.6579 -0.4871  0.5743
    41 C(13)  Bbb    -0.0210    -2.824    -1.008    -0.942  0.7423  0.5482 -0.3853
              Bcc     0.0443     5.942     2.120     1.982 -0.1272  0.6798  0.7223
 
              Baa    -0.0173    -2.315    -0.826    -0.772 -0.0689  0.9969 -0.0389
    42 C(13)  Bbb     0.0083     1.111     0.396     0.371  0.9958  0.0710  0.0573
              Bcc     0.0090     1.204     0.430     0.402 -0.0599  0.0348  0.9976
 
              Baa    -0.0223    -2.988    -1.066    -0.997 -0.3092  0.4281  0.8492
    43 C(13)  Bbb     0.0101     1.353     0.483     0.451  0.8595 -0.2564  0.4422
              Bcc     0.0122     1.635     0.584     0.546  0.4070  0.8666 -0.2887
 
              Baa    -0.0409    -5.495    -1.961    -1.833 -0.0310 -0.0256  0.9992
    44 C(13)  Bbb     0.0176     2.361     0.843     0.788 -0.3240  0.9459  0.0142
              Bcc     0.0234     3.134     1.118     1.045  0.9455  0.3233  0.0377
 
              Baa    -0.0187    -2.503    -0.893    -0.835  0.9939 -0.0991  0.0476
    45 C(13)  Bbb    -0.0179    -2.400    -0.857    -0.801  0.0687  0.8974  0.4359
              Bcc     0.0365     4.904     1.750     1.636 -0.0859 -0.4300  0.8988
 
              Baa    -0.0375    -5.028    -1.794    -1.677 -0.5690  0.7576 -0.3199
    46 C(13)  Bbb    -0.0351    -4.709    -1.680    -1.571  0.7142  0.6481  0.2644
              Bcc     0.0726     9.737     3.474     3.248 -0.4076  0.0781  0.9098
 
              Baa    -0.0006    -0.078    -0.028    -0.026 -0.2644  0.0961  0.9596
    47 C(13)  Bbb    -0.0000    -0.005    -0.002    -0.002  0.8760 -0.3922  0.2806
              Bcc     0.0006     0.083     0.030     0.028  0.4034  0.9148  0.0195
 
              Baa    -0.0190    -2.553    -0.911    -0.852 -0.2534 -0.6420  0.7236
    48 C(13)  Bbb     0.0085     1.138     0.406     0.380 -0.4281  0.7452  0.5113
              Bcc     0.0105     1.415     0.505     0.472  0.8675  0.1802  0.4637
 
              Baa    -0.0091    -1.226    -0.438    -0.409  0.4715  0.8719  0.1326
    49 C(13)  Bbb     0.0038     0.515     0.184     0.172  0.8744 -0.4426 -0.1990
              Bcc     0.0053     0.711     0.254     0.237  0.1148 -0.2097  0.9710
 
              Baa    -0.0102    -1.374    -0.490    -0.458 -0.5661  0.5001  0.6553
    50 C(13)  Bbb    -0.0102    -1.371    -0.489    -0.457  0.6410 -0.2327  0.7314
              Bcc     0.0205     2.745     0.979     0.916  0.5183  0.8341 -0.1889
 
              Baa    -0.0022    -0.301    -0.107    -0.100  0.6331  0.3874  0.6702
    51 C(13)  Bbb     0.0006     0.074     0.026     0.025 -0.5096  0.8603 -0.0159
              Bcc     0.0017     0.227     0.081     0.076 -0.5827 -0.3314  0.7420
 
              Baa    -0.0056    -0.751    -0.268    -0.250 -0.6163  0.7722  0.1545
    52 C(13)  Bbb    -0.0047    -0.636    -0.227    -0.212  0.6283  0.6004 -0.4947
              Bcc     0.0103     1.387     0.495     0.463  0.4747  0.2078  0.8552
 
              Baa    -0.0099    -1.334    -0.476    -0.445  0.5909 -0.2231  0.7753
    53 C(13)  Bbb     0.0044     0.596     0.213     0.199 -0.5825  0.5470  0.6013
              Bcc     0.0055     0.738     0.263     0.246  0.5582  0.8069 -0.1932
 
              Baa    -0.0136    -1.818    -0.649    -0.607  0.7153 -0.6985  0.0188
    54 C(13)  Bbb    -0.0127    -1.703    -0.608    -0.568 -0.3127 -0.2960  0.9026
              Bcc     0.0262     3.521     1.256     1.175  0.6249  0.6515  0.4302
 
              Baa    -0.0059    -0.787    -0.281    -0.262 -0.4659  0.1606  0.8701
    55 C(13)  Bbb    -0.0054    -0.728    -0.260    -0.243  0.1195  0.9858 -0.1179
              Bcc     0.0113     1.514     0.540     0.505  0.8767 -0.0490  0.4785
 
              Baa    -0.0104    -1.390    -0.496    -0.464  0.8434  0.4014  0.3571
    56 C(13)  Bbb     0.0047     0.634     0.226     0.212  0.0043 -0.6697  0.7426
              Bcc     0.0056     0.756     0.270     0.252 -0.5373  0.6248  0.5665
 
              Baa    -0.0043    -0.577    -0.206    -0.193 -0.0158  0.4749  0.8799
    57 C(13)  Bbb    -0.0038    -0.505    -0.180    -0.169  0.5896  0.7152 -0.3755
              Bcc     0.0081     1.083     0.386     0.361  0.8076 -0.5128  0.2913
 
              Baa    -0.0066    -0.890    -0.318    -0.297 -0.4593  0.8883  0.0013
    58 C(13)  Bbb     0.0031     0.423     0.151     0.141  0.8330  0.4302  0.3478
              Bcc     0.0035     0.467     0.167     0.156 -0.3084 -0.1608  0.9376
 
              Baa    -0.0019    -0.259    -0.092    -0.086 -0.3045  0.5397  0.7849
    59 C(13)  Bbb     0.0006     0.081     0.029     0.027 -0.0762  0.8076 -0.5848
              Bcc     0.0013     0.179     0.064     0.060  0.9494  0.2379  0.2048
 
              Baa    -0.0088    -1.183    -0.422    -0.395  0.9074 -0.3556  0.2238
    60 C(13)  Bbb     0.0041     0.550     0.196     0.183 -0.3241 -0.2533  0.9115
              Bcc     0.0047     0.633     0.226     0.211  0.2674  0.8996  0.3451
 
              Baa    -0.0183    -2.461    -0.878    -0.821 -0.6624 -0.1932  0.7238
    61 C(13)  Bbb     0.0074     0.996     0.355     0.332  0.6648 -0.5971  0.4489
              Bcc     0.0109     1.466     0.523     0.489  0.3454  0.7786  0.5239
 
              Baa    -0.0252    -3.378    -1.206    -1.127 -0.6421  0.7666  0.0094
    62 C(13)  Bbb    -0.0235    -3.148    -1.123    -1.050  0.4822  0.3943  0.7823
              Bcc     0.0486     6.527     2.329     2.177 -0.5960 -0.5069  0.6228
 
              Baa    -0.0104    -1.402    -0.500    -0.468  0.7101  0.5982 -0.3713
    63 C(13)  Bbb     0.0045     0.599     0.214     0.200 -0.6485  0.7611 -0.0138
              Bcc     0.0060     0.803     0.286     0.268  0.2744  0.2506  0.9284
 
              Baa    -0.0082    -1.104    -0.394    -0.368 -0.3658  0.9230 -0.1197
    64 C(13)  Bbb    -0.0076    -1.020    -0.364    -0.340  0.0033  0.1299  0.9915
              Bcc     0.0158     2.124     0.758     0.708  0.9307  0.3623 -0.0506
 
              Baa    -0.0033    -0.438    -0.156    -0.146  0.2609 -0.5816  0.7705
    65 C(13)  Bbb    -0.0030    -0.402    -0.143    -0.134  0.2393  0.8122  0.5320
              Bcc     0.0063     0.840     0.300     0.280  0.9352 -0.0456 -0.3511
 
              Baa    -0.0088    -1.178    -0.420    -0.393  0.9792  0.0162 -0.2024
    66 C(13)  Bbb     0.0042     0.565     0.202     0.188  0.1838 -0.4953  0.8491
              Bcc     0.0046     0.613     0.219     0.204  0.0865  0.8686  0.4879
 
              Baa    -0.1783    -9.332    -3.330    -3.113  0.1642  0.9173  0.3627
    67 Cl(35) Bbb    -0.1571    -8.221    -2.933    -2.742  0.2837 -0.3961  0.8733
              Bcc     0.3354    17.553     6.263     5.855  0.9448 -0.0405 -0.3253
 
              Baa    -0.0077    -0.403    -0.144    -0.134  0.9397  0.3389 -0.0450
    68 Cl(35) Bbb    -0.0031    -0.163    -0.058    -0.054 -0.0699  0.3193  0.9451
              Bcc     0.0108     0.565     0.202     0.189 -0.3347  0.8850 -0.3237
 
              Baa    -0.0068    -0.358    -0.128    -0.119  0.3918  0.1655  0.9050
    69 Cl(35) Bbb    -0.0056    -0.291    -0.104    -0.097  0.8359  0.3469 -0.4253
              Bcc     0.0124     0.649     0.232     0.217 -0.3843  0.9232 -0.0024
 
              Baa    -0.0043    -0.223    -0.080    -0.074  0.8573 -0.0144 -0.5147
    70 Cl(35) Bbb    -0.0029    -0.151    -0.054    -0.050  0.4969 -0.2391  0.8342
              Bcc     0.0072     0.374     0.134     0.125  0.1351  0.9709  0.1978
 
              Baa    -0.0051    -0.268    -0.096    -0.090 -0.6361  0.7678  0.0766
    71 Cl(35) Bbb     0.0007     0.035     0.013     0.012 -0.3595 -0.3827  0.8510
              Bcc     0.0045     0.233     0.083     0.078  0.6828  0.5138  0.5195
 
              Baa    -0.0094    -0.493    -0.176    -0.164  0.2096  0.8507  0.4820
    72 Cl(35) Bbb    -0.0016    -0.084    -0.030    -0.028  0.8604  0.0738 -0.5043
              Bcc     0.0110     0.577     0.206     0.192  0.4646 -0.5204  0.7165
 
              Baa    -0.0459    -2.403    -0.857    -0.802  0.0314  0.8559 -0.5162
    73 Cl(35) Bbb     0.0172     0.901     0.322     0.301 -0.2504  0.5067  0.8249
              Bcc     0.0287     1.501     0.536     0.501  0.9676  0.1034  0.2302
 
              Baa    -0.0338    -1.769    -0.631    -0.590 -0.1371  0.1861  0.9729
    74 Cl(35) Bbb    -0.0252    -1.317    -0.470    -0.439  0.7397  0.6725 -0.0244
              Bcc     0.0590     3.086     1.101     1.029 -0.6589  0.7163 -0.2298
 
              Baa    -0.2463   -12.890    -4.599    -4.300 -0.1221  0.5599  0.8195
    75 Cl(35) Bbb    -0.2169   -11.351    -4.050    -3.786  0.8558 -0.3589  0.3727
              Bcc     0.4632    24.241     8.650     8.086  0.5027  0.7468 -0.4354
 

 ---------------------------------------------------------------------------------

 No NMR shielding tensors so no spin-rotation constants.
 Leave Link  601 at Sat Jul 16 01:35:26 2022, MaxMem=  1342177280 cpu:             114.8 elap:               2.7
 (Enter /home/mkliu/g16/l9999.exe)
 1\1\GINC-NODE01\FOpt\UB3LYP\6-311G(d,p)\C66Cl9(2)\MKLIU\16-Jul-2022\0\
 \#P opt b3lyp/6-311G(d, p) empiricaldispersion=GD3\\force\\0,2\C,-1.32
 44699938,1.8792724853,-3.9114535959\C,0.2135722654,2.2861464058,-4.113
 388547\C,0.9637949231,0.8666937304,-4.298006963\C,-1.3288975858,0.3834
 894849,-3.9129801289\C,-0.0987707361,-0.184920312,-4.1964576767\C,-2.2
 163761572,-0.1563202219,-2.9882402453\C,-1.9655776986,2.1237456873,-2.
 5830665989\C,-2.9234305859,0.9612513176,-2.2724365076\C,-1.3995674235,
 2.8922782885,-1.5671876941\C,0.9011506757,2.9287224442,-2.7991538658\C
 ,0.0032233363,3.2627309207,-1.6061474061\C,1.8054208067,0.7019475668,-
 3.0572897729\C,1.8458043675,1.8472985572,-2.2948635866\C,2.1807586864,
 -0.538773524,-2.5214101756\C,0.1825185993,-1.420034026,-3.6562914418\C
 ,1.5836142624,-1.7990338909,-3.1716560056\C,-1.9748155182,-1.415959135
 6,-2.4146483232\C,-0.7863729704,-2.0760916741,-2.865672014\C,-2.510827
 6995,-1.7430831495,-1.0890980755\C,-3.1199905277,0.680693868,-0.814709
 6312\C,-3.1213322891,-0.6678535817,-0.2948666665\C,-2.0582553806,2.853
 3684143,-0.3056212559\C,-2.9633169108,1.7586399408,0.0418296327\C,-1.4
 065607347,3.2575158707,0.8857533343\C,0.6610114342,3.4907784699,-0.411
 7400265\C,-0.036522553,3.5302250202,0.8328599019\C,2.400207336,1.83354
 67983,-1.011358678\C,2.1112707499,3.0409865857,-0.1325254843\C,2.79222
 27638,-0.5711196512,-1.2560649705\C,2.9329613555,0.6319117852,-0.50880
 3119\C,3.1175162456,-1.9330777591,-0.6204413472\C,1.2812085227,-2.8205
 94931,-2.1028031943\C,-0.1285781726,-3.0453477319,-2.0334432874\C,2.03
 28928258,-2.9433731904,-0.9734331814\C,-1.9588704478,-2.8423876685,-0.
 410000674\C,-0.7313484052,-3.4760054327,-0.8708177366\C,-1.9503934977,
 -2.9280802223,1.0307644416\C,-3.1726761649,-0.8189681803,1.1153445028\
 C,-2.5615697878,-1.9415534865,1.7821315198\C,-2.9120624035,1.583555791
 4,1.4640089601\C,-1.9478420963,2.510285552,2.0072424964\C,-3.052705214
 8,0.3148695055,2.0001361503\C,-1.135296932,2.1186433385,3.0606696843\C
 ,0.8166686821,3.078518915,1.9035969363\C,2.0484056975,2.6504076055,1.3
 227321063\C,0.2862245688,2.4167552166,3.0136617559\C,3.4712928727,0.59
 86355558,0.9254090036\C,2.7057590929,1.5650917236,1.8168280605\C,3.006
 758992,-1.8817160425,0.8923243236\C,3.18546901,-0.7310136455,1.5984846
 51\C,1.4451505297,-3.4720833029,0.2184251599\C,0.0802782438,-3.7862131
 064,0.2688521449\C,-0.6829979061,-3.4878006971,1.4590923957\C,2.079076
 8531,-2.8695339449,1.3642914019\C,-0.054755177,-2.9865162042,2.5939615
 526\C,1.3633713981,-2.6757780932,2.5480485391\C,-1.9586282122,-1.48066
 97919,3.0171442236\C,-2.2598698323,-0.0749699991,3.1498595066\C,-1.297
 4401274,0.8044169986,3.6542195845\C,-0.7070004061,-1.9711746193,3.3969
 808915\C,0.9925777102,1.2977769366,3.5659059223\C,2.1817206083,0.87945
 35343,2.9590086163\C,2.477737501,-0.525039326,2.8290476285\C,1.5798724
 821,-1.4795458841,3.3113762816\C,0.0194990592,0.3047098561,3.992799908
 2\C,0.3077415001,-1.0514944984,3.8691982731\Cl,-2.4590394854,2.5382928
 88,-5.2067940237\Cl,0.4115990125,3.320212679,-5.5478945493\Cl,2.001629
 2145,0.7013550624,-5.7751652982\Cl,2.6774049313,-2.5041135536,-4.45929
 57734\Cl,4.7976172824,-2.461885688,-1.1608777198\Cl,5.2784808307,0.973
 9553307,0.8861595287\Cl,3.4125404205,4.3384125511,-0.2909897592\Cl,1.8
 395725884,4.450368232,-3.2018194946\Cl,-4.6619503937,1.2295715451,-2.9
 611553754\\Version=ES64L-G16RevA.03\State=2-A\HF=-6657.4459614\S2=0.78
 8794\S2-1=0.\S2A=0.751128\RMSD=9.715e-09\RMSF=2.546e-05\Dipole=-0.8989
 113,-0.858144,1.8571524\Quadrupole=-9.1211929,5.7023281,3.4188648,2.15
 8898,-3.9755032,2.231223\PG=C01 [X(C66Cl9)]\\@


 IF YOU GIVE EVERYONE A PIECE OF YOUR MIND,
 PRETTY SOON IT WILL BE ALL GONE.
 Job cpu time:       5 days 17 hours 19 minutes 53.8 seconds.
 Elapsed time:       0 days  2 hours 51 minutes 57.6 seconds.
 File lengths (MBytes):  RWF=   2194 Int=      0 D2E=      0 Chk=    197 Scr=      1
 Normal termination of Gaussian 16 at Sat Jul 16 01:35:27 2022.
