 Entering Gaussian System, Link 0=g16
 Input=dqwuc3of6k6io_addon_7.gjf
 Output=dqwuc3of6k6io_addon_7.log
 Initial command:
 /home/mkliu/g16/l1.exe "/data/scratch/Gau-97477.inp" -scrdir="/data/scratch/"
 Entering Link 1 = /home/mkliu/g16/l1.exe PID=     97478.
  
 Copyright (c) 1988,1990,1992,1993,1995,1998,2003,2009,2016,
            Gaussian, Inc.  All Rights Reserved.
  
 This is part of the Gaussian(R) 16 program.  It is based on
 the Gaussian(R) 09 system (copyright 2009, Gaussian, Inc.),
 the Gaussian(R) 03 system (copyright 2003, Gaussian, Inc.),
 the Gaussian(R) 98 system (copyright 1998, Gaussian, Inc.),
 the Gaussian(R) 94 system (copyright 1995, Gaussian, Inc.),
 the Gaussian 92(TM) system (copyright 1992, Gaussian, Inc.),
 the Gaussian 90(TM) system (copyright 1990, Gaussian, Inc.),
 the Gaussian 88(TM) system (copyright 1988, Gaussian, Inc.),
 the Gaussian 86(TM) system (copyright 1986, Carnegie Mellon
 University), and the Gaussian 82(TM) system (copyright 1983,
 Carnegie Mellon University). Gaussian is a federally registered
 trademark of Gaussian, Inc.
  
 This software contains proprietary and confidential information,
 including trade secrets, belonging to Gaussian, Inc.
  
 This software is provided under written license and may be
 used, copied, transmitted, or stored only in accord with that
 written license.
  
 The following legend is applicable only to US Government
 contracts under FAR:
  
                    RESTRICTED RIGHTS LEGEND
  
 Use, reproduction and disclosure by the US Government is
 subject to restrictions as set forth in subparagraphs (a)
 and (c) of the Commercial Computer Software - Restricted
 Rights clause in FAR 52.227-19.
  
 Gaussian, Inc.
 340 Quinnipiac St., Bldg. 40, Wallingford CT 06492
  
  
 ---------------------------------------------------------------
 Warning -- This program may not be used in any manner that
 competes with the business of Gaussian, Inc. or will provide
 assistance to any competitor of Gaussian, Inc.  The licensee
 of this program is prohibited from giving any competitor of
 Gaussian, Inc. access to this program.  By using this program,
 the user acknowledges that Gaussian, Inc. is engaged in the
 business of creating and licensing software in the field of
 computational chemistry and represents and warrants to the
 licensee that it is not a competitor of Gaussian, Inc. and that
 it will not use this program in any manner prohibited above.
 ---------------------------------------------------------------
  

 Cite this work as:
 Gaussian 16, Revision A.03,
 M. J. Frisch, G. W. Trucks, H. B. Schlegel, G. E. Scuseria, 
 M. A. Robb, J. R. Cheeseman, G. Scalmani, V. Barone, 
 G. A. Petersson, H. Nakatsuji, X. Li, M. Caricato, A. V. Marenich, 
 J. Bloino, B. G. Janesko, R. Gomperts, B. Mennucci, H. P. Hratchian, 
 J. V. Ortiz, A. F. Izmaylov, J. L. Sonnenberg, D. Williams-Young, 
 F. Ding, F. Lipparini, F. Egidi, J. Goings, B. Peng, A. Petrone, 
 T. Henderson, D. Ranasinghe, V. G. Zakrzewski, J. Gao, N. Rega, 
 G. Zheng, W. Liang, M. Hada, M. Ehara, K. Toyota, R. Fukuda, 
 J. Hasegawa, M. Ishida, T. Nakajima, Y. Honda, O. Kitao, H. Nakai, 
 T. Vreven, K. Throssell, J. A. Montgomery, Jr., J. E. Peralta, 
 F. Ogliaro, M. J. Bearpark, J. J. Heyd, E. N. Brothers, K. N. Kudin, 
 V. N. Staroverov, T. A. Keith, R. Kobayashi, J. Normand, 
 K. Raghavachari, A. P. Rendell, J. C. Burant, S. S. Iyengar, 
 J. Tomasi, M. Cossi, J. M. Millam, M. Klene, C. Adamo, R. Cammi, 
 J. W. Ochterski, R. L. Martin, K. Morokuma, O. Farkas, 
 J. B. Foresman, and D. J. Fox, Gaussian, Inc., Wallingford CT, 2016.
 
 ******************************************
 Gaussian 16:  ES64L-G16RevA.03 25-Dec-2016
                16-Jul-2022 
 ******************************************
 %mem=10GB
 %chk=dqwuc3of6k6io_addon_7.chk
 %nprocshared=48
 Will use up to   48 processors via shared memory.
 -------------------------------------------------
 #P opt b3lyp/6-311G(d, p) empiricaldispersion=GD3
 -------------------------------------------------
 1/18=20,19=15,26=3,38=1/1,3;
 2/9=110,12=2,17=6,18=5,40=1/2;
 3/5=4,6=6,7=101,11=2,25=1,30=1,71=1,74=-5,124=31/1,2,3;
 4//1;
 5/5=2,38=5/2;
 6/7=2,8=2,9=2,10=2,28=1/1;
 7//1,2,3,16;
 1/18=20,19=15,26=3/3(2);
 2/9=110/2;
 99//99;
 2/9=110/2;
 3/5=4,6=6,7=101,11=2,25=1,30=1,71=1,74=-5,124=31/1,2,3;
 4/5=5,16=3,69=1/1;
 5/5=2,38=5/2;
 7//1,2,3,16;
 1/18=20,19=15,26=3/3(-5);
 2/9=110/2;
 6/7=2,8=2,9=2,10=2,19=2,28=1/1;
 99/9=1/99;
 Leave Link    1 at Sat Jul 16 02:59:07 2022, MaxMem=  1342177280 cpu:               2.0 elap:               0.0
 (Enter /home/mkliu/g16/l101.exe)
 -----
 force
 -----
 Symbolic Z-matrix:
 Charge =  0 Multiplicity = 2
 C                    -1.34      1.8865   -3.95659 
 C                     0.19132   2.22171  -3.98322 
 C                     0.98813   0.9083   -4.2986 
 C                    -1.25405   0.42058  -3.80986 
 C                    -0.04933  -0.13476  -4.10558 
 C                    -2.11019  -0.10533  -2.85577 
 C                    -2.20781   2.29178  -2.72367 
 C                    -2.68151   0.95829  -2.12612 
 C                    -1.48186   2.91891  -1.56115 
 C                     0.67042   2.49383  -2.61334 
 C                    -0.05963   3.12721  -1.60416 
 C                     1.91635   0.67005  -3.11862 
 C                     1.8212    1.79632  -2.26328 
 C                     2.27202  -0.53999  -2.58487 
 C                     0.22848  -1.38292  -3.57309 
 C                     1.62879  -1.79101  -3.16089 
 C                    -1.90601  -1.38506  -2.33566 
 C                    -0.73163  -2.04528  -2.8195 
 C                    -2.44903  -1.66576  -1.0543 
 C                    -3.07855   0.71978  -0.84548 
 C                    -3.01898  -0.6225   -0.29581 
 C                    -2.08652   2.87199  -0.33588 
 C                    -3.22383   1.93651   0.03855 
 C                    -1.38154   3.226     0.86362 
 C                     0.63298   3.34829  -0.40933 
 C                    -0.03974   3.50861   0.83086 
 C                     2.41988   1.80098  -0.99324 
 C                     1.89251   2.7527   -0.12633 
 C                     2.92525  -0.60393  -1.27824 
 C                     3.04692   0.6021   -0.50927 
 C                     2.95079  -1.81485  -0.57478 
 C                     1.30953  -2.80613  -2.10132 
 C                    -0.1      -3.02632  -2.0006 
 C                     2.06326  -2.90764  -0.97909 
 C                    -2.08311  -2.99695  -0.4331 
 C                    -0.70533  -3.45935  -0.85111 
 C                    -1.91818  -2.91606   1.05151 
 C                    -3.14124  -0.78443   1.11817 
 C                    -2.50983  -1.90601   1.7631 
 C                    -2.9102    1.63656   1.46753 
 C                    -1.91654   2.50286   1.97928 
 C                    -2.99984   0.36054   1.97386 
 C                    -1.07784   2.11893   3.02994 
 C                     0.83269   3.08741   1.89126 
 C                     2.04069   2.61424   1.28132 
 C                     0.3226    2.41561   2.9817 
 C                     3.25315   0.53321   0.88678 
 C                     2.73343   1.53236   1.78079 
 C                     3.03672  -1.86587   0.84448 
 C                     3.2202   -0.70908   1.57919 
 C                     1.47448  -3.46283   0.20857 
 C                     0.10879  -3.74008   0.26728 
 C                    -0.65284  -3.42649   1.44512 
 C                     2.1145   -2.86851   1.33155 
 C                     0.00471  -2.92115   2.5619 
 C                     1.40417  -2.63262   2.50243 
 C                    -1.8808   -1.43053   2.97299 
 C                    -2.18171  -0.03664   3.10013 
 C                    -1.22083   0.82103   3.60821 
 C                    -0.63506  -1.91036   3.34484 
 C                     1.06005   1.30495   3.54026 
 C                     2.25213   0.89038   2.97245 
 C                     2.55367  -0.50915   2.84364 
 C                     1.64289  -1.44387   3.2869 
 C                     0.09279   0.33168   3.96017 
 C                     0.38215  -1.01679   3.83079 
 Cl                   -2.07601   2.34971  -5.52245 
 Cl                    0.51513   3.64063  -5.01634 
 Cl                    1.83219   0.80266  -5.8516 
 Cl                    2.65049  -2.41492  -4.50553 
 Cl                   -3.58806   3.35546  -3.14561 
 Cl                   -4.87025   2.65763  -0.17196 
 Cl                   -3.36542  -4.20531  -0.93125 
 
 ITRead=  0  0  0  0  0  0  0  0  0  0  0  0  0  0  0  0  0  0  0  0
 ITRead=  0  0  0  0  0  0  0  0  0  0  0  0  0  0  0  0  0  0  0  0
 ITRead=  0  0  0  0  0  0  0  0  0  0  0  0  0  0  0  0  0  0  0  0
 ITRead=  0  0  0  0  0  0  0  0  0  0  0  0  0
 MicOpt= -1 -1 -1 -1 -1 -1 -1 -1 -1 -1 -1 -1 -1 -1 -1 -1 -1 -1 -1 -1
 MicOpt= -1 -1 -1 -1 -1 -1 -1 -1 -1 -1 -1 -1 -1 -1 -1 -1 -1 -1 -1 -1
 MicOpt= -1 -1 -1 -1 -1 -1 -1 -1 -1 -1 -1 -1 -1 -1 -1 -1 -1 -1 -1 -1
 MicOpt= -1 -1 -1 -1 -1 -1 -1 -1 -1 -1 -1 -1 -1
 NAtoms=     73 NQM=       73 NQMF=       0 NMMI=      0 NMMIF=      0
                NMic=       0 NMicF=      0.
                    Isotopes and Nuclear Properties:
 (Nuclear quadrupole moments (NQMom) in fm**2, nuclear magnetic moments (NMagM)
  in nuclear magnetons)

  Atom         1           2           3           4           5           6           7           8           9          10
 IAtWgt=          12          12          12          12          12          12          12          12          12          12
 AtmWgt=  12.0000000  12.0000000  12.0000000  12.0000000  12.0000000  12.0000000  12.0000000  12.0000000  12.0000000  12.0000000
 NucSpn=           0           0           0           0           0           0           0           0           0           0
 AtZEff=  -0.0000000  -0.0000000  -0.0000000  -0.0000000  -0.0000000  -0.0000000  -0.0000000  -0.0000000  -0.0000000  -0.0000000
 NQMom=    0.0000000   0.0000000   0.0000000   0.0000000   0.0000000   0.0000000   0.0000000   0.0000000   0.0000000   0.0000000
 NMagM=    0.0000000   0.0000000   0.0000000   0.0000000   0.0000000   0.0000000   0.0000000   0.0000000   0.0000000   0.0000000
 AtZNuc=   6.0000000   6.0000000   6.0000000   6.0000000   6.0000000   6.0000000   6.0000000   6.0000000   6.0000000   6.0000000

  Atom        11          12          13          14          15          16          17          18          19          20
 IAtWgt=          12          12          12          12          12          12          12          12          12          12
 AtmWgt=  12.0000000  12.0000000  12.0000000  12.0000000  12.0000000  12.0000000  12.0000000  12.0000000  12.0000000  12.0000000
 NucSpn=           0           0           0           0           0           0           0           0           0           0
 AtZEff=  -0.0000000  -0.0000000  -0.0000000  -0.0000000  -0.0000000  -0.0000000  -0.0000000  -0.0000000  -0.0000000  -0.0000000
 NQMom=    0.0000000   0.0000000   0.0000000   0.0000000   0.0000000   0.0000000   0.0000000   0.0000000   0.0000000   0.0000000
 NMagM=    0.0000000   0.0000000   0.0000000   0.0000000   0.0000000   0.0000000   0.0000000   0.0000000   0.0000000   0.0000000
 AtZNuc=   6.0000000   6.0000000   6.0000000   6.0000000   6.0000000   6.0000000   6.0000000   6.0000000   6.0000000   6.0000000

  Atom        21          22          23          24          25          26          27          28          29          30
 IAtWgt=          12          12          12          12          12          12          12          12          12          12
 AtmWgt=  12.0000000  12.0000000  12.0000000  12.0000000  12.0000000  12.0000000  12.0000000  12.0000000  12.0000000  12.0000000
 NucSpn=           0           0           0           0           0           0           0           0           0           0
 AtZEff=  -0.0000000  -0.0000000  -0.0000000  -0.0000000  -0.0000000  -0.0000000  -0.0000000  -0.0000000  -0.0000000  -0.0000000
 NQMom=    0.0000000   0.0000000   0.0000000   0.0000000   0.0000000   0.0000000   0.0000000   0.0000000   0.0000000   0.0000000
 NMagM=    0.0000000   0.0000000   0.0000000   0.0000000   0.0000000   0.0000000   0.0000000   0.0000000   0.0000000   0.0000000
 AtZNuc=   6.0000000   6.0000000   6.0000000   6.0000000   6.0000000   6.0000000   6.0000000   6.0000000   6.0000000   6.0000000

  Atom        31          32          33          34          35          36          37          38          39          40
 IAtWgt=          12          12          12          12          12          12          12          12          12          12
 AtmWgt=  12.0000000  12.0000000  12.0000000  12.0000000  12.0000000  12.0000000  12.0000000  12.0000000  12.0000000  12.0000000
 NucSpn=           0           0           0           0           0           0           0           0           0           0
 AtZEff=  -0.0000000  -0.0000000  -0.0000000  -0.0000000  -0.0000000  -0.0000000  -0.0000000  -0.0000000  -0.0000000  -0.0000000
 NQMom=    0.0000000   0.0000000   0.0000000   0.0000000   0.0000000   0.0000000   0.0000000   0.0000000   0.0000000   0.0000000
 NMagM=    0.0000000   0.0000000   0.0000000   0.0000000   0.0000000   0.0000000   0.0000000   0.0000000   0.0000000   0.0000000
 AtZNuc=   6.0000000   6.0000000   6.0000000   6.0000000   6.0000000   6.0000000   6.0000000   6.0000000   6.0000000   6.0000000

  Atom        41          42          43          44          45          46          47          48          49          50
 IAtWgt=          12          12          12          12          12          12          12          12          12          12
 AtmWgt=  12.0000000  12.0000000  12.0000000  12.0000000  12.0000000  12.0000000  12.0000000  12.0000000  12.0000000  12.0000000
 NucSpn=           0           0           0           0           0           0           0           0           0           0
 AtZEff=  -0.0000000  -0.0000000  -0.0000000  -0.0000000  -0.0000000  -0.0000000  -0.0000000  -0.0000000  -0.0000000  -0.0000000
 NQMom=    0.0000000   0.0000000   0.0000000   0.0000000   0.0000000   0.0000000   0.0000000   0.0000000   0.0000000   0.0000000
 NMagM=    0.0000000   0.0000000   0.0000000   0.0000000   0.0000000   0.0000000   0.0000000   0.0000000   0.0000000   0.0000000
 AtZNuc=   6.0000000   6.0000000   6.0000000   6.0000000   6.0000000   6.0000000   6.0000000   6.0000000   6.0000000   6.0000000

  Atom        51          52          53          54          55          56          57          58          59          60
 IAtWgt=          12          12          12          12          12          12          12          12          12          12
 AtmWgt=  12.0000000  12.0000000  12.0000000  12.0000000  12.0000000  12.0000000  12.0000000  12.0000000  12.0000000  12.0000000
 NucSpn=           0           0           0           0           0           0           0           0           0           0
 AtZEff=  -0.0000000  -0.0000000  -0.0000000  -0.0000000  -0.0000000  -0.0000000  -0.0000000  -0.0000000  -0.0000000  -0.0000000
 NQMom=    0.0000000   0.0000000   0.0000000   0.0000000   0.0000000   0.0000000   0.0000000   0.0000000   0.0000000   0.0000000
 NMagM=    0.0000000   0.0000000   0.0000000   0.0000000   0.0000000   0.0000000   0.0000000   0.0000000   0.0000000   0.0000000
 AtZNuc=   6.0000000   6.0000000   6.0000000   6.0000000   6.0000000   6.0000000   6.0000000   6.0000000   6.0000000   6.0000000

  Atom        61          62          63          64          65          66          67          68          69          70
 IAtWgt=          12          12          12          12          12          12          35          35          35          35
 AtmWgt=  12.0000000  12.0000000  12.0000000  12.0000000  12.0000000  12.0000000  34.9688527  34.9688527  34.9688527  34.9688527
 NucSpn=           0           0           0           0           0           0           3           3           3           3
 AtZEff=  -0.0000000  -0.0000000  -0.0000000  -0.0000000  -0.0000000  -0.0000000  -0.0000000  -0.0000000  -0.0000000  -0.0000000
 NQMom=    0.0000000   0.0000000   0.0000000   0.0000000   0.0000000   0.0000000  -8.1650000  -8.1650000  -8.1650000  -8.1650000
 NMagM=    0.0000000   0.0000000   0.0000000   0.0000000   0.0000000   0.0000000   0.8218740   0.8218740   0.8218740   0.8218740
 AtZNuc=   6.0000000   6.0000000   6.0000000   6.0000000   6.0000000   6.0000000  17.0000000  17.0000000  17.0000000  17.0000000

  Atom        71          72          73
 IAtWgt=          35          35          35
 AtmWgt=  34.9688527  34.9688527  34.9688527
 NucSpn=           3           3           3
 AtZEff=  -0.0000000  -0.0000000  -0.0000000
 NQMom=   -8.1650000  -8.1650000  -8.1650000
 NMagM=    0.8218740   0.8218740   0.8218740
 AtZNuc=  17.0000000  17.0000000  17.0000000
 Leave Link  101 at Sat Jul 16 02:59:08 2022, MaxMem=  1342177280 cpu:              20.1 elap:               0.4
 (Enter /home/mkliu/g16/l103.exe)

 GradGradGradGradGradGradGradGradGradGradGradGradGradGradGradGradGradGrad
 Berny optimization.
 Initialization pass.
                           ----------------------------
                           !    Initial Parameters    !
                           ! (Angstroms and Degrees)  !
 --------------------------                            --------------------------
 ! Name  Definition              Value          Derivative Info.                !
 --------------------------------------------------------------------------------
 ! R1    R(1,2)                  1.5678         estimate D2E/DX2                !
 ! R2    R(1,4)                  1.4757         estimate D2E/DX2                !
 ! R3    R(1,7)                  1.5612         estimate D2E/DX2                !
 ! R4    R(1,67)                 1.7911         estimate D2E/DX2                !
 ! R5    R(2,3)                  1.5683         estimate D2E/DX2                !
 ! R6    R(2,10)                 1.4765         estimate D2E/DX2                !
 ! R7    R(2,68)                 1.7848         estimate D2E/DX2                !
 ! R8    R(3,5)                  1.4838         estimate D2E/DX2                !
 ! R9    R(3,12)                 1.5201         estimate D2E/DX2                !
 ! R10   R(3,69)                 1.7707         estimate D2E/DX2                !
 ! R11   R(4,5)                  1.3591         estimate D2E/DX2                !
 ! R12   R(4,6)                  1.3856         estimate D2E/DX2                !
 ! R13   R(5,15)                 1.3851         estimate D2E/DX2                !
 ! R14   R(6,8)                  1.4107         estimate D2E/DX2                !
 ! R15   R(6,17)                 1.3964         estimate D2E/DX2                !
 ! R16   R(7,8)                  1.5361         estimate D2E/DX2                !
 ! R17   R(7,9)                  1.5072         estimate D2E/DX2                !
 ! R18   R(7,71)                 1.7929         estimate D2E/DX2                !
 ! R19   R(8,20)                 1.3618         estimate D2E/DX2                !
 ! R20   R(9,11)                 1.4381         estimate D2E/DX2                !
 ! R21   R(9,22)                 1.3671         estimate D2E/DX2                !
 ! R22   R(10,11)                1.3973         estimate D2E/DX2                !
 ! R23   R(10,13)                1.3905         estimate D2E/DX2                !
 ! R24   R(11,25)                1.3986         estimate D2E/DX2                !
 ! R25   R(12,13)                1.4174         estimate D2E/DX2                !
 ! R26   R(12,14)                1.3695         estimate D2E/DX2                !
 ! R27   R(13,27)                1.4041         estimate D2E/DX2                !
 ! R28   R(14,16)                1.5201         estimate D2E/DX2                !
 ! R29   R(14,29)                1.4622         estimate D2E/DX2                !
 ! R30   R(15,16)                1.5157         estimate D2E/DX2                !
 ! R31   R(15,18)                1.3887         estimate D2E/DX2                !
 ! R32   R(16,32)                1.5017         estimate D2E/DX2                !
 ! R33   R(16,70)                1.8003         estimate D2E/DX2                !
 ! R34   R(17,18)                1.4315         estimate D2E/DX2                !
 ! R35   R(17,19)                1.4197         estimate D2E/DX2                !
 ! R36   R(18,33)                1.4255         estimate D2E/DX2                !
 ! R37   R(19,21)                1.4102         estimate D2E/DX2                !
 ! R38   R(19,35)                1.5139         estimate D2E/DX2                !
 ! R39   R(20,21)                1.4517         estimate D2E/DX2                !
 ! R40   R(20,23)                1.511          estimate D2E/DX2                !
 ! R41   R(21,38)                1.4285         estimate D2E/DX2                !
 ! R42   R(22,23)                1.5195         estimate D2E/DX2                !
 ! R43   R(22,24)                1.4357         estimate D2E/DX2                !
 ! R44   R(23,40)                1.4934         estimate D2E/DX2                !
 ! R45   R(23,72)                1.8097         estimate D2E/DX2                !
 ! R46   R(24,26)                1.3716         estimate D2E/DX2                !
 ! R47   R(24,41)                1.4331         estimate D2E/DX2                !
 ! R48   R(25,26)                1.42           estimate D2E/DX2                !
 ! R49   R(25,28)                1.4217         estimate D2E/DX2                !
 ! R50   R(26,44)                1.4363         estimate D2E/DX2                !
 ! R51   R(27,28)                1.3912         estimate D2E/DX2                !
 ! R52   R(27,30)                1.4369         estimate D2E/DX2                !
 ! R53   R(28,45)                1.4222         estimate D2E/DX2                !
 ! R54   R(29,30)                1.4355         estimate D2E/DX2                !
 ! R55   R(29,31)                1.4007         estimate D2E/DX2                !
 ! R56   R(30,47)                1.4129         estimate D2E/DX2                !
 ! R57   R(31,34)                1.4647         estimate D2E/DX2                !
 ! R58   R(31,49)                1.4228         estimate D2E/DX2                !
 ! R59   R(32,33)                1.4302         estimate D2E/DX2                !
 ! R60   R(32,34)                1.3557         estimate D2E/DX2                !
 ! R61   R(33,36)                1.3694         estimate D2E/DX2                !
 ! R62   R(34,51)                1.4372         estimate D2E/DX2                !
 ! R63   R(35,36)                1.5122         estimate D2E/DX2                !
 ! R64   R(35,37)                1.4959         estimate D2E/DX2                !
 ! R65   R(35,73)                1.831          estimate D2E/DX2                !
 ! R66   R(36,52)                1.4115         estimate D2E/DX2                !
 ! R67   R(37,39)                1.3699         estimate D2E/DX2                !
 ! R68   R(37,53)                1.4201         estimate D2E/DX2                !
 ! R69   R(38,39)                1.4396         estimate D2E/DX2                !
 ! R70   R(38,42)                1.4364         estimate D2E/DX2                !
 ! R71   R(39,57)                1.4442         estimate D2E/DX2                !
 ! R72   R(40,41)                1.4141         estimate D2E/DX2                !
 ! R73   R(40,42)                1.3757         estimate D2E/DX2                !
 ! R74   R(41,43)                1.3981         estimate D2E/DX2                !
 ! R75   R(42,58)                1.4476         estimate D2E/DX2                !
 ! R76   R(43,46)                1.4323         estimate D2E/DX2                !
 ! R77   R(43,59)                1.4281         estimate D2E/DX2                !
 ! R78   R(44,45)                1.4336         estimate D2E/DX2                !
 ! R79   R(44,46)                1.3786         estimate D2E/DX2                !
 ! R80   R(45,48)                1.3783         estimate D2E/DX2                !
 ! R81   R(46,61)                1.4455         estimate D2E/DX2                !
 ! R82   R(47,48)                1.4379         estimate D2E/DX2                !
 ! R83   R(47,50)                1.4226         estimate D2E/DX2                !
 ! R84   R(48,62)                1.4366         estimate D2E/DX2                !
 ! R85   R(49,50)                1.3826         estimate D2E/DX2                !
 ! R86   R(49,54)                1.4467         estimate D2E/DX2                !
 ! R87   R(50,63)                1.4433         estimate D2E/DX2                !
 ! R88   R(51,52)                1.3948         estimate D2E/DX2                !
 ! R89   R(51,54)                1.4227         estimate D2E/DX2                !
 ! R90   R(52,53)                1.4373         estimate D2E/DX2                !
 ! R91   R(53,55)                1.391          estimate D2E/DX2                !
 ! R92   R(54,56)                1.3897         estimate D2E/DX2                !
 ! R93   R(55,56)                1.4301         estimate D2E/DX2                !
 ! R94   R(55,60)                1.4297         estimate D2E/DX2                !
 ! R95   R(56,64)                1.4441         estimate D2E/DX2                !
 ! R96   R(57,58)                1.4317         estimate D2E/DX2                !
 ! R97   R(57,60)                1.3858         estimate D2E/DX2                !
 ! R98   R(58,59)                1.3846         estimate D2E/DX2                !
 ! R99   R(59,65)                1.4453         estimate D2E/DX2                !
 ! R100  R(60,66)                1.4385         estimate D2E/DX2                !
 ! R101  R(61,62)                1.384          estimate D2E/DX2                !
 ! R102  R(61,65)                1.435          estimate D2E/DX2                !
 ! R103  R(62,63)                1.4374         estimate D2E/DX2                !
 ! R104  R(63,64)                1.3783         estimate D2E/DX2                !
 ! R105  R(64,66)                1.4379         estimate D2E/DX2                !
 ! R106  R(65,66)                1.3852         estimate D2E/DX2                !
 ! A1    A(2,1,4)               99.0432         estimate D2E/DX2                !
 ! A2    A(2,1,7)              120.0547         estimate D2E/DX2                !
 ! A3    A(2,1,67)             109.3424         estimate D2E/DX2                !
 ! A4    A(4,1,7)              102.223          estimate D2E/DX2                !
 ! A5    A(4,1,67)             111.5763         estimate D2E/DX2                !
 ! A6    A(7,1,67)             113.2564         estimate D2E/DX2                !
 ! A7    A(1,2,3)              108.7004         estimate D2E/DX2                !
 ! A8    A(1,2,10)             109.9117         estimate D2E/DX2                !
 ! A9    A(1,2,68)             110.9168         estimate D2E/DX2                !
 ! A10   A(3,2,10)             100.1409         estimate D2E/DX2                !
 ! A11   A(3,2,68)             117.2081         estimate D2E/DX2                !
 ! A12   A(10,2,68)            109.3683         estimate D2E/DX2                !
 ! A13   A(2,3,5)              101.9655         estimate D2E/DX2                !
 ! A14   A(2,3,12)             106.5832         estimate D2E/DX2                !
 ! A15   A(2,3,69)             117.9398         estimate D2E/DX2                !
 ! A16   A(5,3,12)             102.462          estimate D2E/DX2                !
 ! A17   A(5,3,69)             113.9197         estimate D2E/DX2                !
 ! A18   A(12,3,69)            112.3576         estimate D2E/DX2                !
 ! A19   A(1,4,5)              115.8411         estimate D2E/DX2                !
 ! A20   A(1,4,6)              114.1739         estimate D2E/DX2                !
 ! A21   A(5,4,6)              122.8489         estimate D2E/DX2                !
 ! A22   A(3,5,4)              111.1519         estimate D2E/DX2                !
 ! A23   A(3,5,15)             122.9044         estimate D2E/DX2                !
 ! A24   A(4,5,15)             117.5377         estimate D2E/DX2                !
 ! A25   A(4,6,8)              108.6759         estimate D2E/DX2                !
 ! A26   A(4,6,17)             120.9293         estimate D2E/DX2                !
 ! A27   A(8,6,17)             123.8857         estimate D2E/DX2                !
 ! A28   A(1,7,8)              104.671          estimate D2E/DX2                !
 ! A29   A(1,7,9)              116.7047         estimate D2E/DX2                !
 ! A30   A(1,7,71)             113.3326         estimate D2E/DX2                !
 ! A31   A(8,7,9)              102.104          estimate D2E/DX2                !
 ! A32   A(8,7,71)             111.6637         estimate D2E/DX2                !
 ! A33   A(9,7,71)             107.7854         estimate D2E/DX2                !
 ! A34   A(6,8,7)              109.1726         estimate D2E/DX2                !
 ! A35   A(6,8,20)             118.1914         estimate D2E/DX2                !
 ! A36   A(7,8,20)             127.4275         estimate D2E/DX2                !
 ! A37   A(7,9,11)             120.9002         estimate D2E/DX2                !
 ! A38   A(7,9,22)             117.6427         estimate D2E/DX2                !
 ! A39   A(11,9,22)            117.9816         estimate D2E/DX2                !
 ! A40   A(2,10,11)            125.7365         estimate D2E/DX2                !
 ! A41   A(2,10,13)            114.184          estimate D2E/DX2                !
 ! A42   A(11,10,13)           118.5516         estimate D2E/DX2                !
 ! A43   A(9,11,10)            118.2064         estimate D2E/DX2                !
 ! A44   A(9,11,25)            119.1498         estimate D2E/DX2                !
 ! A45   A(10,11,25)           115.4615         estimate D2E/DX2                !
 ! A46   A(3,12,13)            107.6316         estimate D2E/DX2                !
 ! A47   A(3,12,14)            126.8409         estimate D2E/DX2                !
 ! A48   A(13,12,14)           118.9665         estimate D2E/DX2                !
 ! A49   A(10,13,12)           107.5917         estimate D2E/DX2                !
 ! A50   A(10,13,27)           125.3771         estimate D2E/DX2                !
 ! A51   A(12,13,27)           121.3219         estimate D2E/DX2                !
 ! A52   A(12,14,16)           118.0072         estimate D2E/DX2                !
 ! A53   A(12,14,29)           120.1935         estimate D2E/DX2                !
 ! A54   A(16,14,29)           119.451          estimate D2E/DX2                !
 ! A55   A(5,15,16)            122.1717         estimate D2E/DX2                !
 ! A56   A(5,15,18)            119.9834         estimate D2E/DX2                !
 ! A57   A(16,15,18)           111.2693         estimate D2E/DX2                !
 ! A58   A(14,16,15)           105.8078         estimate D2E/DX2                !
 ! A59   A(14,16,32)           112.2667         estimate D2E/DX2                !
 ! A60   A(14,16,70)           109.1533         estimate D2E/DX2                !
 ! A61   A(15,16,32)           100.2229         estimate D2E/DX2                !
 ! A62   A(15,16,70)           114.4877         estimate D2E/DX2                !
 ! A63   A(32,16,70)           114.4172         estimate D2E/DX2                !
 ! A64   A(6,17,18)            114.6293         estimate D2E/DX2                !
 ! A65   A(6,17,19)            117.4808         estimate D2E/DX2                !
 ! A66   A(18,17,19)           121.8475         estimate D2E/DX2                !
 ! A67   A(15,18,17)           122.0486         estimate D2E/DX2                !
 ! A68   A(15,18,33)           109.4907         estimate D2E/DX2                !
 ! A69   A(17,18,33)           119.1278         estimate D2E/DX2                !
 ! A70   A(17,19,21)           119.589          estimate D2E/DX2                !
 ! A71   A(17,19,35)           116.8566         estimate D2E/DX2                !
 ! A72   A(21,19,35)           121.8382         estimate D2E/DX2                !
 ! A73   A(8,20,21)            120.4008         estimate D2E/DX2                !
 ! A74   A(8,20,23)            115.9252         estimate D2E/DX2                !
 ! A75   A(21,20,23)           121.8016         estimate D2E/DX2                !
 ! A76   A(19,21,20)           119.8007         estimate D2E/DX2                !
 ! A77   A(19,21,38)           118.8912         estimate D2E/DX2                !
 ! A78   A(20,21,38)           118.4315         estimate D2E/DX2                !
 ! A79   A(9,22,23)            124.9611         estimate D2E/DX2                !
 ! A80   A(9,22,24)            121.5446         estimate D2E/DX2                !
 ! A81   A(23,22,24)           108.268          estimate D2E/DX2                !
 ! A82   A(20,23,22)           106.2374         estimate D2E/DX2                !
 ! A83   A(20,23,40)           112.2036         estimate D2E/DX2                !
 ! A84   A(20,23,72)           109.8947         estimate D2E/DX2                !
 ! A85   A(22,23,40)           101.669          estimate D2E/DX2                !
 ! A86   A(22,23,72)           114.0145         estimate D2E/DX2                !
 ! A87   A(40,23,72)           112.4822         estimate D2E/DX2                !
 ! A88   A(22,24,26)           120.7445         estimate D2E/DX2                !
 ! A89   A(22,24,41)           110.0408         estimate D2E/DX2                !
 ! A90   A(26,24,41)           119.1933         estimate D2E/DX2                !
 ! A91   A(11,25,26)           121.9626         estimate D2E/DX2                !
 ! A92   A(11,25,28)           122.8566         estimate D2E/DX2                !
 ! A93   A(26,25,28)           107.0472         estimate D2E/DX2                !
 ! A94   A(24,26,25)           117.4551         estimate D2E/DX2                !
 ! A95   A(24,26,44)           121.0734         estimate D2E/DX2                !
 ! A96   A(25,26,44)           108.9014         estimate D2E/DX2                !
 ! A97   A(13,27,28)           113.8464         estimate D2E/DX2                !
 ! A98   A(13,27,30)           119.2065         estimate D2E/DX2                !
 ! A99   A(28,27,30)           121.7568         estimate D2E/DX2                !
 ! A100  A(25,28,27)           119.8935         estimate D2E/DX2                !
 ! A101  A(25,28,45)           109.2754         estimate D2E/DX2                !
 ! A102  A(27,28,45)           120.7089         estimate D2E/DX2                !
 ! A103  A(14,29,30)           118.6731         estimate D2E/DX2                !
 ! A104  A(14,29,31)           119.6528         estimate D2E/DX2                !
 ! A105  A(30,29,31)           117.1136         estimate D2E/DX2                !
 ! A106  A(27,30,29)           118.9184         estimate D2E/DX2                !
 ! A107  A(27,30,47)           115.9241         estimate D2E/DX2                !
 ! A108  A(29,30,47)           120.0473         estimate D2E/DX2                !
 ! A109  A(29,31,34)           119.6918         estimate D2E/DX2                !
 ! A110  A(29,31,49)           122.2152         estimate D2E/DX2                !
 ! A111  A(34,31,49)           106.5709         estimate D2E/DX2                !
 ! A112  A(16,32,33)           111.3024         estimate D2E/DX2                !
 ! A113  A(16,32,34)           121.0981         estimate D2E/DX2                !
 ! A114  A(33,32,34)           118.5638         estimate D2E/DX2                !
 ! A115  A(18,33,32)           106.8755         estimate D2E/DX2                !
 ! A116  A(18,33,36)           120.2637         estimate D2E/DX2                !
 ! A117  A(32,33,36)           122.919          estimate D2E/DX2                !
 ! A118  A(31,34,32)           120.6331         estimate D2E/DX2                !
 ! A119  A(31,34,51)           107.9598         estimate D2E/DX2                !
 ! A120  A(32,34,51)           119.0282         estimate D2E/DX2                !
 ! A121  A(19,35,36)           112.0656         estimate D2E/DX2                !
 ! A122  A(19,35,37)           112.7266         estimate D2E/DX2                !
 ! A123  A(19,35,73)           107.4207         estimate D2E/DX2                !
 ! A124  A(36,35,37)           100.977          estimate D2E/DX2                !
 ! A125  A(36,35,73)           111.1658         estimate D2E/DX2                !
 ! A126  A(37,35,73)           112.5134         estimate D2E/DX2                !
 ! A127  A(33,36,35)           122.5528         estimate D2E/DX2                !
 ! A128  A(33,36,52)           118.2312         estimate D2E/DX2                !
 ! A129  A(35,36,52)           111.5481         estimate D2E/DX2                !
 ! A130  A(35,37,39)           120.5152         estimate D2E/DX2                !
 ! A131  A(35,37,53)           110.7251         estimate D2E/DX2                !
 ! A132  A(39,37,53)           120.3899         estimate D2E/DX2                !
 ! A133  A(21,38,39)           119.618          estimate D2E/DX2                !
 ! A134  A(21,38,42)           119.4001         estimate D2E/DX2                !
 ! A135  A(39,38,42)           108.1178         estimate D2E/DX2                !
 ! A136  A(37,39,38)           122.083          estimate D2E/DX2                !
 ! A137  A(37,39,57)           119.3292         estimate D2E/DX2                !
 ! A138  A(38,39,57)           108.0494         estimate D2E/DX2                !
 ! A139  A(23,40,41)           111.7646         estimate D2E/DX2                !
 ! A140  A(23,40,42)           121.6529         estimate D2E/DX2                !
 ! A141  A(41,40,42)           118.738          estimate D2E/DX2                !
 ! A142  A(24,41,40)           106.8406         estimate D2E/DX2                !
 ! A143  A(24,41,43)           119.9757         estimate D2E/DX2                !
 ! A144  A(40,41,43)           121.6851         estimate D2E/DX2                !
 ! A145  A(38,42,40)           121.7701         estimate D2E/DX2                !
 ! A146  A(38,42,58)           107.4827         estimate D2E/DX2                !
 ! A147  A(40,42,58)           120.2652         estimate D2E/DX2                !
 ! A148  A(41,43,46)           120.2874         estimate D2E/DX2                !
 ! A149  A(41,43,59)           119.5909         estimate D2E/DX2                !
 ! A150  A(46,43,59)           107.4452         estimate D2E/DX2                !
 ! A151  A(26,44,45)           107.1275         estimate D2E/DX2                !
 ! A152  A(26,44,46)           120.1405         estimate D2E/DX2                !
 ! A153  A(45,44,46)           119.1745         estimate D2E/DX2                !
 ! A154  A(28,45,44)           107.5292         estimate D2E/DX2                !
 ! A155  A(28,45,48)           119.1729         estimate D2E/DX2                !
 ! A156  A(44,45,48)           121.8969         estimate D2E/DX2                !
 ! A157  A(43,46,44)           119.2971         estimate D2E/DX2                !
 ! A158  A(43,46,61)           109.0653         estimate D2E/DX2                !
 ! A159  A(44,46,61)           119.4268         estimate D2E/DX2                !
 ! A160  A(30,47,48)           121.8492         estimate D2E/DX2                !
 ! A161  A(30,47,50)           121.3403         estimate D2E/DX2                !
 ! A162  A(48,47,50)           107.2055         estimate D2E/DX2                !
 ! A163  A(45,48,47)           120.1163         estimate D2E/DX2                !
 ! A164  A(45,48,62)           118.8792         estimate D2E/DX2                !
 ! A165  A(47,48,62)           109.0445         estimate D2E/DX2                !
 ! A166  A(31,49,50)           120.5365         estimate D2E/DX2                !
 ! A167  A(31,49,54)           108.7952         estimate D2E/DX2                !
 ! A168  A(50,49,54)           119.0476         estimate D2E/DX2                !
 ! A169  A(47,50,49)           118.3631         estimate D2E/DX2                !
 ! A170  A(47,50,63)           108.4298         estimate D2E/DX2                !
 ! A171  A(49,50,63)           121.3428         estimate D2E/DX2                !
 ! A172  A(34,51,52)           120.8449         estimate D2E/DX2                !
 ! A173  A(34,51,54)           107.8562         estimate D2E/DX2                !
 ! A174  A(52,51,54)           119.3607         estimate D2E/DX2                !
 ! A175  A(36,52,51)           119.4622         estimate D2E/DX2                !
 ! A176  A(36,52,53)           107.4746         estimate D2E/DX2                !
 ! A177  A(51,52,53)           120.6633         estimate D2E/DX2                !
 ! A178  A(37,53,52)           108.8725         estimate D2E/DX2                !
 ! A179  A(37,53,55)           120.8748         estimate D2E/DX2                !
 ! A180  A(52,53,55)           119.1239         estimate D2E/DX2                !
 ! A181  A(49,54,51)           108.092          estimate D2E/DX2                !
 ! A182  A(49,54,56)           119.4629         estimate D2E/DX2                !
 ! A183  A(51,54,56)           120.4005         estimate D2E/DX2                !
 ! A184  A(53,55,56)           120.1642         estimate D2E/DX2                !
 ! A185  A(53,55,60)           119.0109         estimate D2E/DX2                !
 ! A186  A(56,55,60)           108.5439         estimate D2E/DX2                !
 ! A187  A(54,56,55)           120.0649         estimate D2E/DX2                !
 ! A188  A(54,56,64)           120.8588         estimate D2E/DX2                !
 ! A189  A(55,56,64)           107.7729         estimate D2E/DX2                !
 ! A190  A(39,57,58)           107.6627         estimate D2E/DX2                !
 ! A191  A(39,57,60)           120.1558         estimate D2E/DX2                !
 ! A192  A(58,57,60)           120.1482         estimate D2E/DX2                !
 ! A193  A(42,58,57)           108.471          estimate D2E/DX2                !
 ! A194  A(42,58,59)           120.5149         estimate D2E/DX2                !
 ! A195  A(57,58,59)           119.329          estimate D2E/DX2                !
 ! A196  A(43,59,58)           118.9392         estimate D2E/DX2                !
 ! A197  A(43,59,65)           108.3798         estimate D2E/DX2                !
 ! A198  A(58,59,65)           120.6899         estimate D2E/DX2                !
 ! A199  A(55,60,57)           120.0083         estimate D2E/DX2                !
 ! A200  A(55,60,66)           107.923          estimate D2E/DX2                !
 ! A201  A(57,60,66)           120.7453         estimate D2E/DX2                !
 ! A202  A(46,61,62)           120.7353         estimate D2E/DX2                !
 ! A203  A(46,61,65)           106.8781         estimate D2E/DX2                !
 ! A204  A(62,61,65)           119.8343         estimate D2E/DX2                !
 ! A205  A(48,62,61)           119.6723         estimate D2E/DX2                !
 ! A206  A(48,62,63)           106.8865         estimate D2E/DX2                !
 ! A207  A(61,62,63)           120.6045         estimate D2E/DX2                !
 ! A208  A(50,63,62)           108.0747         estimate D2E/DX2                !
 ! A209  A(50,63,64)           119.5366         estimate D2E/DX2                !
 ! A210  A(62,63,64)           119.5281         estimate D2E/DX2                !
 ! A211  A(56,64,63)           119.5234         estimate D2E/DX2                !
 ! A212  A(56,64,66)           107.759          estimate D2E/DX2                !
 ! A213  A(63,64,66)           119.9728         estimate D2E/DX2                !
 ! A214  A(59,65,61)           108.164          estimate D2E/DX2                !
 ! A215  A(59,65,66)           119.7821         estimate D2E/DX2                !
 ! A216  A(61,65,66)           119.4799         estimate D2E/DX2                !
 ! A217  A(60,66,64)           107.9215         estimate D2E/DX2                !
 ! A218  A(60,66,65)           119.2447         estimate D2E/DX2                !
 ! A219  A(64,66,65)           120.5044         estimate D2E/DX2                !
 ! D1    D(4,1,2,3)             17.5462         estimate D2E/DX2                !
 ! D2    D(4,1,2,10)           -91.1355         estimate D2E/DX2                !
 ! D3    D(4,1,2,68)           147.7967         estimate D2E/DX2                !
 ! D4    D(7,1,2,3)            127.4094         estimate D2E/DX2                !
 ! D5    D(7,1,2,10)            18.7277         estimate D2E/DX2                !
 ! D6    D(7,1,2,68)          -102.3401         estimate D2E/DX2                !
 ! D7    D(67,1,2,3)           -99.2304         estimate D2E/DX2                !
 ! D8    D(67,1,2,10)          152.0879         estimate D2E/DX2                !
 ! D9    D(67,1,2,68)           31.0201         estimate D2E/DX2                !
 ! D10   D(2,1,4,5)            -16.8594         estimate D2E/DX2                !
 ! D11   D(2,1,4,6)            134.5442         estimate D2E/DX2                !
 ! D12   D(7,1,4,5)           -140.458          estimate D2E/DX2                !
 ! D13   D(7,1,4,6)             10.9457         estimate D2E/DX2                !
 ! D14   D(67,1,4,5)            98.2022         estimate D2E/DX2                !
 ! D15   D(67,1,4,6)          -110.3942         estimate D2E/DX2                !
 ! D16   D(2,1,7,8)           -115.9625         estimate D2E/DX2                !
 ! D17   D(2,1,7,9)             -3.9793         estimate D2E/DX2                !
 ! D18   D(2,1,7,71)           122.1325         estimate D2E/DX2                !
 ! D19   D(4,1,7,8)             -7.8338         estimate D2E/DX2                !
 ! D20   D(4,1,7,9)            104.1494         estimate D2E/DX2                !
 ! D21   D(4,1,7,71)          -129.7387         estimate D2E/DX2                !
 ! D22   D(67,1,7,8)           112.3415         estimate D2E/DX2                !
 ! D23   D(67,1,7,9)          -135.6753         estimate D2E/DX2                !
 ! D24   D(67,1,7,71)           -9.5635         estimate D2E/DX2                !
 ! D25   D(1,2,3,5)            -13.261          estimate D2E/DX2                !
 ! D26   D(1,2,3,12)          -120.3148         estimate D2E/DX2                !
 ! D27   D(1,2,3,69)           112.298          estimate D2E/DX2                !
 ! D28   D(10,2,3,5)           101.9404         estimate D2E/DX2                !
 ! D29   D(10,2,3,12)           -5.1133         estimate D2E/DX2                !
 ! D30   D(10,2,3,69)         -132.5006         estimate D2E/DX2                !
 ! D31   D(68,2,3,5)          -139.9752         estimate D2E/DX2                !
 ! D32   D(68,2,3,12)          112.9711         estimate D2E/DX2                !
 ! D33   D(68,2,3,69)          -14.4161         estimate D2E/DX2                !
 ! D34   D(1,2,10,11)          -35.0789         estimate D2E/DX2                !
 ! D35   D(1,2,10,13)          130.5249         estimate D2E/DX2                !
 ! D36   D(3,2,10,11)         -149.3596         estimate D2E/DX2                !
 ! D37   D(3,2,10,13)           16.2442         estimate D2E/DX2                !
 ! D38   D(68,2,10,11)          86.9146         estimate D2E/DX2                !
 ! D39   D(68,2,10,13)        -107.4816         estimate D2E/DX2                !
 ! D40   D(2,3,5,4)              2.9663         estimate D2E/DX2                !
 ! D41   D(2,3,5,15)          -144.2579         estimate D2E/DX2                !
 ! D42   D(12,3,5,4)           113.186          estimate D2E/DX2                !
 ! D43   D(12,3,5,15)          -34.0382         estimate D2E/DX2                !
 ! D44   D(69,3,5,4)          -125.2002         estimate D2E/DX2                !
 ! D45   D(69,3,5,15)           87.5755         estimate D2E/DX2                !
 ! D46   D(2,3,12,13)           -6.5794         estimate D2E/DX2                !
 ! D47   D(2,3,12,14)          144.2404         estimate D2E/DX2                !
 ! D48   D(5,3,12,13)         -113.2789         estimate D2E/DX2                !
 ! D49   D(5,3,12,14)           37.5409         estimate D2E/DX2                !
 ! D50   D(69,3,12,13)         124.0451         estimate D2E/DX2                !
 ! D51   D(69,3,12,14)         -85.1351         estimate D2E/DX2                !
 ! D52   D(1,4,5,3)              9.5277         estimate D2E/DX2                !
 ! D53   D(1,4,5,15)           158.6919         estimate D2E/DX2                !
 ! D54   D(6,4,5,3)           -139.1554         estimate D2E/DX2                !
 ! D55   D(6,4,5,15)            10.0088         estimate D2E/DX2                !
 ! D56   D(1,4,6,8)             -9.5724         estimate D2E/DX2                !
 ! D57   D(1,4,6,17)          -162.2726         estimate D2E/DX2                !
 ! D58   D(5,4,6,8)            139.5795         estimate D2E/DX2                !
 ! D59   D(5,4,6,17)           -13.1207         estimate D2E/DX2                !
 ! D60   D(3,5,15,16)           -0.8926         estimate D2E/DX2                !
 ! D61   D(3,5,15,18)          148.1672         estimate D2E/DX2                !
 ! D62   D(4,5,15,16)         -146.1851         estimate D2E/DX2                !
 ! D63   D(4,5,15,18)            2.8747         estimate D2E/DX2                !
 ! D64   D(4,6,8,7)              3.5706         estimate D2E/DX2                !
 ! D65   D(4,6,8,20)          -152.837          estimate D2E/DX2                !
 ! D66   D(17,6,8,7)           155.2814         estimate D2E/DX2                !
 ! D67   D(17,6,8,20)           -1.1262         estimate D2E/DX2                !
 ! D68   D(4,6,17,18)            2.8658         estimate D2E/DX2                !
 ! D69   D(4,6,17,19)          156.0875         estimate D2E/DX2                !
 ! D70   D(8,6,17,18)         -145.5741         estimate D2E/DX2                !
 ! D71   D(8,6,17,19)            7.6477         estimate D2E/DX2                !
 ! D72   D(1,7,8,6)              3.0201         estimate D2E/DX2                !
 ! D73   D(1,7,8,20)           156.6478         estimate D2E/DX2                !
 ! D74   D(9,7,8,6)           -119.0696         estimate D2E/DX2                !
 ! D75   D(9,7,8,20)            34.5582         estimate D2E/DX2                !
 ! D76   D(71,7,8,6)           126.0122         estimate D2E/DX2                !
 ! D77   D(71,7,8,20)          -80.36           estimate D2E/DX2                !
 ! D78   D(1,7,9,11)             0.0672         estimate D2E/DX2                !
 ! D79   D(1,7,9,22)          -158.4776         estimate D2E/DX2                !
 ! D80   D(8,7,9,11)           113.5102         estimate D2E/DX2                !
 ! D81   D(8,7,9,22)           -45.0347         estimate D2E/DX2                !
 ! D82   D(71,7,9,11)         -128.7605         estimate D2E/DX2                !
 ! D83   D(71,7,9,22)           72.6946         estimate D2E/DX2                !
 ! D84   D(6,8,20,21)           -5.2693         estimate D2E/DX2                !
 ! D85   D(6,8,20,23)          159.4324         estimate D2E/DX2                !
 ! D86   D(7,8,20,21)         -156.8427         estimate D2E/DX2                !
 ! D87   D(7,8,20,23)            7.859          estimate D2E/DX2                !
 ! D88   D(7,9,11,10)          -13.0198         estimate D2E/DX2                !
 ! D89   D(7,9,11,25)         -162.0804         estimate D2E/DX2                !
 ! D90   D(22,9,11,10)         145.4547         estimate D2E/DX2                !
 ! D91   D(22,9,11,25)          -3.6059         estimate D2E/DX2                !
 ! D92   D(7,9,22,23)           17.4839         estimate D2E/DX2                !
 ! D93   D(7,9,22,24)          168.8883         estimate D2E/DX2                !
 ! D94   D(11,9,22,23)        -141.698          estimate D2E/DX2                !
 ! D95   D(11,9,22,24)           9.7065         estimate D2E/DX2                !
 ! D96   D(2,10,11,9)           33.5852         estimate D2E/DX2                !
 ! D97   D(2,10,11,25)        -176.2376         estimate D2E/DX2                !
 ! D98   D(13,10,11,9)        -131.4512         estimate D2E/DX2                !
 ! D99   D(13,10,11,25)         18.7261         estimate D2E/DX2                !
 ! D100  D(2,10,13,12)         -21.6327         estimate D2E/DX2                !
 ! D101  D(2,10,13,27)        -175.0102         estimate D2E/DX2                !
 ! D102  D(11,10,13,12)        145.0847         estimate D2E/DX2                !
 ! D103  D(11,10,13,27)         -8.2927         estimate D2E/DX2                !
 ! D104  D(9,11,25,26)          -6.5123         estimate D2E/DX2                !
 ! D105  D(9,11,25,28)         138.0096         estimate D2E/DX2                !
 ! D106  D(10,11,25,26)       -156.3919         estimate D2E/DX2                !
 ! D107  D(10,11,25,28)        -11.8701         estimate D2E/DX2                !
 ! D108  D(3,12,13,10)          16.5158         estimate D2E/DX2                !
 ! D109  D(3,12,13,27)         171.1938         estimate D2E/DX2                !
 ! D110  D(14,12,13,10)       -136.9977         estimate D2E/DX2                !
 ! D111  D(14,12,13,27)         17.6803         estimate D2E/DX2                !
 ! D112  D(3,12,14,16)          -3.6841         estimate D2E/DX2                !
 ! D113  D(3,12,14,29)        -166.1971         estimate D2E/DX2                !
 ! D114  D(13,12,14,16)        144.2366         estimate D2E/DX2                !
 ! D115  D(13,12,14,29)        -18.2764         estimate D2E/DX2                !
 ! D116  D(10,13,27,28)        -10.1457         estimate D2E/DX2                !
 ! D117  D(10,13,27,30)        144.8605         estimate D2E/DX2                !
 ! D118  D(12,13,27,28)       -160.1438         estimate D2E/DX2                !
 ! D119  D(12,13,27,30)         -5.1376         estimate D2E/DX2                !
 ! D120  D(12,14,16,15)        -33.0886         estimate D2E/DX2                !
 ! D121  D(12,14,16,32)       -141.4639         estimate D2E/DX2                !
 ! D122  D(12,14,16,70)         90.5786         estimate D2E/DX2                !
 ! D123  D(29,14,16,15)        129.5579         estimate D2E/DX2                !
 ! D124  D(29,14,16,32)         21.1826         estimate D2E/DX2                !
 ! D125  D(29,14,16,70)       -106.7748         estimate D2E/DX2                !
 ! D126  D(12,14,29,30)          6.9074         estimate D2E/DX2                !
 ! D127  D(12,14,29,31)        162.2847         estimate D2E/DX2                !
 ! D128  D(16,14,29,30)       -155.3543         estimate D2E/DX2                !
 ! D129  D(16,14,29,31)          0.0229         estimate D2E/DX2                !
 ! D130  D(5,15,16,14)          36.3316         estimate D2E/DX2                !
 ! D131  D(5,15,16,32)         153.1538         estimate D2E/DX2                !
 ! D132  D(5,15,16,70)         -83.9101         estimate D2E/DX2                !
 ! D133  D(18,15,16,14)       -115.121          estimate D2E/DX2                !
 ! D134  D(18,15,16,32)          1.7012         estimate D2E/DX2                !
 ! D135  D(18,15,16,70)        124.6373         estimate D2E/DX2                !
 ! D136  D(5,15,18,17)         -12.9837         estimate D2E/DX2                !
 ! D137  D(5,15,18,33)        -159.1617         estimate D2E/DX2                !
 ! D138  D(16,15,18,17)        139.176          estimate D2E/DX2                !
 ! D139  D(16,15,18,33)         -7.002          estimate D2E/DX2                !
 ! D140  D(14,16,32,33)        116.107          estimate D2E/DX2                !
 ! D141  D(14,16,32,34)        -30.4609         estimate D2E/DX2                !
 ! D142  D(15,16,32,33)          4.2093         estimate D2E/DX2                !
 ! D143  D(15,16,32,34)       -142.3586         estimate D2E/DX2                !
 ! D144  D(70,16,32,33)       -118.7763         estimate D2E/DX2                !
 ! D145  D(70,16,32,34)         94.6558         estimate D2E/DX2                !
 ! D146  D(6,17,18,15)           9.7778         estimate D2E/DX2                !
 ! D147  D(6,17,18,33)         152.859          estimate D2E/DX2                !
 ! D148  D(19,17,18,15)       -142.1529         estimate D2E/DX2                !
 ! D149  D(19,17,18,33)          0.9283         estimate D2E/DX2                !
 ! D150  D(6,17,19,21)          -7.6412         estimate D2E/DX2                !
 ! D151  D(6,17,19,35)        -172.9961         estimate D2E/DX2                !
 ! D152  D(18,17,19,21)        143.5341         estimate D2E/DX2                !
 ! D153  D(18,17,19,35)        -21.8209         estimate D2E/DX2                !
 ! D154  D(15,18,33,32)          9.4302         estimate D2E/DX2                !
 ! D155  D(15,18,33,36)        155.9968         estimate D2E/DX2                !
 ! D156  D(17,18,33,32)       -137.8802         estimate D2E/DX2                !
 ! D157  D(17,18,33,36)          8.6864         estimate D2E/DX2                !
 ! D158  D(17,19,21,20)          1.6781         estimate D2E/DX2                !
 ! D159  D(17,19,21,38)       -158.8322         estimate D2E/DX2                !
 ! D160  D(35,19,21,20)        166.281          estimate D2E/DX2                !
 ! D161  D(35,19,21,38)          5.7706         estimate D2E/DX2                !
 ! D162  D(17,19,35,36)         31.1982         estimate D2E/DX2                !
 ! D163  D(17,19,35,37)        144.3111         estimate D2E/DX2                !
 ! D164  D(17,19,35,73)        -91.1814         estimate D2E/DX2                !
 ! D165  D(21,19,35,36)       -133.8031         estimate D2E/DX2                !
 ! D166  D(21,19,35,37)        -20.6902         estimate D2E/DX2                !
 ! D167  D(21,19,35,73)        103.8173         estimate D2E/DX2                !
 ! D168  D(8,20,21,19)           5.0244         estimate D2E/DX2                !
 ! D169  D(8,20,21,38)         165.6235         estimate D2E/DX2                !
 ! D170  D(23,20,21,19)       -158.7626         estimate D2E/DX2                !
 ! D171  D(23,20,21,38)          1.8364         estimate D2E/DX2                !
 ! D172  D(8,20,23,22)         -38.0442         estimate D2E/DX2                !
 ! D173  D(8,20,23,40)        -148.3117         estimate D2E/DX2                !
 ! D174  D(8,20,23,72)          85.7475         estimate D2E/DX2                !
 ! D175  D(21,20,23,22)        126.4245         estimate D2E/DX2                !
 ! D176  D(21,20,23,40)         16.157          estimate D2E/DX2                !
 ! D177  D(21,20,23,72)       -109.7838         estimate D2E/DX2                !
 ! D178  D(19,21,38,39)          9.1469         estimate D2E/DX2                !
 ! D179  D(19,21,38,42)        146.1104         estimate D2E/DX2                !
 ! D180  D(20,21,38,39)       -151.6314         estimate D2E/DX2                !
 ! D181  D(20,21,38,42)        -14.6678         estimate D2E/DX2                !
 ! D182  D(9,22,23,20)          27.258          estimate D2E/DX2                !
 ! D183  D(9,22,23,40)         144.7777         estimate D2E/DX2                !
 ! D184  D(9,22,23,72)         -93.9249         estimate D2E/DX2                !
 ! D185  D(24,22,23,20)       -127.3031         estimate D2E/DX2                !
 ! D186  D(24,22,23,40)         -9.7834         estimate D2E/DX2                !
 ! D187  D(24,22,23,72)        111.514          estimate D2E/DX2                !
 ! D188  D(9,22,24,26)          -5.8944         estimate D2E/DX2                !
 ! D189  D(9,22,24,41)        -151.0865         estimate D2E/DX2                !
 ! D190  D(23,22,24,26)        149.7077         estimate D2E/DX2                !
 ! D191  D(23,22,24,41)          4.5157         estimate D2E/DX2                !
 ! D192  D(20,23,40,41)        125.3397         estimate D2E/DX2                !
 ! D193  D(20,23,40,42)        -23.3442         estimate D2E/DX2                !
 ! D194  D(22,23,40,41)         12.2181         estimate D2E/DX2                !
 ! D195  D(22,23,40,42)       -136.4658         estimate D2E/DX2                !
 ! D196  D(72,23,40,41)       -110.1399         estimate D2E/DX2                !
 ! D197  D(72,23,40,42)        101.1762         estimate D2E/DX2                !
 ! D198  D(22,24,26,25)         -4.1836         estimate D2E/DX2                !
 ! D199  D(22,24,26,44)       -141.8564         estimate D2E/DX2                !
 ! D200  D(41,24,26,25)        137.916          estimate D2E/DX2                !
 ! D201  D(41,24,26,44)          0.2432         estimate D2E/DX2                !
 ! D202  D(22,24,41,40)          3.219          estimate D2E/DX2                !
 ! D203  D(22,24,41,43)        147.1312         estimate D2E/DX2                !
 ! D204  D(26,24,41,40)       -142.5879         estimate D2E/DX2                !
 ! D205  D(26,24,41,43)          1.3243         estimate D2E/DX2                !
 ! D206  D(11,25,26,24)         10.3244         estimate D2E/DX2                !
 ! D207  D(11,25,26,44)        152.7629         estimate D2E/DX2                !
 ! D208  D(28,25,26,24)       -139.0149         estimate D2E/DX2                !
 ! D209  D(28,25,26,44)          3.4236         estimate D2E/DX2                !
 ! D210  D(11,25,28,27)         -6.7968         estimate D2E/DX2                !
 ! D211  D(11,25,28,45)       -152.3925         estimate D2E/DX2                !
 ! D212  D(26,25,28,27)        142.2037         estimate D2E/DX2                !
 ! D213  D(26,25,28,45)         -3.392          estimate D2E/DX2                !
 ! D214  D(24,26,44,45)        138.6517         estimate D2E/DX2                !
 ! D215  D(24,26,44,46)         -1.592          estimate D2E/DX2                !
 ! D216  D(25,26,44,45)         -2.1815         estimate D2E/DX2                !
 ! D217  D(25,26,44,46)       -142.4252         estimate D2E/DX2                !
 ! D218  D(13,27,28,25)         17.0961         estimate D2E/DX2                !
 ! D219  D(13,27,28,45)        158.7548         estimate D2E/DX2                !
 ! D220  D(30,27,28,25)       -137.1989         estimate D2E/DX2                !
 ! D221  D(30,27,28,45)          4.4598         estimate D2E/DX2                !
 ! D222  D(13,27,30,29)         -6.2873         estimate D2E/DX2                !
 ! D223  D(13,27,30,47)       -161.0549         estimate D2E/DX2                !
 ! D224  D(28,27,30,29)        146.6804         estimate D2E/DX2                !
 ! D225  D(28,27,30,47)         -8.0872         estimate D2E/DX2                !
 ! D226  D(25,28,45,44)          2.061          estimate D2E/DX2                !
 ! D227  D(25,28,45,48)        146.2504         estimate D2E/DX2                !
 ! D228  D(27,28,45,44)       -143.2063         estimate D2E/DX2                !
 ! D229  D(27,28,45,48)          0.983          estimate D2E/DX2                !
 ! D230  D(14,29,30,27)          5.5058         estimate D2E/DX2                !
 ! D231  D(14,29,30,47)        159.2157         estimate D2E/DX2                !
 ! D232  D(31,29,30,27)       -150.4914         estimate D2E/DX2                !
 ! D233  D(31,29,30,47)          3.2185         estimate D2E/DX2                !
 ! D234  D(14,29,31,34)        -14.8254         estimate D2E/DX2                !
 ! D235  D(14,29,31,49)       -153.1851         estimate D2E/DX2                !
 ! D236  D(30,29,31,34)        140.9269         estimate D2E/DX2                !
 ! D237  D(30,29,31,49)          2.5673         estimate D2E/DX2                !
 ! D238  D(27,30,47,48)          6.6961         estimate D2E/DX2                !
 ! D239  D(27,30,47,50)        148.5114         estimate D2E/DX2                !
 ! D240  D(29,30,47,48)       -147.7687         estimate D2E/DX2                !
 ! D241  D(29,30,47,50)         -5.9534         estimate D2E/DX2                !
 ! D242  D(29,31,34,32)          6.2586         estimate D2E/DX2                !
 ! D243  D(29,31,34,51)       -135.4415         estimate D2E/DX2                !
 ! D244  D(49,31,34,32)        150.3481         estimate D2E/DX2                !
 ! D245  D(49,31,34,51)          8.648          estimate D2E/DX2                !
 ! D246  D(29,31,49,50)         -5.8667         estimate D2E/DX2                !
 ! D247  D(29,31,49,54)        136.9057         estimate D2E/DX2                !
 ! D248  D(34,31,49,50)       -148.8374         estimate D2E/DX2                !
 ! D249  D(34,31,49,54)         -6.0651         estimate D2E/DX2                !
 ! D250  D(16,32,33,18)         -8.475          estimate D2E/DX2                !
 ! D251  D(16,32,33,36)       -153.9407         estimate D2E/DX2                !
 ! D252  D(34,32,33,18)        139.0353         estimate D2E/DX2                !
 ! D253  D(34,32,33,36)         -6.4304         estimate D2E/DX2                !
 ! D254  D(16,32,34,31)         17.7864         estimate D2E/DX2                !
 ! D255  D(16,32,34,51)        155.3881         estimate D2E/DX2                !
 ! D256  D(33,32,34,31)       -126.4501         estimate D2E/DX2                !
 ! D257  D(33,32,34,51)         11.1516         estimate D2E/DX2                !
 ! D258  D(18,33,36,35)          3.6718         estimate D2E/DX2                !
 ! D259  D(18,33,36,52)       -143.1849         estimate D2E/DX2                !
 ! D260  D(32,33,36,35)        144.7628         estimate D2E/DX2                !
 ! D261  D(32,33,36,52)         -2.094          estimate D2E/DX2                !
 ! D262  D(31,34,51,52)        134.4449         estimate D2E/DX2                !
 ! D263  D(31,34,51,54)         -7.962          estimate D2E/DX2                !
 ! D264  D(32,34,51,52)         -7.9727         estimate D2E/DX2                !
 ! D265  D(32,34,51,54)       -150.3796         estimate D2E/DX2                !
 ! D266  D(19,35,36,33)        -23.2371         estimate D2E/DX2                !
 ! D267  D(19,35,36,52)        125.5719         estimate D2E/DX2                !
 ! D268  D(37,35,36,33)       -143.4531         estimate D2E/DX2                !
 ! D269  D(37,35,36,52)          5.3559         estimate D2E/DX2                !
 ! D270  D(73,35,36,33)         96.9858         estimate D2E/DX2                !
 ! D271  D(73,35,36,52)       -114.2052         estimate D2E/DX2                !
 ! D272  D(19,35,37,39)         22.1905         estimate D2E/DX2                !
 ! D273  D(19,35,37,53)       -126.1143         estimate D2E/DX2                !
 ! D274  D(36,35,37,39)        141.9344         estimate D2E/DX2                !
 ! D275  D(36,35,37,53)         -6.3704         estimate D2E/DX2                !
 ! D276  D(73,35,37,39)        -99.4759         estimate D2E/DX2                !
 ! D277  D(73,35,37,53)        112.2193         estimate D2E/DX2                !
 ! D278  D(33,36,52,51)          5.4317         estimate D2E/DX2                !
 ! D279  D(33,36,52,53)        147.7967         estimate D2E/DX2                !
 ! D280  D(35,36,52,51)       -144.8676         estimate D2E/DX2                !
 ! D281  D(35,36,52,53)         -2.5027         estimate D2E/DX2                !
 ! D282  D(35,37,39,38)         -9.2086         estimate D2E/DX2                !
 ! D283  D(35,37,39,57)       -149.7118         estimate D2E/DX2                !
 ! D284  D(53,37,39,38)        136.0641         estimate D2E/DX2                !
 ! D285  D(53,37,39,57)         -4.4392         estimate D2E/DX2                !
 ! D286  D(35,37,53,52)          5.3591         estimate D2E/DX2                !
 ! D287  D(35,37,53,55)        148.8397         estimate D2E/DX2                !
 ! D288  D(39,37,53,52)       -142.9912         estimate D2E/DX2                !
 ! D289  D(39,37,53,55)          0.4895         estimate D2E/DX2                !
 ! D290  D(21,38,39,37)         -7.6224         estimate D2E/DX2                !
 ! D291  D(21,38,39,57)        136.7012         estimate D2E/DX2                !
 ! D292  D(42,38,39,37)       -148.897          estimate D2E/DX2                !
 ! D293  D(42,38,39,57)         -4.5734         estimate D2E/DX2                !
 ! D294  D(21,38,42,40)          7.9823         estimate D2E/DX2                !
 ! D295  D(21,38,42,58)       -136.7635         estimate D2E/DX2                !
 ! D296  D(39,38,42,40)        149.3556         estimate D2E/DX2                !
 ! D297  D(39,38,42,58)          4.6099         estimate D2E/DX2                !
 ! D298  D(37,39,57,58)        148.2177         estimate D2E/DX2                !
 ! D299  D(37,39,57,60)          5.6018         estimate D2E/DX2                !
 ! D300  D(38,39,57,58)          2.7445         estimate D2E/DX2                !
 ! D301  D(38,39,57,60)       -139.8714         estimate D2E/DX2                !
 ! D302  D(23,40,41,24)        -10.0468         estimate D2E/DX2                !
 ! D303  D(23,40,41,43)       -153.2051         estimate D2E/DX2                !
 ! D304  D(42,40,41,24)        139.6488         estimate D2E/DX2                !
 ! D305  D(42,40,41,43)         -3.5095         estimate D2E/DX2                !
 ! D306  D(23,40,42,38)         12.3724         estimate D2E/DX2                !
 ! D307  D(23,40,42,58)        152.7725         estimate D2E/DX2                !
 ! D308  D(41,40,42,38)       -134.2251         estimate D2E/DX2                !
 ! D309  D(41,40,42,58)          6.175          estimate D2E/DX2                !
 ! D310  D(24,41,43,46)         -1.5737         estimate D2E/DX2                !
 ! D311  D(24,41,43,59)       -138.5375         estimate D2E/DX2                !
 ! D312  D(40,41,43,46)        136.9345         estimate D2E/DX2                !
 ! D313  D(40,41,43,59)         -0.0292         estimate D2E/DX2                !
 ! D314  D(38,42,58,57)         -2.9221         estimate D2E/DX2                !
 ! D315  D(38,42,58,59)        139.859          estimate D2E/DX2                !
 ! D316  D(40,42,58,57)       -148.3            estimate D2E/DX2                !
 ! D317  D(40,42,58,59)         -5.5189         estimate D2E/DX2                !
 ! D318  D(41,43,46,44)          0.2334         estimate D2E/DX2                !
 ! D319  D(41,43,46,61)       -141.9508         estimate D2E/DX2                !
 ! D320  D(59,43,46,44)        141.7666         estimate D2E/DX2                !
 ! D321  D(59,43,46,61)         -0.4176         estimate D2E/DX2                !
 ! D322  D(41,43,59,58)          0.7842         estimate D2E/DX2                !
 ! D323  D(41,43,59,65)        143.7508         estimate D2E/DX2                !
 ! D324  D(46,43,59,58)       -141.0658         estimate D2E/DX2                !
 ! D325  D(46,43,59,65)          1.9007         estimate D2E/DX2                !
 ! D326  D(26,44,45,28)          0.0746         estimate D2E/DX2                !
 ! D327  D(26,44,45,48)       -142.9298         estimate D2E/DX2                !
 ! D328  D(46,44,45,28)        140.7721         estimate D2E/DX2                !
 ! D329  D(46,44,45,48)         -2.2323         estimate D2E/DX2                !
 ! D330  D(26,44,46,43)          1.3302         estimate D2E/DX2                !
 ! D331  D(26,44,46,61)        139.6224         estimate D2E/DX2                !
 ! D332  D(45,44,46,43)       -134.246          estimate D2E/DX2                !
 ! D333  D(45,44,46,61)          4.0462         estimate D2E/DX2                !
 ! D334  D(28,45,48,47)         -2.3485         estimate D2E/DX2                !
 ! D335  D(28,45,48,62)       -141.0026         estimate D2E/DX2                !
 ! D336  D(44,45,48,47)        136.5671         estimate D2E/DX2                !
 ! D337  D(44,45,48,62)         -2.0871         estimate D2E/DX2                !
 ! D338  D(43,46,61,62)        140.5168         estimate D2E/DX2                !
 ! D339  D(43,46,61,65)         -1.2267         estimate D2E/DX2                !
 ! D340  D(44,46,61,62)         -1.6106         estimate D2E/DX2                !
 ! D341  D(44,46,61,65)       -143.3542         estimate D2E/DX2                !
 ! D342  D(30,47,48,45)         -1.6859         estimate D2E/DX2                !
 ! D343  D(30,47,48,62)        140.5838         estimate D2E/DX2                !
 ! D344  D(50,47,48,45)       -148.1311         estimate D2E/DX2                !
 ! D345  D(50,47,48,62)         -5.8614         estimate D2E/DX2                !
 ! D346  D(30,47,50,49)          2.7123         estimate D2E/DX2                !
 ! D347  D(30,47,50,63)       -140.703          estimate D2E/DX2                !
 ! D348  D(48,47,50,49)        149.3644         estimate D2E/DX2                !
 ! D349  D(48,47,50,63)          5.9491         estimate D2E/DX2                !
 ! D350  D(45,48,62,61)          4.5275         estimate D2E/DX2                !
 ! D351  D(45,48,62,63)        146.2762         estimate D2E/DX2                !
 ! D352  D(47,48,62,61)       -138.2785         estimate D2E/DX2                !
 ! D353  D(47,48,62,63)          3.4702         estimate D2E/DX2                !
 ! D354  D(31,49,50,47)          3.0924         estimate D2E/DX2                !
 ! D355  D(31,49,50,63)        141.6355         estimate D2E/DX2                !
 ! D356  D(54,49,50,47)       -135.9783         estimate D2E/DX2                !
 ! D357  D(54,49,50,63)          2.5648         estimate D2E/DX2                !
 ! D358  D(31,49,54,51)          1.2508         estimate D2E/DX2                !
 ! D359  D(31,49,54,56)       -141.4982         estimate D2E/DX2                !
 ! D360  D(50,49,54,51)        144.6634         estimate D2E/DX2                !
 ! D361  D(50,49,54,56)          1.9143         estimate D2E/DX2                !
 ! D362  D(47,50,63,62)         -3.8713         estimate D2E/DX2                !
 ! D363  D(47,50,63,64)        137.4621         estimate D2E/DX2                !
 ! D364  D(49,50,63,62)       -145.9866         estimate D2E/DX2                !
 ! D365  D(49,50,63,64)         -4.6532         estimate D2E/DX2                !
 ! D366  D(34,51,52,36)         -0.589          estimate D2E/DX2                !
 ! D367  D(34,51,52,53)       -137.9696         estimate D2E/DX2                !
 ! D368  D(54,51,52,36)        137.6334         estimate D2E/DX2                !
 ! D369  D(54,51,52,53)          0.2528         estimate D2E/DX2                !
 ! D370  D(34,51,54,49)          4.2108         estimate D2E/DX2                !
 ! D371  D(34,51,54,56)        146.5463         estimate D2E/DX2                !
 ! D372  D(52,51,54,49)       -138.8508         estimate D2E/DX2                !
 ! D373  D(52,51,54,56)          3.4846         estimate D2E/DX2                !
 ! D374  D(36,52,53,37)         -1.7276         estimate D2E/DX2                !
 ! D375  D(36,52,53,55)       -145.9468         estimate D2E/DX2                !
 ! D376  D(51,52,53,37)        140.096          estimate D2E/DX2                !
 ! D377  D(51,52,53,55)         -4.1232         estimate D2E/DX2                !
 ! D378  D(37,53,55,56)       -135.5842         estimate D2E/DX2                !
 ! D379  D(37,53,55,60)          2.3959         estimate D2E/DX2                !
 ! D380  D(52,53,55,56)          4.2801         estimate D2E/DX2                !
 ! D381  D(52,53,55,60)        142.2603         estimate D2E/DX2                !
 ! D382  D(49,54,56,55)        134.8246         estimate D2E/DX2                !
 ! D383  D(49,54,56,64)         -4.3529         estimate D2E/DX2                !
 ! D384  D(51,54,56,55)         -3.3317         estimate D2E/DX2                !
 ! D385  D(51,54,56,64)       -142.5092         estimate D2E/DX2                !
 ! D386  D(53,55,56,54)         -0.6158         estimate D2E/DX2                !
 ! D387  D(53,55,56,64)        143.277          estimate D2E/DX2                !
 ! D388  D(60,55,56,54)       -142.4852         estimate D2E/DX2                !
 ! D389  D(60,55,56,64)          1.4076         estimate D2E/DX2                !
 ! D390  D(53,55,60,57)         -1.205          estimate D2E/DX2                !
 ! D391  D(53,55,60,66)       -145.0347         estimate D2E/DX2                !
 ! D392  D(56,55,60,57)        141.1737         estimate D2E/DX2                !
 ! D393  D(56,55,60,66)         -2.656          estimate D2E/DX2                !
 ! D394  D(54,56,64,63)          2.2808         estimate D2E/DX2                !
 ! D395  D(54,56,64,66)        143.9315         estimate D2E/DX2                !
 ! D396  D(55,56,64,63)       -141.2692         estimate D2E/DX2                !
 ! D397  D(55,56,64,66)          0.3814         estimate D2E/DX2                !
 ! D398  D(39,57,58,42)          0.1112         estimate D2E/DX2                !
 ! D399  D(39,57,58,59)       -143.1835         estimate D2E/DX2                !
 ! D400  D(60,57,58,42)        142.7305         estimate D2E/DX2                !
 ! D401  D(60,57,58,59)         -0.5643         estimate D2E/DX2                !
 ! D402  D(39,57,60,55)         -2.7403         estimate D2E/DX2                !
 ! D403  D(39,57,60,66)        136.4628         estimate D2E/DX2                !
 ! D404  D(58,57,60,55)       -140.7477         estimate D2E/DX2                !
 ! D405  D(58,57,60,66)         -1.5446         estimate D2E/DX2                !
 ! D406  D(42,58,59,43)          1.9035         estimate D2E/DX2                !
 ! D407  D(42,58,59,65)       -136.4413         estimate D2E/DX2                !
 ! D408  D(57,58,59,43)        140.7522         estimate D2E/DX2                !
 ! D409  D(57,58,59,65)          2.4074         estimate D2E/DX2                !
 ! D410  D(43,59,65,61)         -2.6859         estimate D2E/DX2                !
 ! D411  D(43,59,65,66)       -144.361          estimate D2E/DX2                !
 ! D412  D(58,59,65,61)        139.513          estimate D2E/DX2                !
 ! D413  D(58,59,65,66)         -2.1621         estimate D2E/DX2                !
 ! D414  D(55,60,66,64)          2.8786         estimate D2E/DX2                !
 ! D415  D(55,60,66,65)        145.2981         estimate D2E/DX2                !
 ! D416  D(57,60,66,64)       -140.6334         estimate D2E/DX2                !
 ! D417  D(57,60,66,65)          1.7861         estimate D2E/DX2                !
 ! D418  D(46,61,62,48)         -2.7296         estimate D2E/DX2                !
 ! D419  D(46,61,62,63)       -139.2342         estimate D2E/DX2                !
 ! D420  D(65,61,62,48)        134.1891         estimate D2E/DX2                !
 ! D421  D(65,61,62,63)         -2.3155         estimate D2E/DX2                !
 ! D422  D(46,61,65,59)          2.3829         estimate D2E/DX2                !
 ! D423  D(46,61,65,66)        144.1936         estimate D2E/DX2                !
 ! D424  D(62,61,65,59)       -139.7725         estimate D2E/DX2                !
 ! D425  D(62,61,65,66)          2.0382         estimate D2E/DX2                !
 ! D426  D(48,62,63,50)          0.2286         estimate D2E/DX2                !
 ! D427  D(48,62,63,64)       -141.1086         estimate D2E/DX2                !
 ! D428  D(61,62,63,50)        141.5472         estimate D2E/DX2                !
 ! D429  D(61,62,63,64)          0.2101         estimate D2E/DX2                !
 ! D430  D(50,63,64,56)          2.1845         estimate D2E/DX2                !
 ! D431  D(50,63,64,66)       -134.8065         estimate D2E/DX2                !
 ! D432  D(62,63,64,56)        139.1358         estimate D2E/DX2                !
 ! D433  D(62,63,64,66)          2.1448         estimate D2E/DX2                !
 ! D434  D(56,64,66,60)         -2.0096         estimate D2E/DX2                !
 ! D435  D(56,64,66,65)       -143.8665         estimate D2E/DX2                !
 ! D436  D(63,64,66,60)        139.4371         estimate D2E/DX2                !
 ! D437  D(63,64,66,65)         -2.4199         estimate D2E/DX2                !
[...]
 
              Baa    -0.0111    -1.485    -0.530    -0.495  0.5061  0.6265  0.5927
    12 C(13)  Bbb     0.0036     0.482     0.172     0.161 -0.2630  0.7667 -0.5857
              Bcc     0.0075     1.003     0.358     0.335  0.8214 -0.1405 -0.5528
 
              Baa    -0.0038    -0.515    -0.184    -0.172 -0.5930  0.7635  0.2559
    13 C(13)  Bbb    -0.0035    -0.471    -0.168    -0.157 -0.4653 -0.5842  0.6650
              Bcc     0.0073     0.986     0.352     0.329  0.6572  0.2752  0.7017
 
              Baa    -0.0036    -0.479    -0.171    -0.160 -0.6118 -0.0482  0.7896
    14 C(13)  Bbb    -0.0027    -0.366    -0.131    -0.122  0.6537 -0.5928  0.4703
              Bcc     0.0063     0.845     0.301     0.282  0.4454  0.8039  0.3942
 
              Baa    -0.0468    -6.281    -2.241    -2.095  0.5505  0.6096 -0.5703
    15 C(13)  Bbb     0.0211     2.833     1.011     0.945 -0.2649  0.7755  0.5731
              Bcc     0.0257     3.448     1.230     1.150  0.7917 -0.1644  0.5884
 
              Baa    -0.0015    -0.204    -0.073    -0.068 -0.0975 -0.4738  0.8752
    16 C(13)  Bbb    -0.0006    -0.083    -0.030    -0.028 -0.5960  0.7321  0.3299
              Bcc     0.0021     0.287     0.102     0.096  0.7970  0.4895  0.3538
 
              Baa    -0.0508    -6.822    -2.434    -2.276 -0.3090 -0.0232  0.9508
    17 C(13)  Bbb     0.0201     2.698     0.963     0.900 -0.4043  0.9081 -0.1093
              Bcc     0.0307     4.124     1.472     1.376  0.8608  0.4182  0.2900
 
              Baa    -0.0389    -5.215    -1.861    -1.740 -0.4009  0.8983  0.1796
    18 C(13)  Bbb    -0.0380    -5.101    -1.820    -1.702  0.8052  0.2520  0.5368
              Bcc     0.0769    10.317     3.681     3.441 -0.4370 -0.3599  0.8244
 
              Baa    -0.1115   -14.965    -5.340    -4.992 -0.0639  0.9807 -0.1848
    19 C(13)  Bbb    -0.1076   -14.443    -5.153    -4.818  0.9912  0.0838  0.1020
              Bcc     0.2191    29.407    10.493     9.809 -0.1155  0.1766  0.9775
 
              Baa    -0.0384    -5.152    -1.838    -1.719  0.6580 -0.4847  0.5763
    20 C(13)  Bbb    -0.0366    -4.909    -1.752    -1.638  0.7312  0.5943 -0.3349
              Bcc     0.0750    10.062     3.590     3.356 -0.1802  0.6418  0.7454
 
              Baa    -0.0880   -11.809    -4.214    -3.939 -0.0660  0.4269  0.9019
    21 C(13)  Bbb     0.0371     4.974     1.775     1.659 -0.5318  0.7497 -0.3938
              Bcc     0.0509     6.836     2.439     2.280  0.8443  0.5056 -0.1776
 
              Baa    -0.0061    -0.812    -0.290    -0.271 -0.0077  0.9505  0.3105
    22 C(13)  Bbb    -0.0023    -0.305    -0.109    -0.102  0.7051  0.2254 -0.6724
              Bcc     0.0083     1.117     0.399     0.373  0.7091 -0.2137  0.6719
 
              Baa    -0.0064    -0.855    -0.305    -0.285  0.2447  0.7713  0.5876
    23 C(13)  Bbb    -0.0002    -0.034    -0.012    -0.011 -0.3725 -0.4847  0.7914
              Bcc     0.0066     0.889     0.317     0.296  0.8952 -0.4125  0.1687
 
              Baa    -0.0164    -2.203    -0.786    -0.735  0.9628  0.1827 -0.1991
    24 C(13)  Bbb    -0.0144    -1.934    -0.690    -0.645  0.1149  0.3900  0.9136
              Bcc     0.0308     4.137     1.476     1.380 -0.2446  0.9025 -0.3545
 
              Baa    -0.0013    -0.179    -0.064    -0.060  0.7425 -0.4803  0.4669
    25 C(13)  Bbb     0.0002     0.020     0.007     0.007  0.6420  0.7092 -0.2914
              Bcc     0.0012     0.159     0.057     0.053 -0.1911  0.5161  0.8349
 
              Baa    -0.0172    -2.306    -0.823    -0.769 -0.2385  0.7362 -0.6333
    26 C(13)  Bbb     0.0075     1.008     0.360     0.336  0.9164  0.3865  0.1041
              Bcc     0.0097     1.298     0.463     0.433 -0.3214  0.5556  0.7668
 
              Baa    -0.0063    -0.850    -0.303    -0.284  0.3575  0.3515  0.8653
    27 C(13)  Bbb     0.0027     0.362     0.129     0.121  0.6169  0.6067 -0.5013
              Bcc     0.0036     0.488     0.174     0.163 -0.7012  0.7130  0.0001
 
              Baa    -0.0056    -0.746    -0.266    -0.249  0.9148 -0.0655 -0.3985
    28 C(13)  Bbb    -0.0050    -0.667    -0.238    -0.222  0.0569  0.9978 -0.0335
              Bcc     0.0105     1.413     0.504     0.471  0.3998  0.0079  0.9166
 
              Baa    -0.0111    -1.496    -0.534    -0.499  0.2293  0.8094  0.5407
    29 C(13)  Bbb     0.0048     0.649     0.231     0.216  0.8793  0.0660 -0.4718
              Bcc     0.0063     0.847     0.302     0.282  0.4175 -0.5836  0.6965
 
              Baa    -0.0183    -2.451    -0.874    -0.817  0.8667  0.1640 -0.4711
    30 C(13)  Bbb    -0.0176    -2.365    -0.844    -0.789 -0.4013  0.7901 -0.4633
              Bcc     0.0359     4.815     1.718     1.606  0.2963  0.5906  0.7506
 
              Baa    -0.0191    -2.557    -0.912    -0.853  0.9736 -0.1684  0.1542
    31 C(13)  Bbb    -0.0185    -2.485    -0.887    -0.829 -0.2125 -0.4218  0.8814
              Bcc     0.0376     5.042     1.799     1.682  0.0834  0.8909  0.4465
 
              Baa    -0.0148    -1.987    -0.709    -0.663  0.9724 -0.1986 -0.1225
    32 C(13)  Bbb    -0.0132    -1.769    -0.631    -0.590  0.1881  0.3564  0.9152
              Bcc     0.0280     3.756     1.340     1.253  0.1381  0.9130 -0.3839
 
              Baa    -0.0097    -1.301    -0.464    -0.434 -0.1633 -0.5950  0.7869
    33 C(13)  Bbb     0.0044     0.597     0.213     0.199  0.6604  0.5267  0.5353
              Bcc     0.0052     0.704     0.251     0.235  0.7330 -0.6071 -0.3069
 
              Baa    -0.0062    -0.826    -0.295    -0.275 -0.0458  0.9919 -0.1188
    34 C(13)  Bbb     0.0022     0.294     0.105     0.098  0.9404  0.0830  0.3299
              Bcc     0.0040     0.532     0.190     0.178 -0.3370  0.0966  0.9365
 
              Baa    -0.0085    -1.140    -0.407    -0.380  0.3330  0.3797  0.8631
    35 C(13)  Bbb     0.0026     0.352     0.126     0.118  0.7809 -0.6240 -0.0268
              Bcc     0.0059     0.787     0.281     0.263  0.5284  0.6829 -0.5044
 
              Baa    -0.0067    -0.896    -0.320    -0.299  0.9807 -0.1866 -0.0584
    36 C(13)  Bbb     0.0019     0.259     0.092     0.086  0.1925  0.8705  0.4530
              Bcc     0.0047     0.637     0.227     0.213 -0.0337 -0.4555  0.8896
 
              Baa    -0.1043   -13.990    -4.992    -4.667  0.4425  0.8794 -0.1758
    37 C(13)  Bbb    -0.0991   -13.302    -4.746    -4.437  0.7838 -0.4745 -0.4006
              Bcc     0.2034    27.292     9.738     9.104  0.4357 -0.0395  0.8992
 
              Baa    -0.2603   -34.930   -12.464   -11.651  0.9789  0.1212 -0.1647
    38 C(13)  Bbb    -0.2526   -33.900   -12.096   -11.308 -0.1886  0.8461 -0.4986
              Bcc     0.5129    68.830    24.560    22.959  0.0789  0.5191  0.8510
 
              Baa    -0.0872   -11.708    -4.178    -3.905  0.4075  0.3500  0.8434
    39 C(13)  Bbb     0.0324     4.350     1.552     1.451  0.7056  0.4656 -0.5342
              Bcc     0.0548     7.358     2.625     2.454 -0.5797  0.8128 -0.0572
 
              Baa    -0.1122   -15.052    -5.371    -5.021  0.9084 -0.2311  0.3485
    40 C(13)  Bbb    -0.1074   -14.408    -5.141    -4.806 -0.3995 -0.2334  0.8865
              Bcc     0.2195    29.460    10.512     9.827  0.1236  0.9445  0.3043
 
              Baa    -0.0477    -6.400    -2.284    -2.135  0.1441  0.9886 -0.0444
    41 C(13)  Bbb     0.0190     2.545     0.908     0.849  0.9172 -0.1166  0.3809
              Bcc     0.0287     3.854     1.375     1.286 -0.3714  0.0956  0.9235
 
              Baa    -0.0935   -12.541    -4.475    -4.183  0.2781  0.7559  0.5927
    42 C(13)  Bbb     0.0353     4.742     1.692     1.582  0.9601 -0.2382 -0.1467
              Bcc     0.0581     7.798     2.783     2.601 -0.0302 -0.6098  0.7920
 
              Baa    -0.0566    -7.598    -2.711    -2.535  0.9113 -0.4062  0.0676
    43 C(13)  Bbb    -0.0534    -7.172    -2.559    -2.392  0.0727  0.3202  0.9446
              Bcc     0.1101    14.770     5.270     4.927  0.4053  0.8559 -0.3213
 
              Baa    -0.0229    -3.079    -1.099    -1.027  0.9922 -0.1222 -0.0246
    44 C(13)  Bbb    -0.0214    -2.873    -1.025    -0.958  0.1180  0.8562  0.5030
              Bcc     0.0444     5.953     2.124     1.986 -0.0404 -0.5019  0.8640
 
              Baa    -0.0133    -1.791    -0.639    -0.597  0.0310 -0.1194  0.9924
    45 C(13)  Bbb     0.0059     0.789     0.282     0.263  0.9995  0.0009 -0.0311
              Bcc     0.0075     1.002     0.357     0.334  0.0029  0.9928  0.1194
 
              Baa    -0.0223    -2.991    -1.067    -0.998 -0.3724 -0.6502  0.6623
    46 C(13)  Bbb     0.0090     1.205     0.430     0.402  0.8617 -0.5072 -0.0134
              Bcc     0.0133     1.786     0.637     0.596  0.3446  0.5657  0.7492
 
              Baa    -0.0140    -1.882    -0.672    -0.628  0.0967  0.5292  0.8429
    47 C(13)  Bbb     0.0064     0.855     0.305     0.285 -0.5311  0.7437 -0.4060
              Bcc     0.0077     1.028     0.367     0.343  0.8418  0.4084 -0.3530
 
              Baa    -0.0120    -1.605    -0.573    -0.535  0.8809 -0.4101  0.2362
    48 C(13)  Bbb    -0.0113    -1.515    -0.540    -0.505  0.4435  0.8895 -0.1096
              Bcc     0.0232     3.120     1.113     1.041 -0.1652  0.2013  0.9655
 
              Baa    -0.0125    -1.675    -0.598    -0.559 -0.3143  0.8733  0.3723
    49 C(13)  Bbb     0.0058     0.778     0.278     0.260 -0.4261 -0.4802  0.7667
              Bcc     0.0067     0.897     0.320     0.299  0.8483  0.0823  0.5231
 
              Baa    -0.0065    -0.872    -0.311    -0.291  0.8306 -0.2439  0.5005
    50 C(13)  Bbb    -0.0064    -0.863    -0.308    -0.288  0.4822  0.7646 -0.4276
              Bcc     0.0129     1.735     0.619     0.579 -0.2784  0.5965  0.7528
 
              Baa    -0.0088    -1.183    -0.422    -0.395 -0.4279  0.7494 -0.5052
    51 C(13)  Bbb     0.0020     0.262     0.093     0.087  0.8979  0.4163 -0.1429
              Bcc     0.0069     0.921     0.329     0.307 -0.1033  0.5148  0.8511
 
              Baa    -0.0219    -2.945    -1.051    -0.982  0.9112  0.3889 -0.1357
    52 C(13)  Bbb    -0.0187    -2.506    -0.894    -0.836 -0.1697  0.6546  0.7367
              Bcc     0.0406     5.451     1.945     1.818  0.3753 -0.6483  0.6625
 
              Baa    -0.0372    -4.997    -1.783    -1.667  0.6439 -0.2978  0.7048
    53 C(13)  Bbb     0.0138     1.858     0.663     0.620  0.5607  0.8104 -0.1698
              Bcc     0.0234     3.139     1.120     1.047 -0.5206  0.5045  0.6888
 
              Baa    -0.0246    -3.302    -1.178    -1.101  0.7135  0.5467 -0.4383
    54 C(13)  Bbb    -0.0236    -3.161    -1.128    -1.054  0.4221  0.1639  0.8916
              Bcc     0.0482     6.463     2.306     2.156 -0.5593  0.8211  0.1139
 
              Baa    -0.0394    -5.287    -1.886    -1.763  0.4711  0.6978 -0.5396
    55 C(13)  Bbb    -0.0370    -4.959    -1.770    -1.654 -0.0406  0.6282  0.7770
              Bcc     0.0764    10.246     3.656     3.418  0.8812 -0.3441  0.3242
 
              Baa    -0.0108    -1.453    -0.519    -0.485  0.7350 -0.6755  0.0590
    56 C(13)  Bbb     0.0039     0.529     0.189     0.176 -0.4125 -0.3763  0.8296
              Bcc     0.0069     0.924     0.330     0.308  0.5382  0.6341  0.5553
 
              Baa    -0.0230    -3.085    -1.101    -1.029 -0.3452 -0.3500  0.8708
    57 C(13)  Bbb    -0.0217    -2.907    -1.037    -0.970 -0.3783  0.9011  0.2122
              Bcc     0.0447     5.992     2.138     1.999  0.8589  0.2561  0.4435
 
              Baa    -0.0264    -3.536    -1.262    -1.180  0.6876 -0.6008 -0.4078
    58 C(13)  Bbb    -0.0242    -3.243    -1.157    -1.082  0.1691 -0.4137  0.8946
              Bcc     0.0505     6.780     2.419     2.262  0.7062  0.6840  0.1828
 
              Baa    -0.0255    -3.426    -1.223    -1.143  0.5883  0.8075 -0.0430
    59 C(13)  Bbb     0.0114     1.529     0.545     0.510 -0.5165  0.4161  0.7484
              Bcc     0.0141     1.898     0.677     0.633  0.6223 -0.4181  0.6618
 
              Baa    -0.0230    -3.092    -1.103    -1.031  0.9057  0.0146  0.4236
    60 C(13)  Bbb     0.0107     1.439     0.514     0.480 -0.4238  0.0382  0.9049
              Bcc     0.0123     1.653     0.590     0.551  0.0030  0.9992 -0.0408
 
              Baa    -0.0103    -1.386    -0.495    -0.462  0.7527 -0.3844  0.5346
    61 C(13)  Bbb    -0.0099    -1.334    -0.476    -0.445  0.1422  0.8876  0.4380
              Bcc     0.0203     2.720     0.970     0.907 -0.6429 -0.2536  0.7228
 
              Baa    -0.0128    -1.719    -0.613    -0.573 -0.5213 -0.0192  0.8532
    62 C(13)  Bbb     0.0060     0.801     0.286     0.267  0.6755 -0.6202  0.3988
              Bcc     0.0068     0.918     0.327     0.306  0.5215  0.7842  0.3362
 
              Baa    -0.0057    -0.763    -0.272    -0.254  0.6729 -0.4929 -0.5515
    63 C(13)  Bbb     0.0027     0.368     0.131     0.123  0.6885  0.1448  0.7106
              Bcc     0.0029     0.395     0.141     0.132  0.2704  0.8579 -0.4369
 
              Baa    -0.0026    -0.347    -0.124    -0.116  0.6318  0.3130  0.7092
    64 C(13)  Bbb    -0.0022    -0.289    -0.103    -0.097  0.0599  0.8924 -0.4472
              Bcc     0.0047     0.636     0.227     0.212  0.7728 -0.3250 -0.5451
 
              Baa    -0.0055    -0.744    -0.266    -0.248  0.7559  0.5859 -0.2922
    65 C(13)  Bbb     0.0024     0.324     0.116     0.108 -0.3172  0.7181  0.6194
              Bcc     0.0031     0.420     0.150     0.140  0.5728 -0.3755  0.7286
 
              Baa    -0.0050    -0.669    -0.239    -0.223  0.9916  0.0865  0.0956
    66 C(13)  Bbb     0.0024     0.321     0.114     0.107  0.0027  0.7274 -0.6862
              Bcc     0.0026     0.348     0.124     0.116 -0.1289  0.6808  0.7211
 
              Baa    -0.0289    -1.514    -0.540    -0.505  0.8615 -0.5023  0.0743
    67 Cl(35) Bbb     0.0137     0.716     0.256     0.239 -0.2802 -0.3483  0.8945
              Bcc     0.0152     0.797     0.285     0.266  0.4235  0.7914  0.4408
 
              Baa    -0.0046    -0.240    -0.086    -0.080  0.9704  0.2188  0.1024
    68 Cl(35) Bbb     0.0007     0.036     0.013     0.012 -0.1519  0.2232  0.9629
              Bcc     0.0039     0.204     0.073     0.068 -0.1879  0.9499 -0.2498
 
              Baa    -0.0228    -1.196    -0.427    -0.399 -0.5658 -0.1950  0.8011
    69 Cl(35) Bbb    -0.0191    -1.001    -0.357    -0.334 -0.4681  0.8759 -0.1173
              Bcc     0.0420     2.197     0.784     0.733  0.6788  0.4414  0.5869
 
              Baa    -0.0163    -0.854    -0.305    -0.285 -0.0754  0.9020  0.4251
    70 Cl(35) Bbb     0.0046     0.241     0.086     0.080  0.4578 -0.3474  0.8184
              Bcc     0.0117     0.614     0.219     0.205  0.8859  0.2563 -0.3867
 
              Baa    -0.0204    -1.066    -0.380    -0.356 -0.6732  0.6793 -0.2923
    71 Cl(35) Bbb     0.0081     0.426     0.152     0.142  0.7394  0.6254 -0.2495
              Bcc     0.0122     0.640     0.228     0.213 -0.0133  0.3841  0.9232
 
              Baa    -0.0952    -4.984    -1.778    -1.663  0.6714  0.1358  0.7285
    72 Cl(35) Bbb    -0.0799    -4.182    -1.492    -1.395  0.5127  0.6247 -0.5890
              Bcc     0.1751     9.167     3.271     3.058 -0.5351  0.7690  0.3498
 
              Baa    -0.2054   -10.749    -3.836    -3.586  0.1404  0.9614  0.2365
    73 Cl(35) Bbb    -0.1898    -9.934    -3.545    -3.314  0.9900 -0.1338 -0.0437
              Bcc     0.3952    20.683     7.380     6.899  0.0103 -0.2403  0.9707
 

 ---------------------------------------------------------------------------------

 No NMR shielding tensors so no spin-rotation constants.
 Leave Link  601 at Sat Jul 16 05:06:17 2022, MaxMem=  1342177280 cpu:             110.8 elap:               2.6
 (Enter /home/mkliu/g16/l9999.exe)
 1\1\GINC-NODE01\FOpt\UB3LYP\6-311G(d,p)\C66Cl7(2)\MKLIU\16-Jul-2022\0\
 \#P opt b3lyp/6-311G(d, p) empiricaldispersion=GD3\\force\\0,2\C,-1.33
 21221969,1.8927137597,-3.9934742878\C,0.2045312867,2.2484246832,-3.987
 1267405\C,0.9820469747,0.8727928461,-4.3265916525\C,-1.2878187627,0.41
 18071181,-3.8841396084\C,-0.0819259827,-0.1652348352,-4.1769976235\C,-
 2.1584969163,-0.1183081837,-2.92624349\C,-2.2171071873,2.3028623169,-2
 .7051539908\C,-2.7005842175,0.9366270901,-2.1585038414\C,-1.465718575,
 2.9656696806,-1.5520814037\C,0.7180706687,2.5615693598,-2.6203492629\C
 ,-0.0376510054,3.1815152077,-1.5990027746\C,1.9241708587,0.6703985854,
 -3.1394763476\C,1.8678187085,1.8338902919,-2.3042564569\C,2.2668804224
 ,-0.5414863112,-2.5985292883\C,0.1927558696,-1.4220356069,-3.644273852
 4\C,1.6016852571,-1.8016227621,-3.1876555017\C,-1.9352279931,-1.410091
 4907,-2.3875678303\C,-0.7669887379,-2.0896919087,-2.8823916486\C,-2.45
 16902187,-1.6945884025,-1.0888411757\C,-3.0923795836,0.7079480325,-0.8
 621245799\C,-3.0287262685,-0.6403454384,-0.3187547212\C,-2.0808843666,
 2.9245809803,-0.3188613256\C,-3.2037077377,1.9313598825,0.0380582851\C
 ,-1.3819736148,3.2621020231,0.8819213468\C,0.6615793232,3.4283535649,-
 0.3957017175\C,-0.0269409813,3.571758963,0.8524159723\C,2.4467505575,1
 .8520179581,-1.0074780439\C,1.9361981839,2.8220154028,-0.1242767907\C,
 2.903033966,-0.5902036053,-1.2729612845\C,3.059800877,0.6409582742,-0.
 5006871098\C,2.9414927859,-1.8135918123,-0.573036086\C,1.2987778438,-2
 .8208084077,-2.1119036499\C,-0.1051029028,-3.0609142543,-2.0335217604\
 C,2.0540949271,-2.9183384356,-0.9755996921\C,-2.0782571669,-3.02756671
 71,-0.4494515685\C,-0.6969446684,-3.4997690516,-0.87630036\C,-1.918581
 7047,-2.9421761104,1.0500224099\C,-3.142114262,-0.8061610827,1.1118242
 582\C,-2.5066538769,-1.9265781957,1.7700267986\C,-2.8967571513,1.61861
 89814,1.4823058212\C,-1.9154730464,2.5110873978,1.997633306\C,-2.99529
 90456,0.3397959772,1.984025625\C,-1.0884718019,2.1352650221,3.06210547
 7\C,0.8426125076,3.1302528646,1.9210609826\C,2.065603542,2.6694243521,
 1.3008444977\C,0.3259251286,2.4459937675,3.0163227063\C,3.2690141181,0
 .5628295287,0.9017514858\C,2.7393277892,1.5719593622,1.8035759678\C,3.
 0305692298,-1.8548240013,0.8551937684\C,3.2228329064,-0.6886942866,1.5
 874421564\C,1.488274852,-3.4854630591,0.2161350397\C,0.1124288483,-3.7
 612425867,0.2606025574\C,-0.6479315909,-3.4583058742,1.453890024\C,2.1
 246358423,-2.8759814951,1.3582340189\C,-0.0025549036,-2.9617849436,2.5
 904987168\C,1.4141373894,-2.6564048497,2.5332593761\C,-1.8877483575,-1
 .4536476036,2.9930431168\C,-2.189161469,-0.0503643748,3.1260771407\C,-
 1.240344503,0.8260768989,3.649237745\C,-0.6460638841,-1.948948732,3.38
 80055982\C,1.0504106924,1.3222398981,3.5771643498\C,2.2539541299,0.908
 9298028,2.9970298789\C,2.551169928,-0.4972693344,2.8625745097\C,1.6412
 215545,-1.450659702,3.3132254256\C,0.0811622826,0.3293620504,3.9969328
 75\C,0.3720413201,-1.0268682484,3.8669836627\Cl,-2.1072176683,2.295426
 8409,-5.5814148677\Cl,0.6472482494,3.6654749179,-5.0197570532\Cl,1.859
 5079996,0.8202200685,-5.9023022441\Cl,2.6333850225,-2.5479087827,-4.52
 26244313\Cl,-3.6058214869,3.3989192028,-3.1402307312\Cl,-4.9136172104,
 2.6518638943,-0.0356228327\Cl,-3.3989726282,-4.2874304378,-0.901564503
 8\\Version=ES64L-G16RevA.03\State=2-A\HF=-5736.9883633\S2=0.785014\S2-
 1=0.\S2A=0.751169\RMSD=5.813e-09\RMSF=5.927e-05\Dipole=0.9019815,0.055
 1011,1.7024087\Quadrupole=-1.4158262,0.0261539,1.3896723,1.564385,3.59
 20448,1.2043585\PG=C01 [X(C66Cl7)]\\@


 THEREFORE SHALL EVIL COME UPON THEE...
 THOU SHALT NOT KNOW FROM WHENCE IT RISETH...
 AND MISCHIEF SHALL FALL UPON THEE...
 THOU SHALT NOT BE ABLE TO PUT IT OFF...
 AND DESOLATION SHALL COME UPON THEE SUDDENLY...
 WHICH THOU SHALT NOT KNOW...

                                         ISAIAH 47.11
 Job cpu time:       4 days  5 hours 26 minutes  2.6 seconds.
 Elapsed time:       0 days  2 hours  7 minutes  1.1 seconds.
 File lengths (MBytes):  RWF=   2038 Int=      0 D2E=      0 Chk=    183 Scr=      1
 Normal termination of Gaussian 16 at Sat Jul 16 05:06:17 2022.
