 Entering Gaussian System, Link 0=g16
 Input=dqwuc3nfobe2o_addon_7.gjf
 Output=dqwuc3nfobe2o_addon_7.log
 Initial command:
 /home/mkliu/g16/l1.exe "/data/scratch/Gau-62352.inp" -scrdir="/data/scratch/"
 Entering Link 1 = /home/mkliu/g16/l1.exe PID=     62353.
  
 Copyright (c) 1988,1990,1992,1993,1995,1998,2003,2009,2016,
            Gaussian, Inc.  All Rights Reserved.
  
 This is part of the Gaussian(R) 16 program.  It is based on
 the Gaussian(R) 09 system (copyright 2009, Gaussian, Inc.),
 the Gaussian(R) 03 system (copyright 2003, Gaussian, Inc.),
 the Gaussian(R) 98 system (copyright 1998, Gaussian, Inc.),
 the Gaussian(R) 94 system (copyright 1995, Gaussian, Inc.),
 the Gaussian 92(TM) system (copyright 1992, Gaussian, Inc.),
 the Gaussian 90(TM) system (copyright 1990, Gaussian, Inc.),
 the Gaussian 88(TM) system (copyright 1988, Gaussian, Inc.),
 the Gaussian 86(TM) system (copyright 1986, Carnegie Mellon
 University), and the Gaussian 82(TM) system (copyright 1983,
 Carnegie Mellon University). Gaussian is a federally registered
 trademark of Gaussian, Inc.
  
 This software contains proprietary and confidential information,
 including trade secrets, belonging to Gaussian, Inc.
  
 This software is provided under written license and may be
 used, copied, transmitted, or stored only in accord with that
 written license.
  
 The following legend is applicable only to US Government
 contracts under FAR:
  
                    RESTRICTED RIGHTS LEGEND
  
 Use, reproduction and disclosure by the US Government is
 subject to restrictions as set forth in subparagraphs (a)
 and (c) of the Commercial Computer Software - Restricted
 Rights clause in FAR 52.227-19.
  
 Gaussian, Inc.
 340 Quinnipiac St., Bldg. 40, Wallingford CT 06492
  
  
 ---------------------------------------------------------------
 Warning -- This program may not be used in any manner that
 competes with the business of Gaussian, Inc. or will provide
 assistance to any competitor of Gaussian, Inc.  The licensee
 of this program is prohibited from giving any competitor of
 Gaussian, Inc. access to this program.  By using this program,
 the user acknowledges that Gaussian, Inc. is engaged in the
 business of creating and licensing software in the field of
 computational chemistry and represents and warrants to the
 licensee that it is not a competitor of Gaussian, Inc. and that
 it will not use this program in any manner prohibited above.
 ---------------------------------------------------------------
  

 Cite this work as:
 Gaussian 16, Revision A.03,
 M. J. Frisch, G. W. Trucks, H. B. Schlegel, G. E. Scuseria, 
 M. A. Robb, J. R. Cheeseman, G. Scalmani, V. Barone, 
 G. A. Petersson, H. Nakatsuji, X. Li, M. Caricato, A. V. Marenich, 
 J. Bloino, B. G. Janesko, R. Gomperts, B. Mennucci, H. P. Hratchian, 
 J. V. Ortiz, A. F. Izmaylov, J. L. Sonnenberg, D. Williams-Young, 
 F. Ding, F. Lipparini, F. Egidi, J. Goings, B. Peng, A. Petrone, 
 T. Henderson, D. Ranasinghe, V. G. Zakrzewski, J. Gao, N. Rega, 
 G. Zheng, W. Liang, M. Hada, M. Ehara, K. Toyota, R. Fukuda, 
 J. Hasegawa, M. Ishida, T. Nakajima, Y. Honda, O. Kitao, H. Nakai, 
 T. Vreven, K. Throssell, J. A. Montgomery, Jr., J. E. Peralta, 
 F. Ogliaro, M. J. Bearpark, J. J. Heyd, E. N. Brothers, K. N. Kudin, 
 V. N. Staroverov, T. A. Keith, R. Kobayashi, J. Normand, 
 K. Raghavachari, A. P. Rendell, J. C. Burant, S. S. Iyengar, 
 J. Tomasi, M. Cossi, J. M. Millam, M. Klene, C. Adamo, R. Cammi, 
 J. W. Ochterski, R. L. Martin, K. Morokuma, O. Farkas, 
 J. B. Foresman, and D. J. Fox, Gaussian, Inc., Wallingford CT, 2016.
 
 ******************************************
 Gaussian 16:  ES64L-G16RevA.03 25-Dec-2016
                16-Jul-2022 
 ******************************************
 %mem=10GB
 %chk=dqwuc3nfobe2o_addon_7.chk
 %nprocshared=48
 Will use up to   48 processors via shared memory.
 -------------------------------------------------
 #P opt b3lyp/6-311G(d, p) empiricaldispersion=GD3
 -------------------------------------------------
 1/18=20,19=15,26=3,38=1/1,3;
 2/9=110,12=2,17=6,18=5,40=1/2;
 3/5=4,6=6,7=101,11=2,25=1,30=1,71=1,74=-5,124=31/1,2,3;
 4//1;
 5/5=2,38=5/2;
 6/7=2,8=2,9=2,10=2,28=1/1;
 7//1,2,3,16;
 1/18=20,19=15,26=3/3(2);
 2/9=110/2;
 99//99;
 2/9=110/2;
 3/5=4,6=6,7=101,11=2,25=1,30=1,71=1,74=-5,124=31/1,2,3;
 4/5=5,16=3,69=1/1;
 5/5=2,38=5/2;
 7//1,2,3,16;
 1/18=20,19=15,26=3/3(-5);
 2/9=110/2;
 6/7=2,8=2,9=2,10=2,19=2,28=1/1;
 99/9=1/99;
 Leave Link    1 at Sat Jul 16 12:20:15 2022, MaxMem=  1342177280 cpu:               2.0 elap:               0.0
 (Enter /home/mkliu/g16/l101.exe)
 -----
 force
 -----
 Symbolic Z-matrix:
 Charge =  0 Multiplicity = 2
 C                    -1.35038   1.87727  -3.95936 
 C                     0.17722   2.21417  -3.98091 
 C                     0.97772   0.90435  -4.30476 
 C                    -1.27127   0.41123  -3.82116 
 C                    -0.05422  -0.1444   -4.11534 
 C                    -2.12198  -0.11055  -2.87044 
 C                    -2.21399   2.28709  -2.72733 
 C                    -2.70826   0.95668  -2.1336 
 C                    -1.48585   2.9046   -1.55673 
 C                     0.66034   2.4801   -2.60965 
 C                    -0.06061   3.10727  -1.60038 
 C                     1.90164   0.66777  -3.12106 
 C                     1.81691   1.78512  -2.26427 
 C                     2.2486   -0.54165  -2.5778 
 C                     0.22586  -1.38496  -3.5932 
 C                     1.62597  -1.79699  -3.1773 
 C                    -1.89799  -1.38296  -2.34271 
 C                    -0.73348  -2.03508  -2.8075 
 C                    -2.44545  -1.67385  -1.0503 
 C                    -3.11056   0.73253  -0.85415 
 C                    -3.05896  -0.61626  -0.29438 
 C                    -2.09172   2.8669   -0.33323 
 C                    -3.23572   1.93889   0.04238 
 C                    -1.37605   3.21433   0.86623 
 C                     0.64755   3.32509  -0.40172 
 C                    -0.03358   3.49025   0.84522 
 C                     2.42158   1.78804  -0.99878 
 C                     1.90406   2.75754  -0.1207 
 C                     2.88639  -0.60202  -1.27225 
 C                     3.02608   0.5848   -0.53437 
 C                     2.93913  -1.85469  -0.57843 
 C                     1.31941  -2.8125   -2.12126 
 C                    -0.07741  -3.01561  -2.00688 
 C                     2.06265  -2.91742  -0.97297 
 C                    -1.89929  -2.79939  -0.39217 
 C                    -0.69944  -3.44223  -0.8487 
 C                    -1.9133   -2.88899   1.03001 
 C                    -3.14055  -0.77705   1.09083 
 C                    -2.53105  -1.88617   1.75208 
 C                    -2.9248    1.63963   1.4721 
 C                    -1.92478   2.51012   1.98605 
 C                    -3.02485   0.37719   1.98096 
 C                    -1.10061   2.11116   3.03546 
 C                     0.83232   3.05984   1.9002 
 C                     2.05265   2.60045   1.29909 
 C                     0.30546   2.40068   2.99142 
 C                     3.49716   0.57321   0.91198 
 C                     2.73499   1.52349   1.80005 
 C                     3.01316  -1.87129   0.86075 
 C                     3.21239  -0.72865   1.59197 
 C                     1.47379  -3.49304   0.22265 
 C                     0.11672  -3.77158   0.277 
 C                    -0.66207  -3.46189   1.44783 
 C                     2.10082  -2.88032   1.35282 
 C                    -0.03675  -2.94849   2.56708 
 C                     1.37139  -2.65278   2.51157 
 C                    -1.92908  -1.43155   2.97643 
 C                    -2.22275  -0.0291    3.10149 
 C                    -1.25933   0.81793   3.61682 
 C                    -0.69254  -1.92962   3.34374 
 C                     1.02819   1.28715   3.5376 
 C                     2.21912   0.87137   2.95194 
 C                     2.50882  -0.52927   2.81437 
 C                     1.58738  -1.46319   3.27271 
 C                     0.05725   0.31972   3.94648 
 C                     0.33362  -1.03136   3.81184 
 Cl                   -2.09276   2.3354   -5.52213 
 Cl                    0.49976   3.63689  -5.01616 
 Cl                    1.81352   0.81627  -5.86038 
 Cl                    2.66166  -2.4065   -4.51542 
 Cl                   -3.58565   3.36188  -3.14356 
 Cl                   -4.87905   2.66493  -0.16582 
 Cl                    5.27714   0.98465   0.85211 
 
 ITRead=  0  0  0  0  0  0  0  0  0  0  0  0  0  0  0  0  0  0  0  0
 ITRead=  0  0  0  0  0  0  0  0  0  0  0  0  0  0  0  0  0  0  0  0
 ITRead=  0  0  0  0  0  0  0  0  0  0  0  0  0  0  0  0  0  0  0  0
 ITRead=  0  0  0  0  0  0  0  0  0  0  0  0  0
 MicOpt= -1 -1 -1 -1 -1 -1 -1 -1 -1 -1 -1 -1 -1 -1 -1 -1 -1 -1 -1 -1
 MicOpt= -1 -1 -1 -1 -1 -1 -1 -1 -1 -1 -1 -1 -1 -1 -1 -1 -1 -1 -1 -1
 MicOpt= -1 -1 -1 -1 -1 -1 -1 -1 -1 -1 -1 -1 -1 -1 -1 -1 -1 -1 -1 -1
 MicOpt= -1 -1 -1 -1 -1 -1 -1 -1 -1 -1 -1 -1 -1
 NAtoms=     73 NQM=       73 NQMF=       0 NMMI=      0 NMMIF=      0
                NMic=       0 NMicF=      0.
                    Isotopes and Nuclear Properties:
 (Nuclear quadrupole moments (NQMom) in fm**2, nuclear magnetic moments (NMagM)
  in nuclear magnetons)

  Atom         1           2           3           4           5           6           7           8           9          10
 IAtWgt=          12          12          12          12          12          12          12          12          12          12
 AtmWgt=  12.0000000  12.0000000  12.0000000  12.0000000  12.0000000  12.0000000  12.0000000  12.0000000  12.0000000  12.0000000
 NucSpn=           0           0           0           0           0           0           0           0           0           0
 AtZEff=  -0.0000000  -0.0000000  -0.0000000  -0.0000000  -0.0000000  -0.0000000  -0.0000000  -0.0000000  -0.0000000  -0.0000000
 NQMom=    0.0000000   0.0000000   0.0000000   0.0000000   0.0000000   0.0000000   0.0000000   0.0000000   0.0000000   0.0000000
 NMagM=    0.0000000   0.0000000   0.0000000   0.0000000   0.0000000   0.0000000   0.0000000   0.0000000   0.0000000   0.0000000
 AtZNuc=   6.0000000   6.0000000   6.0000000   6.0000000   6.0000000   6.0000000   6.0000000   6.0000000   6.0000000   6.0000000

  Atom        11          12          13          14          15          16          17          18          19          20
 IAtWgt=          12          12          12          12          12          12          12          12          12          12
 AtmWgt=  12.0000000  12.0000000  12.0000000  12.0000000  12.0000000  12.0000000  12.0000000  12.0000000  12.0000000  12.0000000
 NucSpn=           0           0           0           0           0           0           0           0           0           0
 AtZEff=  -0.0000000  -0.0000000  -0.0000000  -0.0000000  -0.0000000  -0.0000000  -0.0000000  -0.0000000  -0.0000000  -0.0000000
 NQMom=    0.0000000   0.0000000   0.0000000   0.0000000   0.0000000   0.0000000   0.0000000   0.0000000   0.0000000   0.0000000
 NMagM=    0.0000000   0.0000000   0.0000000   0.0000000   0.0000000   0.0000000   0.0000000   0.0000000   0.0000000   0.0000000
 AtZNuc=   6.0000000   6.0000000   6.0000000   6.0000000   6.0000000   6.0000000   6.0000000   6.0000000   6.0000000   6.0000000

  Atom        21          22          23          24          25          26          27          28          29          30
 IAtWgt=          12          12          12          12          12          12          12          12          12          12
 AtmWgt=  12.0000000  12.0000000  12.0000000  12.0000000  12.0000000  12.0000000  12.0000000  12.0000000  12.0000000  12.0000000
 NucSpn=           0           0           0           0           0           0           0           0           0           0
 AtZEff=  -0.0000000  -0.0000000  -0.0000000  -0.0000000  -0.0000000  -0.0000000  -0.0000000  -0.0000000  -0.0000000  -0.0000000
 NQMom=    0.0000000   0.0000000   0.0000000   0.0000000   0.0000000   0.0000000   0.0000000   0.0000000   0.0000000   0.0000000
 NMagM=    0.0000000   0.0000000   0.0000000   0.0000000   0.0000000   0.0000000   0.0000000   0.0000000   0.0000000   0.0000000
 AtZNuc=   6.0000000   6.0000000   6.0000000   6.0000000   6.0000000   6.0000000   6.0000000   6.0000000   6.0000000   6.0000000

  Atom        31          32          33          34          35          36          37          38          39          40
 IAtWgt=          12          12          12          12          12          12          12          12          12          12
 AtmWgt=  12.0000000  12.0000000  12.0000000  12.0000000  12.0000000  12.0000000  12.0000000  12.0000000  12.0000000  12.0000000
 NucSpn=           0           0           0           0           0           0           0           0           0           0
 AtZEff=  -0.0000000  -0.0000000  -0.0000000  -0.0000000  -0.0000000  -0.0000000  -0.0000000  -0.0000000  -0.0000000  -0.0000000
 NQMom=    0.0000000   0.0000000   0.0000000   0.0000000   0.0000000   0.0000000   0.0000000   0.0000000   0.0000000   0.0000000
 NMagM=    0.0000000   0.0000000   0.0000000   0.0000000   0.0000000   0.0000000   0.0000000   0.0000000   0.0000000   0.0000000
 AtZNuc=   6.0000000   6.0000000   6.0000000   6.0000000   6.0000000   6.0000000   6.0000000   6.0000000   6.0000000   6.0000000

  Atom        41          42          43          44          45          46          47          48          49          50
 IAtWgt=          12          12          12          12          12          12          12          12          12          12
 AtmWgt=  12.0000000  12.0000000  12.0000000  12.0000000  12.0000000  12.0000000  12.0000000  12.0000000  12.0000000  12.0000000
 NucSpn=           0           0           0           0           0           0           0           0           0           0
 AtZEff=  -0.0000000  -0.0000000  -0.0000000  -0.0000000  -0.0000000  -0.0000000  -0.0000000  -0.0000000  -0.0000000  -0.0000000
 NQMom=    0.0000000   0.0000000   0.0000000   0.0000000   0.0000000   0.0000000   0.0000000   0.0000000   0.0000000   0.0000000
 NMagM=    0.0000000   0.0000000   0.0000000   0.0000000   0.0000000   0.0000000   0.0000000   0.0000000   0.0000000   0.0000000
 AtZNuc=   6.0000000   6.0000000   6.0000000   6.0000000   6.0000000   6.0000000   6.0000000   6.0000000   6.0000000   6.0000000

  Atom        51          52          53          54          55          56          57          58          59          60
 IAtWgt=          12          12          12          12          12          12          12          12          12          12
 AtmWgt=  12.0000000  12.0000000  12.0000000  12.0000000  12.0000000  12.0000000  12.0000000  12.0000000  12.0000000  12.0000000
 NucSpn=           0           0           0           0           0           0           0           0           0           0
 AtZEff=  -0.0000000  -0.0000000  -0.0000000  -0.0000000  -0.0000000  -0.0000000  -0.0000000  -0.0000000  -0.0000000  -0.0000000
 NQMom=    0.0000000   0.0000000   0.0000000   0.0000000   0.0000000   0.0000000   0.0000000   0.0000000   0.0000000   0.0000000
 NMagM=    0.0000000   0.0000000   0.0000000   0.0000000   0.0000000   0.0000000   0.0000000   0.0000000   0.0000000   0.0000000
 AtZNuc=   6.0000000   6.0000000   6.0000000   6.0000000   6.0000000   6.0000000   6.0000000   6.0000000   6.0000000   6.0000000

  Atom        61          62          63          64          65          66          67          68          69          70
 IAtWgt=          12          12          12          12          12          12          35          35          35          35
 AtmWgt=  12.0000000  12.0000000  12.0000000  12.0000000  12.0000000  12.0000000  34.9688527  34.9688527  34.9688527  34.9688527
 NucSpn=           0           0           0           0           0           0           3           3           3           3
 AtZEff=  -0.0000000  -0.0000000  -0.0000000  -0.0000000  -0.0000000  -0.0000000  -0.0000000  -0.0000000  -0.0000000  -0.0000000
 NQMom=    0.0000000   0.0000000   0.0000000   0.0000000   0.0000000   0.0000000  -8.1650000  -8.1650000  -8.1650000  -8.1650000
 NMagM=    0.0000000   0.0000000   0.0000000   0.0000000   0.0000000   0.0000000   0.8218740   0.8218740   0.8218740   0.8218740
 AtZNuc=   6.0000000   6.0000000   6.0000000   6.0000000   6.0000000   6.0000000  17.0000000  17.0000000  17.0000000  17.0000000

  Atom        71          72          73
 IAtWgt=          35          35          35
 AtmWgt=  34.9688527  34.9688527  34.9688527
 NucSpn=           3           3           3
 AtZEff=  -0.0000000  -0.0000000  -0.0000000
 NQMom=   -8.1650000  -8.1650000  -8.1650000
 NMagM=    0.8218740   0.8218740   0.8218740
 AtZNuc=  17.0000000  17.0000000  17.0000000
 Leave Link  101 at Sat Jul 16 12:20:15 2022, MaxMem=  1342177280 cpu:              20.8 elap:               0.5
 (Enter /home/mkliu/g16/l103.exe)

 GradGradGradGradGradGradGradGradGradGradGradGradGradGradGradGradGradGrad
 Berny optimization.
 Initialization pass.
                           ----------------------------
                           !    Initial Parameters    !
                           ! (Angstroms and Degrees)  !
 --------------------------                            --------------------------
 ! Name  Definition              Value          Derivative Info.                !
 --------------------------------------------------------------------------------
 ! R1    R(1,2)                  1.5645         estimate D2E/DX2                !
 ! R2    R(1,4)                  1.4747         estimate D2E/DX2                !
 ! R3    R(1,7)                  1.5594         estimate D2E/DX2                !
 ! R4    R(1,67)                 1.7898         estimate D2E/DX2                !
 ! R5    R(2,3)                  1.5689         estimate D2E/DX2                !
 ! R6    R(2,10)                 1.478          estimate D2E/DX2                !
 ! R7    R(2,68)                 1.7888         estimate D2E/DX2                !
 ! R8    R(3,5)                  1.4835         estimate D2E/DX2                !
 ! R9    R(3,12)                 1.5201         estimate D2E/DX2                !
 ! R10   R(3,69)                 1.7681         estimate D2E/DX2                !
 ! R11   R(4,5)                  1.3699         estimate D2E/DX2                !
 ! R12   R(4,6)                  1.3783         estimate D2E/DX2                !
 ! R13   R(5,15)                 1.3748         estimate D2E/DX2                !
 ! R14   R(6,8)                  1.4232         estimate D2E/DX2                !
 ! R15   R(6,17)                 1.3956         estimate D2E/DX2                !
 ! R16   R(7,8)                  1.5384         estimate D2E/DX2                !
 ! R17   R(7,9)                  1.5106         estimate D2E/DX2                !
 ! R18   R(7,71)                 1.7916         estimate D2E/DX2                !
 ! R19   R(8,20)                 1.3598         estimate D2E/DX2                !
 ! R20   R(9,11)                 1.4402         estimate D2E/DX2                !
 ! R21   R(9,22)                 1.3658         estimate D2E/DX2                !
 ! R22   R(10,11)                1.3899         estimate D2E/DX2                !
 ! R23   R(10,13)                1.3928         estimate D2E/DX2                !
 ! R24   R(11,25)                1.4091         estimate D2E/DX2                !
 ! R25   R(12,13)                1.4106         estimate D2E/DX2                !
 ! R26   R(12,14)                1.3705         estimate D2E/DX2                !
 ! R27   R(13,27)                1.4025         estimate D2E/DX2                !
 ! R28   R(14,16)                1.5241         estimate D2E/DX2                !
 ! R29   R(14,29)                1.4543         estimate D2E/DX2                !
 ! R30   R(15,16)                1.5176         estimate D2E/DX2                !
 ! R31   R(15,18)                1.4001         estimate D2E/DX2                !
 ! R32   R(16,32)                1.4968         estimate D2E/DX2                !
 ! R33   R(16,70)                1.7985         estimate D2E/DX2                !
 ! R34   R(17,18)                1.4133         estimate D2E/DX2                !
 ! R35   R(17,19)                1.4334         estimate D2E/DX2                !
 ! R36   R(18,33)                1.4258         estimate D2E/DX2                !
 ! R37   R(19,21)                1.4375         estimate D2E/DX2                !
 ! R38   R(19,35)                1.4136         estimate D2E/DX2                !
 ! R39   R(20,21)                1.4613         estimate D2E/DX2                !
 ! R40   R(20,23)                1.5082         estimate D2E/DX2                !
 ! R41   R(21,38)                1.3969         estimate D2E/DX2                !
 ! R42   R(22,23)                1.5202         estimate D2E/DX2                !
 ! R43   R(22,24)                1.4393         estimate D2E/DX2                !
 ! R44   R(23,40)                1.4934         estimate D2E/DX2                !
 ! R45   R(23,72)                1.8086         estimate D2E/DX2                !
 ! R46   R(24,26)                1.3707         estimate D2E/DX2                !
 ! R47   R(24,41)                1.4321         estimate D2E/DX2                !
 ! R48   R(25,26)                1.4304         estimate D2E/DX2                !
 ! R49   R(25,28)                1.4071         estimate D2E/DX2                !
 ! R50   R(26,44)                1.4311         estimate D2E/DX2                !
 ! R51   R(27,28)                1.4067         estimate D2E/DX2                !
 ! R52   R(27,30)                1.4244         estimate D2E/DX2                !
 ! R53   R(28,45)                1.4362         estimate D2E/DX2                !
 ! R54   R(29,30)                1.4045         estimate D2E/DX2                !
 ! R55   R(29,31)                1.433          estimate D2E/DX2                !
 ! R56   R(30,47)                1.5212         estimate D2E/DX2                !
 ! R57   R(31,34)                1.4329         estimate D2E/DX2                !
 ! R58   R(31,49)                1.4412         estimate D2E/DX2                !
 ! R59   R(32,33)                1.4161         estimate D2E/DX2                !
 ! R60   R(32,34)                1.3719         estimate D2E/DX2                !
 ! R61   R(33,36)                1.3821         estimate D2E/DX2                !
 ! R62   R(34,51)                1.4518         estimate D2E/DX2                !
 ! R63   R(35,36)                1.4357         estimate D2E/DX2                !
 ! R64   R(35,37)                1.4251         estimate D2E/DX2                !
 ! R65   R(36,52)                1.4289         estimate D2E/DX2                !
 ! R66   R(37,39)                1.3815         estimate D2E/DX2                !
 ! R67   R(37,53)                1.4382         estimate D2E/DX2                !
 ! R68   R(38,39)                1.4279         estimate D2E/DX2                !
 ! R69   R(38,42)                1.4622         estimate D2E/DX2                !
 ! R70   R(39,57)                1.4381         estimate D2E/DX2                !
 ! R71   R(40,41)                1.4219         estimate D2E/DX2                !
 ! R72   R(40,42)                1.3648         estimate D2E/DX2                !
 ! R73   R(41,43)                1.3927         estimate D2E/DX2                !
 ! R74   R(42,58)                1.4367         estimate D2E/DX2                !
 ! R75   R(43,46)                1.4362         estimate D2E/DX2                !
 ! R76   R(43,59)                1.4267         estimate D2E/DX2                !
 ! R77   R(44,45)                1.4358         estimate D2E/DX2                !
 ! R78   R(44,46)                1.3794         estimate D2E/DX2                !
 ! R79   R(45,48)                1.3698         estimate D2E/DX2                !
 ! R80   R(46,61)                1.4355         estimate D2E/DX2                !
 ! R81   R(47,48)                1.5075         estimate D2E/DX2                !
 ! R82   R(47,50)                1.4961         estimate D2E/DX2                !
 ! R83   R(47,73)                1.8279         estimate D2E/DX2                !
 ! R84   R(48,62)                1.4206         estimate D2E/DX2                !
 ! R85   R(49,50)                1.3711         estimate D2E/DX2                !
 ! R86   R(49,54)                1.4466         estimate D2E/DX2                !
 ! R87   R(50,63)                1.4244         estimate D2E/DX2                !
 ! R88   R(51,52)                1.3864         estimate D2E/DX2                !
 ! R89   R(51,54)                1.4303         estimate D2E/DX2                !
 ! R90   R(52,53)                1.4399         estimate D2E/DX2                !
 ! R91   R(53,55)                1.3811         estimate D2E/DX2                !
 ! R92   R(54,56)                1.388          estimate D2E/DX2                !
 ! R93   R(55,56)                1.4399         estimate D2E/DX2                !
 ! R94   R(55,60)                1.4392         estimate D2E/DX2                !
 ! R95   R(56,64)                1.4287         estimate D2E/DX2                !
 ! R96   R(57,58)                1.4383         estimate D2E/DX2                !
 ! R97   R(57,60)                1.3828         estimate D2E/DX2                !
 ! R98   R(58,59)                1.3825         estimate D2E/DX2                !
 ! R99   R(59,65)                1.4458         estimate D2E/DX2                !
 ! R100  R(60,66)                1.4419         estimate D2E/DX2                !
 ! R101  R(61,62)                1.3907         estimate D2E/DX2                !
 ! R102  R(61,65)                1.4303         estimate D2E/DX2                !
 ! R103  R(62,63)                1.4369         estimate D2E/DX2                !
 ! R104  R(63,64)                1.3897         estimate D2E/DX2                !
 ! R105  R(64,66)                1.4315         estimate D2E/DX2                !
 ! R106  R(65,66)                1.3856         estimate D2E/DX2                !
 ! A1    A(2,1,4)               99.3809         estimate D2E/DX2                !
 ! A2    A(2,1,7)              119.6736         estimate D2E/DX2                !
 ! A3    A(2,1,67)             109.7468         estimate D2E/DX2                !
 ! A4    A(4,1,7)              102.5293         estimate D2E/DX2                !
 ! A5    A(4,1,67)             111.0117         estimate D2E/DX2                !
 ! A6    A(7,1,67)             113.1339         estimate D2E/DX2                !
 ! A7    A(1,2,3)              108.7405         estimate D2E/DX2                !
 ! A8    A(1,2,10)             110.1904         estimate D2E/DX2                !
 ! A9    A(1,2,68)             110.8123         estimate D2E/DX2                !
 ! A10   A(3,2,10)             100.0754         estimate D2E/DX2                !
 ! A11   A(3,2,68)             116.9077         estimate D2E/DX2                !
 ! A12   A(10,2,68)            109.5657         estimate D2E/DX2                !
 ! A13   A(2,3,5)              102.0596         estimate D2E/DX2                !
 ! A14   A(2,3,12)             106.22           estimate D2E/DX2                !
 ! A15   A(2,3,69)             117.6711         estimate D2E/DX2                !
 ! A16   A(5,3,12)             102.3185         estimate D2E/DX2                !
 ! A17   A(5,3,69)             113.9509         estimate D2E/DX2                !
 ! A18   A(12,3,69)            112.9572         estimate D2E/DX2                !
 ! A19   A(1,4,5)              115.5168         estimate D2E/DX2                !
 ! A20   A(1,4,6)              114.0715         estimate D2E/DX2                !
 ! A21   A(5,4,6)              122.8836         estimate D2E/DX2                !
 ! A22   A(3,5,4)              111.021          estimate D2E/DX2                !
 ! A23   A(3,5,15)             123.0048         estimate D2E/DX2                !
 ! A24   A(4,5,15)             117.7393         estimate D2E/DX2                !
 ! A25   A(4,6,8)              109.1154         estimate D2E/DX2                !
 ! A26   A(4,6,17)             120.4578         estimate D2E/DX2                !
 ! A27   A(8,6,17)             123.6429         estimate D2E/DX2                !
 ! A28   A(1,7,8)              104.8073         estimate D2E/DX2                !
 ! A29   A(1,7,9)              116.9196         estimate D2E/DX2                !
 ! A30   A(1,7,71)             113.46           estimate D2E/DX2                !
 ! A31   A(8,7,9)              102.0819         estimate D2E/DX2                !
 ! A32   A(8,7,71)             111.2518         estimate D2E/DX2                !
 ! A33   A(9,7,71)             107.6889         estimate D2E/DX2                !
 ! A34   A(6,8,7)              108.4403         estimate D2E/DX2                !
 ! A35   A(6,8,20)             119.0376         estimate D2E/DX2                !
 ! A36   A(7,8,20)             126.9216         estimate D2E/DX2                !
 ! A37   A(7,9,11)             120.7341         estimate D2E/DX2                !
 ! A38   A(7,9,22)             117.9747         estimate D2E/DX2                !
 ! A39   A(11,9,22)            118.0349         estimate D2E/DX2                !
 ! A40   A(2,10,11)            125.8281         estimate D2E/DX2                !
 ! A41   A(2,10,13)            114.3131         estimate D2E/DX2                !
 ! A42   A(11,10,13)           118.4125         estimate D2E/DX2                !
 ! A43   A(9,11,10)            118.1525         estimate D2E/DX2                !
 ! A44   A(9,11,25)            119.5565         estimate D2E/DX2                !
 ! A45   A(10,11,25)           115.2625         estimate D2E/DX2                !
 ! A46   A(3,12,13)            108.2513         estimate D2E/DX2                !
 ! A47   A(3,12,14)            126.8621         estimate D2E/DX2                !
 ! A48   A(13,12,14)           118.2594         estimate D2E/DX2                !
 ! A49   A(10,13,12)           107.1282         estimate D2E/DX2                !
 ! A50   A(10,13,27)           125.5003         estimate D2E/DX2                !
 ! A51   A(12,13,27)           121.5878         estimate D2E/DX2                !
 ! A52   A(12,14,16)           117.873          estimate D2E/DX2                !
 ! A53   A(12,14,29)           120.234          estimate D2E/DX2                !
 ! A54   A(16,14,29)           119.8733         estimate D2E/DX2                !
 ! A55   A(5,15,16)            122.4822         estimate D2E/DX2                !
 ! A56   A(5,15,18)            119.5072         estimate D2E/DX2                !
 ! A57   A(16,15,18)           110.6273         estimate D2E/DX2                !
 ! A58   A(14,16,15)           105.1332         estimate D2E/DX2                !
 ! A59   A(14,16,32)           111.4047         estimate D2E/DX2                !
 ! A60   A(14,16,70)           109.6656         estimate D2E/DX2                !
 ! A61   A(15,16,32)           100.8714         estimate D2E/DX2                !
 ! A62   A(15,16,70)           114.7962         estimate D2E/DX2                !
 ! A63   A(32,16,70)           114.3893         estimate D2E/DX2                !
 ! A64   A(6,17,18)            115.3775         estimate D2E/DX2                !
 ! A65   A(6,17,19)            117.6886         estimate D2E/DX2                !
 ! A66   A(18,17,19)           121.1705         estimate D2E/DX2                !
 ! A67   A(15,18,17)           122.3356         estimate D2E/DX2                !
 ! A68   A(15,18,33)           108.6118         estimate D2E/DX2                !
 ! A69   A(17,18,33)           120.7837         estimate D2E/DX2                !
 ! A70   A(17,19,21)           119.199          estimate D2E/DX2                !
 ! A71   A(17,19,35)           115.7086         estimate D2E/DX2                !
 ! A72   A(21,19,35)           120.3895         estimate D2E/DX2                !
 ! A73   A(8,20,21)            120.1422         estimate D2E/DX2                !
 ! A74   A(8,20,23)            116.8726         estimate D2E/DX2                !
 ! A75   A(21,20,23)           120.898          estimate D2E/DX2                !
 ! A76   A(19,21,20)           119.5202         estimate D2E/DX2                !
 ! A77   A(19,21,38)           117.4979         estimate D2E/DX2                !
 ! A78   A(20,21,38)           118.9509         estimate D2E/DX2                !
 ! A79   A(9,22,23)            124.8899         estimate D2E/DX2                !
 ! A80   A(9,22,24)            121.2847         estimate D2E/DX2                !
 ! A81   A(23,22,24)           108.3991         estimate D2E/DX2                !
 ! A82   A(20,23,22)           106.1975         estimate D2E/DX2                !
 ! A83   A(20,23,40)           113.0492         estimate D2E/DX2                !
 ! A84   A(20,23,72)           109.1515         estimate D2E/DX2                !
 ! A85   A(22,23,40)           101.6651         estimate D2E/DX2                !
 ! A86   A(22,23,72)           114.2214         estimate D2E/DX2                !
 ! A87   A(40,23,72)           112.3223         estimate D2E/DX2                !
 ! A88   A(22,24,26)           121.5212         estimate D2E/DX2                !
 ! A89   A(22,24,41)           110.0237         estimate D2E/DX2                !
 ! A90   A(26,24,41)           119.0935         estimate D2E/DX2                !
 ! A91   A(11,25,26)           121.3371         estimate D2E/DX2                !
 ! A92   A(11,25,28)           123.8004         estimate D2E/DX2                !
 ! A93   A(26,25,28)           107.3182         estimate D2E/DX2                !
 ! A94   A(24,26,25)           117.1607         estimate D2E/DX2                !
 ! A95   A(24,26,44)           121.3834         estimate D2E/DX2                !
 ! A96   A(25,26,44)           108.6507         estimate D2E/DX2                !
 ! A97   A(13,27,28)           113.957          estimate D2E/DX2                !
 ! A98   A(13,27,30)           118.3846         estimate D2E/DX2                !
 ! A99   A(28,27,30)           122.3311         estimate D2E/DX2                !
 ! A100  A(25,28,27)           118.8061         estimate D2E/DX2                !
 ! A101  A(25,28,45)           109.5091         estimate D2E/DX2                !
 ! A102  A(27,28,45)           120.242          estimate D2E/DX2                !
 ! A103  A(14,29,30)           118.6977         estimate D2E/DX2                !
 ! A104  A(14,29,31)           119.1508         estimate D2E/DX2                !
 ! A105  A(30,29,31)           118.7296         estimate D2E/DX2                !
 ! A106  A(27,30,29)           120.022          estimate D2E/DX2                !
 ! A107  A(27,30,47)           116.6068         estimate D2E/DX2                !
 ! A108  A(29,30,47)           121.5941         estimate D2E/DX2                !
 ! A109  A(29,31,34)           119.5059         estimate D2E/DX2                !
 ! A110  A(29,31,49)           119.7013         estimate D2E/DX2                !
 ! A111  A(34,31,49)           107.3276         estimate D2E/DX2                !
 ! A112  A(16,32,33)           110.8734         estimate D2E/DX2                !
 ! A113  A(16,32,34)           122.1057         estimate D2E/DX2                !
 ! A114  A(33,32,34)           117.117          estimate D2E/DX2                !
 ! A115  A(18,33,32)           108.0519         estimate D2E/DX2                !
 ! A116  A(18,33,36)           118.4065         estimate D2E/DX2                !
 ! A117  A(32,33,36)           123.7706         estimate D2E/DX2                !
 ! A118  A(31,34,32)           120.3403         estimate D2E/DX2                !
 ! A119  A(31,34,51)           108.3853         estimate D2E/DX2                !
 ! A120  A(32,34,51)           119.9953         estimate D2E/DX2                !
 ! A121  A(19,35,36)           122.0967         estimate D2E/DX2                !
 ! A122  A(19,35,37)           120.7233         estimate D2E/DX2                !
 ! A123  A(36,35,37)           107.3011         estimate D2E/DX2                !
 ! A124  A(33,36,35)           120.2891         estimate D2E/DX2                !
 ! A125  A(33,36,52)           118.3092         estimate D2E/DX2                !
 ! A126  A(35,36,52)           109.2707         estimate D2E/DX2                !
 ! A127  A(35,37,39)           118.7084         estimate D2E/DX2                !
 ! A128  A(35,37,53)           107.8442         estimate D2E/DX2                !
 ! A129  A(39,37,53)           121.7579         estimate D2E/DX2                !
 ! A130  A(21,38,39)           121.5803         estimate D2E/DX2                !
 ! A131  A(21,38,42)           120.543          estimate D2E/DX2                !
 ! A132  A(39,38,42)           107.3058         estimate D2E/DX2                !
 ! A133  A(37,39,38)           120.8403         estimate D2E/DX2                !
 ! A134  A(37,39,57)           119.1614         estimate D2E/DX2                !
 ! A135  A(38,39,57)           109.1104         estimate D2E/DX2                !
 ! A136  A(23,40,41)           111.7013         estimate D2E/DX2                !
 ! A137  A(23,40,42)           121.8048         estimate D2E/DX2                !
 ! A138  A(41,40,42)           118.8853         estimate D2E/DX2                !
 ! A139  A(24,41,40)           106.7306         estimate D2E/DX2                !
 ! A140  A(24,41,43)           120.2182         estimate D2E/DX2                !
 ! A141  A(40,41,43)           120.8741         estimate D2E/DX2                !
 ! A142  A(38,42,40)           120.5983         estimate D2E/DX2                !
 ! A143  A(38,42,58)           107.2019         estimate D2E/DX2                !
 ! A144  A(40,42,58)           120.7611         estimate D2E/DX2                !
 ! A145  A(41,43,46)           119.8993         estimate D2E/DX2                !
 ! A146  A(41,43,59)           120.0559         estimate D2E/DX2                !
 ! A147  A(46,43,59)           107.7055         estimate D2E/DX2                !
 ! A148  A(26,44,45)           107.5689         estimate D2E/DX2                !
 ! A149  A(26,44,46)           119.7214         estimate D2E/DX2                !
 ! A150  A(45,44,46)           120.1928         estimate D2E/DX2                !
 ! A151  A(28,45,44)           106.9148         estimate D2E/DX2                !
 ! A152  A(28,45,48)           119.9392         estimate D2E/DX2                !
 ! A153  A(44,45,48)           121.4532         estimate D2E/DX2                !
 ! A154  A(43,46,44)           119.6368         estimate D2E/DX2                !
 ! A155  A(43,46,61)           108.957          estimate D2E/DX2                !
 ! A156  A(44,46,61)           118.6443         estimate D2E/DX2                !
 ! A157  A(30,47,48)           113.4998         estimate D2E/DX2                !
 ! A158  A(30,47,50)           112.3232         estimate D2E/DX2                !
 ! A159  A(30,47,73)           105.5872         estimate D2E/DX2                !
 ! A160  A(48,47,50)           100.6343         estimate D2E/DX2                !
 ! A161  A(48,47,73)           111.6996         estimate D2E/DX2                !
 ! A162  A(50,47,73)           113.335          estimate D2E/DX2                !
 ! A163  A(45,48,47)           122.1403         estimate D2E/DX2                !
 ! A164  A(45,48,62)           118.4599         estimate D2E/DX2                !
 ! A165  A(47,48,62)           111.8321         estimate D2E/DX2                !
 ! A166  A(31,49,50)           122.0341         estimate D2E/DX2                !
 ! A167  A(31,49,54)           108.3808         estimate D2E/DX2                !
 ! A168  A(50,49,54)           119.4401         estimate D2E/DX2                !
 ! A169  A(47,50,49)           120.6926         estimate D2E/DX2                !
 ! A170  A(47,50,63)           111.2385         estimate D2E/DX2                !
 ! A171  A(49,50,63)           120.1678         estimate D2E/DX2                !
 ! A172  A(34,51,52)           120.5953         estimate D2E/DX2                !
 ! A173  A(34,51,54)           107.6423         estimate D2E/DX2                !
 ! A174  A(52,51,54)           118.959          estimate D2E/DX2                !
 ! A175  A(36,52,51)           118.8092         estimate D2E/DX2                !
 ! A176  A(36,52,53)           106.3852         estimate D2E/DX2                !
 ! A177  A(51,52,53)           121.2037         estimate D2E/DX2                !
 ! A178  A(37,53,52)           108.6629         estimate D2E/DX2                !
 ! A179  A(37,53,55)           118.7694         estimate D2E/DX2                !
 ! A180  A(52,53,55)           119.6075         estimate D2E/DX2                !
 ! A181  A(49,54,51)           107.8482         estimate D2E/DX2                !
 ! A182  A(49,54,56)           120.071          estimate D2E/DX2                !
 ! A183  A(51,54,56)           119.9655         estimate D2E/DX2                !
 ! A184  A(53,55,56)           119.2017         estimate D2E/DX2                !
 ! A185  A(53,55,60)           119.6169         estimate D2E/DX2                !
 ! A186  A(56,55,60)           108.7243         estimate D2E/DX2                !
 ! A187  A(54,56,55)           120.8269         estimate D2E/DX2                !
 ! A188  A(54,56,64)           120.1199         estimate D2E/DX2                !
 ! A189  A(55,56,64)           107.3562         estimate D2E/DX2                !
 ! A190  A(39,57,58)           107.266          estimate D2E/DX2                !
 ! A191  A(39,57,60)           119.1186         estimate D2E/DX2                !
 ! A192  A(58,57,60)           120.7105         estimate D2E/DX2                !
 ! A193  A(42,58,57)           108.7795         estimate D2E/DX2                !
 ! A194  A(42,58,59)           120.4333         estimate D2E/DX2                !
 ! A195  A(57,58,59)           119.1796         estimate D2E/DX2                !
 ! A196  A(43,59,58)           118.7507         estimate D2E/DX2                !
 ! A197  A(43,59,65)           107.6951         estimate D2E/DX2                !
 ! A198  A(58,59,65)           120.5623         estimate D2E/DX2                !
 ! A199  A(55,60,57)           121.2733         estimate D2E/DX2                !
 ! A200  A(55,60,66)           106.9741         estimate D2E/DX2                !
 ! A201  A(57,60,66)           119.8859         estimate D2E/DX2                !
 ! A202  A(46,61,62)           120.187          estimate D2E/DX2                !
 ! A203  A(46,61,65)           106.9578         estimate D2E/DX2                !
 ! A204  A(62,61,65)           119.9645         estimate D2E/DX2                !
 ! A205  A(48,62,61)           121.0083         estimate D2E/DX2                !
 ! A206  A(48,62,63)           107.2538         estimate D2E/DX2                !
 ! A207  A(61,62,63)           120.291          estimate D2E/DX2                !
 ! A208  A(50,63,62)           108.5537         estimate D2E/DX2                !
 ! A209  A(50,63,64)           121.0948         estimate D2E/DX2                !
 ! A210  A(62,63,64)           119.3279         estimate D2E/DX2                !
 ! A211  A(56,64,63)           118.9531         estimate D2E/DX2                !
 ! A212  A(56,64,66)           108.6278         estimate D2E/DX2                !
 ! A213  A(63,64,66)           120.1472         estimate D2E/DX2                !
 ! A214  A(59,65,61)           108.6575         estimate D2E/DX2                !
 ! A215  A(59,65,66)           119.7012         estimate D2E/DX2                !
 ! A216  A(61,65,66)           119.7584         estimate D2E/DX2                !
 ! A217  A(60,66,64)           108.2482         estimate D2E/DX2                !
 ! A218  A(60,66,65)           119.8052         estimate D2E/DX2                !
 ! A219  A(64,66,65)           120.3605         estimate D2E/DX2                !
 ! D1    D(4,1,2,3)             17.6373         estimate D2E/DX2                !
 ! D2    D(4,1,2,10)           -91.1223         estimate D2E/DX2                !
 ! D3    D(4,1,2,68)           147.4447         estimate D2E/DX2                !
 ! D4    D(7,1,2,3)            127.9533         estimate D2E/DX2                !
 ! D5    D(7,1,2,10)            19.1938         estimate D2E/DX2                !
 ! D6    D(7,1,2,68)          -102.2392         estimate D2E/DX2                !
 ! D7    D(67,1,2,3)           -98.8135         estimate D2E/DX2                !
 ! D8    D(67,1,2,10)          152.4269         estimate D2E/DX2                !
 ! D9    D(67,1,2,68)           30.9939         estimate D2E/DX2                !
 ! D10   D(2,1,4,5)            -16.5834         estimate D2E/DX2                !
 ! D11   D(2,1,4,6)            134.1267         estimate D2E/DX2                !
 ! D12   D(7,1,4,5)           -140.0001         estimate D2E/DX2                !
 ! D13   D(7,1,4,6)             10.71           estimate D2E/DX2                !
 ! D14   D(67,1,4,5)            98.9027         estimate D2E/DX2                !
 ! D15   D(67,1,4,6)          -110.3872         estimate D2E/DX2                !
 ! D16   D(2,1,7,8)           -116.7994         estimate D2E/DX2                !
 ! D17   D(2,1,7,9)             -4.6492         estimate D2E/DX2                !
 ! D18   D(2,1,7,71)           121.6384         estimate D2E/DX2                !
 ! D19   D(4,1,7,8)             -8.2091         estimate D2E/DX2                !
 ! D20   D(4,1,7,9)            103.9411         estimate D2E/DX2                !
 ! D21   D(4,1,7,71)          -129.7713         estimate D2E/DX2                !
 ! D22   D(67,1,7,8)           111.419          estimate D2E/DX2                !
 ! D23   D(67,1,7,9)          -136.4308         estimate D2E/DX2                !
 ! D24   D(67,1,7,71)          -10.1432         estimate D2E/DX2                !
 ! D25   D(1,2,3,5)            -13.5339         estimate D2E/DX2                !
 ! D26   D(1,2,3,12)          -120.3532         estimate D2E/DX2                !
 ! D27   D(1,2,3,69)           111.9696         estimate D2E/DX2                !
 ! D28   D(10,2,3,5)           101.9626         estimate D2E/DX2                !
 ! D29   D(10,2,3,12)           -4.8567         estimate D2E/DX2                !
 ! D30   D(10,2,3,69)         -132.534          estimate D2E/DX2                !
 ! D31   D(68,2,3,5)          -139.8991         estimate D2E/DX2                !
 ! D32   D(68,2,3,12)          113.2816         estimate D2E/DX2                !
 ! D33   D(68,2,3,69)          -14.3956         estimate D2E/DX2                !
 ! D34   D(1,2,10,11)          -35.259          estimate D2E/DX2                !
 ! D35   D(1,2,10,13)          130.7085         estimate D2E/DX2                !
 ! D36   D(3,2,10,11)         -149.6538         estimate D2E/DX2                !
 ! D37   D(3,2,10,13)           16.3137         estimate D2E/DX2                !
 ! D38   D(68,2,10,11)          86.9133         estimate D2E/DX2                !
 ! D39   D(68,2,10,13)        -107.1192         estimate D2E/DX2                !
 ! D40   D(2,3,5,4)              3.3909         estimate D2E/DX2                !
 ! D41   D(2,3,5,15)          -144.194          estimate D2E/DX2                !
 ! D42   D(12,3,5,4)           113.2078         estimate D2E/DX2                !
 ! D43   D(12,3,5,15)          -34.3772         estimate D2E/DX2                !
 ! D44   D(69,3,5,4)          -124.526          estimate D2E/DX2                !
 ! D45   D(69,3,5,15)           87.889          estimate D2E/DX2                !
 ! D46   D(2,3,12,13)           -7.1272         estimate D2E/DX2                !
 ! D47   D(2,3,12,14)          143.3756         estimate D2E/DX2                !
 ! D48   D(5,3,12,13)         -113.7603         estimate D2E/DX2                !
 ! D49   D(5,3,12,14)           36.7424         estimate D2E/DX2                !
 ! D50   D(69,3,12,13)         123.2994         estimate D2E/DX2                !
 ! D51   D(69,3,12,14)         -86.1978         estimate D2E/DX2                !
 ! D52   D(1,4,5,3)              9.0126         estimate D2E/DX2                !
 ! D53   D(1,4,5,15)           158.4875         estimate D2E/DX2                !
 ! D54   D(6,4,5,3)           -138.8529         estimate D2E/DX2                !
 ! D55   D(6,4,5,15)            10.622          estimate D2E/DX2                !
 ! D56   D(1,4,6,8)             -8.764          estimate D2E/DX2                !
 ! D57   D(1,4,6,17)          -160.8954         estimate D2E/DX2                !
 ! D58   D(5,4,6,8)            139.5175         estimate D2E/DX2                !
 ! D59   D(5,4,6,17)           -12.6139         estimate D2E/DX2                !
 ! D60   D(3,5,15,16)           -0.7051         estimate D2E/DX2                !
 ! D61   D(3,5,15,18)          146.4518         estimate D2E/DX2                !
 ! D62   D(4,5,15,16)         -146.2788         estimate D2E/DX2                !
 ! D63   D(4,5,15,18)            0.8782         estimate D2E/DX2                !
 ! D64   D(4,6,8,7)              2.5751         estimate D2E/DX2                !
 ! D65   D(4,6,8,20)          -152.846          estimate D2E/DX2                !
 ! D66   D(17,6,8,7)           153.6277         estimate D2E/DX2                !
 ! D67   D(17,6,8,20)           -1.7934         estimate D2E/DX2                !
 ! D68   D(4,6,17,18)            2.6792         estimate D2E/DX2                !
 ! D69   D(4,6,17,19)          156.2997         estimate D2E/DX2                !
 ! D70   D(8,6,17,18)         -145.2795         estimate D2E/DX2                !
 ! D71   D(8,6,17,19)            8.341          estimate D2E/DX2                !
 ! D72   D(1,7,8,6)              3.8533         estimate D2E/DX2                !
 ! D73   D(1,7,8,20)           156.7957         estimate D2E/DX2                !
 ! D74   D(9,7,8,6)           -118.5234         estimate D2E/DX2                !
 ! D75   D(9,7,8,20)            34.4189         estimate D2E/DX2                !
 ! D76   D(71,7,8,6)           126.8532         estimate D2E/DX2                !
 ! D77   D(71,7,8,20)          -80.2044         estimate D2E/DX2                !
 ! D78   D(1,7,9,11)             0.4945         estimate D2E/DX2                !
 ! D79   D(1,7,9,22)          -158.7256         estimate D2E/DX2                !
 ! D80   D(8,7,9,11)           114.1857         estimate D2E/DX2                !
 ! D81   D(8,7,9,22)           -45.0344         estimate D2E/DX2                !
 ! D82   D(71,7,9,11)         -128.5987         estimate D2E/DX2                !
 ! D83   D(71,7,9,22)           72.1811         estimate D2E/DX2                !
 ! D84   D(6,8,20,21)           -5.8795         estimate D2E/DX2                !
 ! D85   D(6,8,20,23)          157.8455         estimate D2E/DX2                !
 ! D86   D(7,8,20,21)         -156.304          estimate D2E/DX2                !
 ! D87   D(7,8,20,23)            7.4211         estimate D2E/DX2                !
 ! D88   D(7,9,11,10)          -13.05           estimate D2E/DX2                !
 ! D89   D(7,9,11,25)         -162.3552         estimate D2E/DX2                !
 ! D90   D(22,9,11,10)         146.158          estimate D2E/DX2                !
 ! D91   D(22,9,11,25)          -3.1472         estimate D2E/DX2                !
 ! D92   D(7,9,22,23)           17.9533         estimate D2E/DX2                !
 ! D93   D(7,9,22,24)          168.8813         estimate D2E/DX2                !
 ! D94   D(11,9,22,23)        -141.8351         estimate D2E/DX2                !
 ! D95   D(11,9,22,24)           9.0929         estimate D2E/DX2                !
 ! D96   D(2,10,11,9)           33.3907         estimate D2E/DX2                !
 ! D97   D(2,10,11,25)        -176.0154         estimate D2E/DX2                !
 ! D98   D(13,10,11,9)        -132.059          estimate D2E/DX2                !
 ! D99   D(13,10,11,25)         18.5349         estimate D2E/DX2                !
 ! D100  D(2,10,13,12)         -21.9639         estimate D2E/DX2                !
 ! D101  D(2,10,13,27)        -175.2283         estimate D2E/DX2                !
 ! D102  D(11,10,13,12)        145.1205         estimate D2E/DX2                !
 ! D103  D(11,10,13,27)         -8.1439         estimate D2E/DX2                !
 ! D104  D(9,11,25,26)          -6.6842         estimate D2E/DX2                !
 ! D105  D(9,11,25,28)         139.1112         estimate D2E/DX2                !
 ! D106  D(10,11,25,26)       -156.8381         estimate D2E/DX2                !
 ! D107  D(10,11,25,28)        -11.0427         estimate D2E/DX2                !
 ! D108  D(3,12,13,10)          17.0473         estimate D2E/DX2                !
 ! D109  D(3,12,13,27)         171.5829         estimate D2E/DX2                !
 ! D110  D(14,12,13,10)       -136.3852         estimate D2E/DX2                !
 ! D111  D(14,12,13,27)         18.1505         estimate D2E/DX2                !
 ! D112  D(3,12,14,16)          -1.9423         estimate D2E/DX2                !
 ! D113  D(3,12,14,29)        -165.7623         estimate D2E/DX2                !
 ! D114  D(13,12,14,16)        145.9924         estimate D2E/DX2                !
 ! D115  D(13,12,14,29)        -17.8276         estimate D2E/DX2                !
 ! D116  D(10,13,27,28)        -10.9642         estimate D2E/DX2                !
 ! D117  D(10,13,27,30)        143.899          estimate D2E/DX2                !
 ! D118  D(12,13,27,28)       -160.6529         estimate D2E/DX2                !
 ! D119  D(12,13,27,30)         -5.7897         estimate D2E/DX2                !
 ! D120  D(12,14,16,15)        -34.4286         estimate D2E/DX2                !
 ! D121  D(12,14,16,32)       -142.8417         estimate D2E/DX2                !
 ! D122  D(12,14,16,70)         89.4902         estimate D2E/DX2                !
 ! D123  D(29,14,16,15)        129.4519         estimate D2E/DX2                !
 ! D124  D(29,14,16,32)         21.0388         estimate D2E/DX2                !
 ! D125  D(29,14,16,70)       -106.6292         estimate D2E/DX2                !
 ! D126  D(12,14,29,30)          5.7185         estimate D2E/DX2                !
 ! D127  D(12,14,29,31)        164.5933         estimate D2E/DX2                !
 ! D128  D(16,14,29,30)       -157.7782         estimate D2E/DX2                !
 ! D129  D(16,14,29,31)          1.0967         estimate D2E/DX2                !
 ! D130  D(5,15,16,14)          36.9434         estimate D2E/DX2                !
 ! D131  D(5,15,16,32)         152.8504         estimate D2E/DX2                !
 ! D132  D(5,15,16,70)         -83.6515         estimate D2E/DX2                !
 ! D133  D(18,15,16,14)       -112.77           estimate D2E/DX2                !
 ! D134  D(18,15,16,32)          3.1371         estimate D2E/DX2                !
 ! D135  D(18,15,16,70)        126.6352         estimate D2E/DX2                !
 ! D136  D(5,15,18,17)         -10.6063         estimate D2E/DX2                !
 ! D137  D(5,15,18,33)        -159.0738         estimate D2E/DX2                !
 ! D138  D(16,15,18,17)        140.1298         estimate D2E/DX2                !
 ! D139  D(16,15,18,33)         -8.3378         estimate D2E/DX2                !
 ! D140  D(14,16,32,33)        114.3931         estimate D2E/DX2                !
 ! D141  D(14,16,32,34)        -30.2101         estimate D2E/DX2                !
 ! D142  D(15,16,32,33)          3.2431         estimate D2E/DX2                !
 ! D143  D(15,16,32,34)       -141.3601         estimate D2E/DX2                !
 ! D144  D(70,16,32,33)       -120.5349         estimate D2E/DX2                !
 ! D145  D(70,16,32,34)         94.8619         estimate D2E/DX2                !
 ! D146  D(6,17,18,15)           8.6016         estimate D2E/DX2                !
 ! D147  D(6,17,18,33)         153.3677         estimate D2E/DX2                !
 ! D148  D(19,17,18,15)       -144.023          estimate D2E/DX2                !
 ! D149  D(19,17,18,33)          0.7431         estimate D2E/DX2                !
 ! D150  D(6,17,19,21)          -7.0502         estimate D2E/DX2                !
 ! D151  D(6,17,19,35)        -162.8679         estimate D2E/DX2                !
 ! D152  D(18,17,19,21)        144.969          estimate D2E/DX2                !
 ! D153  D(18,17,19,35)        -10.8487         estimate D2E/DX2                !
 ! D154  D(15,18,33,32)         10.2528         estimate D2E/DX2                !
 ! D155  D(15,18,33,36)        157.4934         estimate D2E/DX2                !
 ! D156  D(17,18,33,32)       -138.793          estimate D2E/DX2                !
 ! D157  D(17,18,33,36)          8.4476         estimate D2E/DX2                !
 ! D158  D(17,19,21,20)         -0.1355         estimate D2E/DX2                !
 ! D159  D(17,19,21,38)       -157.3351         estimate D2E/DX2                !
 ! D160  D(35,19,21,20)        154.5315         estimate D2E/DX2                !
 ! D161  D(35,19,21,38)         -2.6682         estimate D2E/DX2                !
 ! D162  D(17,19,35,36)         12.3903         estimate D2E/DX2                !
 ! D163  D(17,19,35,37)        153.7544         estimate D2E/DX2                !
 ! D164  D(21,19,35,36)       -143.119          estimate D2E/DX2                !
 ! D165  D(21,19,35,37)         -1.755          estimate D2E/DX2                !
 ! D166  D(8,20,21,19)           6.8094         estimate D2E/DX2                !
 ! D167  D(8,20,21,38)         163.6786         estimate D2E/DX2                !
 ! D168  D(23,20,21,19)       -156.253          estimate D2E/DX2                !
 ! D169  D(23,20,21,38)          0.6162         estimate D2E/DX2                !
 ! D170  D(8,20,23,22)         -37.2536         estimate D2E/DX2                !
 ! D171  D(8,20,23,40)        -147.8885         estimate D2E/DX2                !
 ! D172  D(8,20,23,72)          86.3285         estimate D2E/DX2                !
 ! D173  D(21,20,23,22)        126.3407         estimate D2E/DX2                !
 ! D174  D(21,20,23,40)         15.7059         estimate D2E/DX2                !
 ! D175  D(21,20,23,72)       -110.0772         estimate D2E/DX2                !
 ! D176  D(19,21,38,39)          5.6982         estimate D2E/DX2                !
 ! D177  D(19,21,38,42)        145.8875         estimate D2E/DX2                !
 ! D178  D(20,21,38,39)       -151.635          estimate D2E/DX2                !
 ! D179  D(20,21,38,42)        -11.4456         estimate D2E/DX2                !
 ! D180  D(9,22,23,20)          26.1959         estimate D2E/DX2                !
 ! D181  D(9,22,23,40)         144.6382         estimate D2E/DX2                !
 ! D182  D(9,22,23,72)         -94.1541         estimate D2E/DX2                !
 ! D183  D(24,22,23,20)       -127.8515         estimate D2E/DX2                !
 ! D184  D(24,22,23,40)         -9.4092         estimate D2E/DX2                !
 ! D185  D(24,22,23,72)        111.7984         estimate D2E/DX2                !
 ! D186  D(9,22,24,26)          -5.4189         estimate D2E/DX2                !
 ! D187  D(9,22,24,41)        -151.5807         estimate D2E/DX2                !
 ! D188  D(23,22,24,26)        149.744          estimate D2E/DX2                !
 ! D189  D(23,22,24,41)          3.5822         estimate D2E/DX2                !
 ! D190  D(20,23,40,41)        125.9039         estimate D2E/DX2                !
 ! D191  D(20,23,40,42)        -23.2517         estimate D2E/DX2                !
 ! D192  D(22,23,40,41)         12.4889         estimate D2E/DX2                !
 ! D193  D(22,23,40,42)       -136.6667         estimate D2E/DX2                !
 ! D194  D(72,23,40,41)       -110.0328         estimate D2E/DX2                !
 ! D195  D(72,23,40,42)        100.8117         estimate D2E/DX2                !
 ! D196  D(22,24,26,25)         -4.3801         estimate D2E/DX2                !
 ! D197  D(22,24,26,44)       -141.6027         estimate D2E/DX2                !
 ! D198  D(41,24,26,25)        138.8407         estimate D2E/DX2                !
 ! D199  D(41,24,26,44)          1.6181         estimate D2E/DX2                !
 ! D200  D(22,24,41,40)          4.3023         estimate D2E/DX2                !
 ! D201  D(22,24,41,43)        146.9743         estimate D2E/DX2                !
 ! D202  D(26,24,41,40)       -142.7943         estimate D2E/DX2                !
 ! D203  D(26,24,41,43)         -0.1222         estimate D2E/DX2                !
 ! D204  D(11,25,26,24)         10.3058         estimate D2E/DX2                !
 ! D205  D(11,25,26,44)        152.5768         estimate D2E/DX2                !
 ! D206  D(28,25,26,24)       -140.3984         estimate D2E/DX2                !
 ! D207  D(28,25,26,44)          1.8726         estimate D2E/DX2                !
 ! D208  D(11,25,28,27)         -8.2165         estimate D2E/DX2                !
 ! D209  D(11,25,28,45)       -151.7895         estimate D2E/DX2                !
 ! D210  D(26,25,28,27)        141.5885         estimate D2E/DX2                !
 ! D211  D(26,25,28,45)         -1.9846         estimate D2E/DX2                !
 ! D212  D(24,26,44,45)        139.3223         estimate D2E/DX2                !
 ! D213  D(24,26,44,46)         -2.6936         estimate D2E/DX2                !
 ! D214  D(25,26,44,45)         -1.0533         estimate D2E/DX2                !
 ! D215  D(25,26,44,46)       -143.0692         estimate D2E/DX2                !
 ! D216  D(13,27,28,25)         18.3582         estimate D2E/DX2                !
 ! D217  D(13,27,28,45)        157.9763         estimate D2E/DX2                !
 ! D218  D(30,27,28,25)       -135.3925         estimate D2E/DX2                !
 ! D219  D(30,27,28,45)          4.2257         estimate D2E/DX2                !
 ! D220  D(13,27,30,29)         -6.7            estimate D2E/DX2                !
 ! D221  D(13,27,30,47)       -171.7615         estimate D2E/DX2                !
 ! D222  D(28,27,30,29)        145.9511         estimate D2E/DX2                !
 ! D223  D(28,27,30,47)        -19.1104         estimate D2E/DX2                !
 ! D224  D(25,28,45,44)          1.3394         estimate D2E/DX2                !
 ! D225  D(25,28,45,48)        144.9043         estimate D2E/DX2                !
 ! D226  D(27,28,45,44)       -141.6268         estimate D2E/DX2                !
 ! D227  D(27,28,45,48)          1.9381         estimate D2E/DX2                !
 ! D228  D(14,29,30,27)          6.7916         estimate D2E/DX2                !
 ! D229  D(14,29,30,47)        171.0922         estimate D2E/DX2                !
 ! D230  D(31,29,30,27)       -152.173          estimate D2E/DX2                !
 ! D231  D(31,29,30,47)         12.1276         estimate D2E/DX2                !
 ! D232  D(14,29,31,34)        -17.5833         estimate D2E/DX2                !
 ! D233  D(14,29,31,49)       -153.3729         estimate D2E/DX2                !
 ! D234  D(30,29,31,34)        141.2849         estimate D2E/DX2                !
 ! D235  D(30,29,31,49)          5.4952         estimate D2E/DX2                !
 ! D236  D(27,30,47,48)         26.5354         estimate D2E/DX2                !
 ! D237  D(27,30,47,50)        139.8678         estimate D2E/DX2                !
 ! D238  D(27,30,47,73)        -96.1393         estimate D2E/DX2                !
 ! D239  D(29,30,47,48)       -138.2737         estimate D2E/DX2                !
 ! D240  D(29,30,47,50)        -24.9413         estimate D2E/DX2                !
 ! D241  D(29,30,47,73)         99.0515         estimate D2E/DX2                !
 ! D242  D(29,31,34,32)          9.4708         estimate D2E/DX2                !
 ! D243  D(29,31,34,51)       -134.1353         estimate D2E/DX2                !
 ! D244  D(49,31,34,32)        150.0895         estimate D2E/DX2                !
 ! D245  D(49,31,34,51)          6.4834         estimate D2E/DX2                !
 ! D246  D(29,31,49,50)         -8.766          estimate D2E/DX2                !
 ! D247  D(29,31,49,54)        136.2066         estimate D2E/DX2                !
 ! D248  D(34,31,49,50)       -149.2934         estimate D2E/DX2                !
 ! D249  D(34,31,49,54)         -4.3208         estimate D2E/DX2                !
 ! D250  D(16,32,33,18)         -8.3674         estimate D2E/DX2                !
 ! D251  D(16,32,33,36)       -153.4378         estimate D2E/DX2                !
 ! D252  D(34,32,33,18)        138.18           estimate D2E/DX2                !
 ! D253  D(34,32,33,36)         -6.8904         estimate D2E/DX2                !
 ! D254  D(16,32,34,31)         16.0235         estimate D2E/DX2                !
 ! D255  D(16,32,34,51)        155.4728         estimate D2E/DX2                !
 ! D256  D(33,32,34,31)       -126.5272         estimate D2E/DX2                !
 ! D257  D(33,32,34,51)         12.9221         estimate D2E/DX2                !
 ! D258  D(18,33,36,35)         -7.0054         estimate D2E/DX2                !
 ! D259  D(18,33,36,52)       -145.4878         estimate D2E/DX2                !
 ! D260  D(32,33,36,35)        134.7584         estimate D2E/DX2                !
 ! D261  D(32,33,36,52)         -3.724          estimate D2E/DX2                !
 ! D262  D(31,34,51,52)        134.881          estimate D2E/DX2                !
 ! D263  D(31,34,51,54)         -6.2243         estimate D2E/DX2                !
 ! D264  D(32,34,51,52)         -8.8725         estimate D2E/DX2                !
 ! D265  D(32,34,51,54)       -149.9778         estimate D2E/DX2                !
 ! D266  D(19,35,36,33)         -3.6719         estimate D2E/DX2                !
 ! D267  D(19,35,36,52)        138.1424         estimate D2E/DX2                !
 ! D268  D(37,35,36,33)       -149.4657         estimate D2E/DX2                !
 ! D269  D(37,35,36,52)         -7.6514         estimate D2E/DX2                !
 ! D270  D(19,35,37,39)          3.2114         estimate D2E/DX2                !
 ! D271  D(19,35,37,53)       -140.5664         estimate D2E/DX2                !
 ! D272  D(36,35,37,39)        149.5693         estimate D2E/DX2                !
 ! D273  D(36,35,37,53)          5.7916         estimate D2E/DX2                !
 ! D274  D(33,36,52,51)          8.0058         estimate D2E/DX2                !
 ! D275  D(33,36,52,53)        149.0836         estimate D2E/DX2                !
 ! D276  D(35,36,52,51)       -134.669          estimate D2E/DX2                !
 ! D277  D(35,36,52,53)          6.4089         estimate D2E/DX2                !
 ! D278  D(35,37,39,38)         -0.2337         estimate D2E/DX2                !
 ! D279  D(35,37,39,57)       -140.5711         estimate D2E/DX2                !
 ! D280  D(53,37,39,38)        138.3491         estimate D2E/DX2                !
 ! D281  D(53,37,39,57)         -1.9883         estimate D2E/DX2                !
 ! D282  D(35,37,53,52)         -1.8988         estimate D2E/DX2                !
 ! D283  D(35,37,53,55)        139.3947         estimate D2E/DX2                !
 ! D284  D(39,37,53,52)       -144.3424         estimate D2E/DX2                !
 ! D285  D(39,37,53,55)         -3.0489         estimate D2E/DX2                !
 ! D286  D(21,38,39,37)         -4.3667         estimate D2E/DX2                !
 ! D287  D(21,38,39,57)        139.4853         estimate D2E/DX2                !
 ! D288  D(42,38,39,37)       -149.0874         estimate D2E/DX2                !
 ! D289  D(42,38,39,57)         -5.2355         estimate D2E/DX2                !
 ! D290  D(21,38,42,40)          4.3907         estimate D2E/DX2                !
 ! D291  D(21,38,42,58)       -139.2291         estimate D2E/DX2                !
 ! D292  D(39,38,42,40)        149.5499         estimate D2E/DX2                !
 ! D293  D(39,38,42,58)          5.9301         estimate D2E/DX2                !
 ! D294  D(37,39,57,58)        147.0653         estimate D2E/DX2                !
 ! D295  D(37,39,57,60)          5.3168         estimate D2E/DX2                !
 ! D296  D(38,39,57,58)          2.5142         estimate D2E/DX2                !
 ! D297  D(38,39,57,60)       -139.2342         estimate D2E/DX2                !
 ! D298  D(23,40,41,24)        -10.889          estimate D2E/DX2                !
 ! D299  D(23,40,41,43)       -153.2642         estimate D2E/DX2                !
 ! D300  D(42,40,41,24)        139.2673         estimate D2E/DX2                !
 ! D301  D(42,40,41,43)         -3.108          estimate D2E/DX2                !
 ! D302  D(23,40,42,38)         14.1387         estimate D2E/DX2                !
 ! D303  D(23,40,42,58)        152.8863         estimate D2E/DX2                !
 ! D304  D(41,40,42,38)       -132.901          estimate D2E/DX2                !
 ! D305  D(41,40,42,58)          5.8465         estimate D2E/DX2                !
 ! D306  D(24,41,43,46)         -0.3259         estimate D2E/DX2                !
 ! D307  D(24,41,43,59)       -137.8914         estimate D2E/DX2                !
 ! D308  D(40,41,43,46)        137.097          estimate D2E/DX2                !
 ! D309  D(40,41,43,59)         -0.4685         estimate D2E/DX2                !
 ! D310  D(38,42,58,57)         -4.4453         estimate D2E/DX2                !
 ! D311  D(38,42,58,59)        138.4005         estimate D2E/DX2                !
 ! D312  D(40,42,58,57)       -147.9939         estimate D2E/DX2                !
 ! D313  D(40,42,58,59)         -5.1481         estimate D2E/DX2                !
 ! D314  D(41,43,46,44)         -0.738          estimate D2E/DX2                !
 ! D315  D(41,43,46,61)       -141.868          estimate D2E/DX2                !
 ! D316  D(59,43,46,44)        141.4511         estimate D2E/DX2                !
 ! D317  D(59,43,46,61)          0.3211         estimate D2E/DX2                !
 ! D318  D(41,43,59,58)          1.2308         estimate D2E/DX2                !
 ! D319  D(41,43,59,65)        142.8421         estimate D2E/DX2                !
 ! D320  D(46,43,59,58)       -140.888          estimate D2E/DX2                !
 ! D321  D(46,43,59,65)          0.7233         estimate D2E/DX2                !
 ! D322  D(26,44,45,28)         -0.1579         estimate D2E/DX2                !
 ! D323  D(26,44,45,48)       -143.0511         estimate D2E/DX2                !
 ! D324  D(46,44,45,28)        141.645          estimate D2E/DX2                !
 ! D325  D(46,44,45,48)         -1.2482         estimate D2E/DX2                !
 ! D326  D(26,44,46,43)          2.1948         estimate D2E/DX2                !
 ! D327  D(26,44,46,61)        139.6406         estimate D2E/DX2                !
 ! D328  D(45,44,46,43)       -135.0531         estimate D2E/DX2                !
 ! D329  D(45,44,46,61)          2.3926         estimate D2E/DX2                !
 ! D330  D(28,45,48,47)          7.9904         estimate D2E/DX2                !
 ! D331  D(28,45,48,62)       -139.1631         estimate D2E/DX2                !
 ! D332  D(44,45,48,47)        146.2245         estimate D2E/DX2                !
 ! D333  D(44,45,48,62)         -0.929          estimate D2E/DX2                !
 ! D334  D(43,46,61,62)        140.1513         estimate D2E/DX2                !
 ! D335  D(43,46,61,65)         -1.2437         estimate D2E/DX2                !
 ! D336  D(44,46,61,62)         -1.4212         estimate D2E/DX2                !
 ! D337  D(44,46,61,65)       -142.8162         estimate D2E/DX2                !
 ! D338  D(30,47,48,45)        -21.9744         estimate D2E/DX2                !
 ! D339  D(30,47,48,62)        127.116          estimate D2E/DX2                !
 ! D340  D(50,47,48,45)       -142.1771         estimate D2E/DX2                !
 ! D341  D(50,47,48,62)          6.9133         estimate D2E/DX2                !
 ! D342  D(73,47,48,45)         97.2598         estimate D2E/DX2                !
 ! D343  D(73,47,48,62)       -113.6497         estimate D2E/DX2                !
 ! D344  D(30,47,50,49)         21.6037         estimate D2E/DX2                !
 ! D345  D(30,47,50,63)       -127.4529         estimate D2E/DX2                !
 ! D346  D(48,47,50,49)        142.6465         estimate D2E/DX2                !
 ! D347  D(48,47,50,63)         -6.41           estimate D2E/DX2                !
 ! D348  D(73,47,50,49)        -97.9659         estimate D2E/DX2                !
 ! D349  D(73,47,50,63)        112.9775         estimate D2E/DX2                !
 ! D350  D(45,48,62,61)          1.9139         estimate D2E/DX2                !
 ! D351  D(45,48,62,63)        145.3218         estimate D2E/DX2                !
 ! D352  D(47,48,62,61)       -148.4327         estimate D2E/DX2                !
 ! D353  D(47,48,62,63)         -5.0248         estimate D2E/DX2                !
 ! D354  D(31,49,50,47)         -6.0915         estimate D2E/DX2                !
 ! D355  D(31,49,50,63)        140.2425         estimate D2E/DX2                !
 ! D356  D(54,49,50,47)       -147.3762         estimate D2E/DX2                !
 ! D357  D(54,49,50,63)         -1.0422         estimate D2E/DX2                !
 ! D358  D(31,49,54,51)          0.4878         estimate D2E/DX2                !
 ! D359  D(31,49,54,56)       -141.9583         estimate D2E/DX2                !
 ! D360  D(50,49,54,51)        146.5205         estimate D2E/DX2                !
 ! D361  D(50,49,54,56)          4.0744         estimate D2E/DX2                !
 ! D362  D(47,50,63,62)          3.8984         estimate D2E/DX2                !
 ! D363  D(47,50,63,64)        147.5843         estimate D2E/DX2                !
 ! D364  D(49,50,63,62)       -145.3423         estimate D2E/DX2                !
 ! D365  D(49,50,63,64)         -1.6564         estimate D2E/DX2                !
 ! D366  D(34,51,52,36)         -1.992          estimate D2E/DX2                !
 ! D367  D(34,51,52,53)       -137.1871         estimate D2E/DX2                !
 ! D368  D(54,51,52,36)        134.8616         estimate D2E/DX2                !
 ! D369  D(54,51,52,53)         -0.3335         estimate D2E/DX2                !
 ! D370  D(34,51,54,49)          3.4935         estimate D2E/DX2                !
 ! D371  D(34,51,54,56)        145.9863         estimate D2E/DX2                !
 ! D372  D(52,51,54,49)       -138.3572         estimate D2E/DX2                !
 ! D373  D(52,51,54,56)          4.1357         estimate D2E/DX2                !
 ! D374  D(36,52,53,37)         -2.759          estimate D2E/DX2                !
 ! D375  D(36,52,53,55)       -143.6748         estimate D2E/DX2                !
 ! D376  D(51,52,53,37)        137.1792         estimate D2E/DX2                !
 ! D377  D(51,52,53,55)         -3.7366         estimate D2E/DX2                !
 ! D378  D(37,53,55,56)       -133.1175         estimate D2E/DX2                !
 ! D379  D(37,53,55,60)          4.6779         estimate D2E/DX2                !
 ! D380  D(52,53,55,56)          3.9276         estimate D2E/DX2                !
 ! D381  D(52,53,55,60)        141.723          estimate D2E/DX2                !
 ! D382  D(49,54,56,55)        134.0126         estimate D2E/DX2                !
 ! D383  D(49,54,56,64)         -4.3895         estimate D2E/DX2                !
 ! D384  D(51,54,56,55)         -3.9439         estimate D2E/DX2                !
 ! D385  D(51,54,56,64)       -142.346          estimate D2E/DX2                !
 ! D386  D(53,55,56,54)         -0.1466         estimate D2E/DX2                !
 ! D387  D(53,55,56,64)        142.8651         estimate D2E/DX2                !
 ! D388  D(60,55,56,54)       -142.0748         estimate D2E/DX2                !
 ! D389  D(60,55,56,64)          0.9369         estimate D2E/DX2                !
 ! D390  D(53,55,60,57)         -1.3493         estimate D2E/DX2                !
 ! D391  D(53,55,60,66)       -143.9976         estimate D2E/DX2                !
 ! D392  D(56,55,60,57)        140.395          estimate D2E/DX2                !
 ! D393  D(56,55,60,66)         -2.2533         estimate D2E/DX2                !
 ! D394  D(54,56,64,63)          1.7019         estimate D2E/DX2                !
 ! D395  D(54,56,64,66)        144.091          estimate D2E/DX2                !
 ! D396  D(55,56,64,63)       -141.6214         estimate D2E/DX2                !
 ! D397  D(55,56,64,66)          0.7677         estimate D2E/DX2                !
 ! D398  D(39,57,58,42)          1.2672         estimate D2E/DX2                !
 ! D399  D(39,57,58,59)       -142.1176         estimate D2E/DX2                !
 ! D400  D(60,57,58,42)        142.284          estimate D2E/DX2                !
 ! D401  D(60,57,58,59)         -1.1008         estimate D2E/DX2                !
 ! D402  D(39,57,60,55)         -3.7125         estimate D2E/DX2                !
 ! D403  D(39,57,60,66)        134.2762         estimate D2E/DX2                !
 ! D404  D(58,57,60,55)       -140.2679         estimate D2E/DX2                !
 ! D405  D(58,57,60,66)         -2.2791         estimate D2E/DX2                !
 ! D406  D(42,58,59,43)          1.4745         estimate D2E/DX2                !
 ! D407  D(42,58,59,65)       -135.1275         estimate D2E/DX2                !
 ! D408  D(57,58,59,43)        140.5607         estimate D2E/DX2                !
 ! D409  D(57,58,59,65)          3.9587         estimate D2E/DX2                !
 ! D410  D(43,59,65,61)         -1.5094         estimate D2E/DX2                !
 ! D411  D(43,59,65,66)       -144.2323         estimate D2E/DX2                !
 ! D412  D(58,59,65,61)        139.2723         estimate D2E/DX2                !
 ! D413  D(58,59,65,66)         -3.4505         estimate D2E/DX2                !
 ! D414  D(55,60,66,64)          2.7159         estimate D2E/DX2                !
 ! D415  D(55,60,66,65)        146.0571         estimate D2E/DX2                !
 ! D416  D(57,60,66,64)       -140.5512         estimate D2E/DX2                !
 ! D417  D(57,60,66,65)          2.7901         estimate D2E/DX2                !
 ! D418  D(46,61,62,48)         -0.7535         estimate D2E/DX2                !
 ! D419  D(46,61,62,63)       -139.507          estimate D2E/DX2                !
 ! D420  D(65,61,62,48)        135.7034         estimate D2E/DX2                !
 ! D421  D(65,61,62,63)         -3.0501         estimate D2E/DX2                !
 ! D422  D(46,61,65,59)          1.6884         estimate D2E/DX2                !
 ! D423  D(46,61,65,66)        144.3863         estimate D2E/DX2                !
 ! D424  D(62,61,65,59)       -139.8093         estimate D2E/DX2                !
 ! D425  D(62,61,65,66)          2.8887         estimate D2E/DX2                !
 ! D426  D(48,62,63,50)          0.6896         estimate D2E/DX2                !
 ! D427  D(48,62,63,64)       -143.7422         estimate D2E/DX2                !
 ! D428  D(61,62,63,50)        144.4114         estimate D2E/DX2                !
 ! D429  D(61,62,63,64)         -0.0204         estimate D2E/DX2                !
 ! D430  D(50,63,64,56)          1.3522         estimate D2E/DX2                !
 ! D431  D(50,63,64,66)       -136.6743         estimate D2E/DX2                !
 ! D432  D(62,63,64,56)        141.2638         estimate D2E/DX2                !
 ! D433  D(62,63,64,66)          3.2372         estimate D2E/DX2                !
 ! D434  D(56,64,66,60)         -2.1786         estimate D2E/DX2                !
 ! D435  D(56,64,66,65)       -145.2794         estimate D2E/DX2                !
 ! D436  D(63,64,66,60)        139.6839         estimate D2E/DX2                !
 ! D437  D(63,64,66,65)         -3.4169         estimate D2E/DX2                !
[...]
              Bcc     0.0632     8.479     3.026     2.828  0.6561  0.2733  0.7034
 
              Baa    -0.0735    -9.862    -3.519    -3.289 -0.3294  0.8057 -0.4923
    12 C(13)  Bbb     0.0347     4.656     1.661     1.553 -0.6370  0.1951  0.7457
              Bcc     0.0388     5.206     1.858     1.737  0.6969  0.5592  0.4490
 
              Baa    -0.0313    -4.199    -1.498    -1.401 -0.1341  0.8194  0.5573
    13 C(13)  Bbb    -0.0308    -4.127    -1.473    -1.377  0.8619  0.3740 -0.3425
              Bcc     0.0620     8.326     2.971     2.777  0.4890 -0.4345  0.7564
 
              Baa    -0.0362    -4.862    -1.735    -1.622  0.9435  0.2122 -0.2544
    14 C(13)  Bbb    -0.0327    -4.388    -1.566    -1.464  0.2202  0.1720  0.9602
              Bcc     0.0689     9.250     3.301     3.085 -0.2475  0.9620 -0.1155
 
              Baa    -0.0218    -2.926    -1.044    -0.976 -0.4955  0.5353  0.6841
    15 C(13)  Bbb     0.0082     1.098     0.392     0.366  0.4629 -0.5037  0.7294
              Bcc     0.0136     1.828     0.652     0.610  0.7350  0.6780  0.0018
 
              Baa    -0.0063    -0.846    -0.302    -0.282  0.1889  0.9133  0.3608
    16 C(13)  Bbb    -0.0003    -0.041    -0.015    -0.014 -0.2033 -0.3231  0.9243
              Bcc     0.0066     0.888     0.317     0.296  0.9607 -0.2480  0.1246
 
              Baa    -0.0112    -1.503    -0.536    -0.501 -0.4420 -0.1184  0.8891
    17 C(13)  Bbb     0.0052     0.702     0.251     0.234  0.8913 -0.1695  0.4205
              Bcc     0.0060     0.801     0.286     0.267  0.1009  0.9784  0.1805
 
              Baa    -0.0155    -2.075    -0.741    -0.692  0.7772 -0.2343  0.5841
    18 C(13)  Bbb    -0.0133    -1.791    -0.639    -0.598  0.2544  0.9659  0.0489
              Bcc     0.0288     3.867     1.380     1.290 -0.5756  0.1105  0.8102
 
              Baa    -0.0165    -2.218    -0.791    -0.740  0.9338  0.0112  0.3577
    19 C(13)  Bbb    -0.0156    -2.087    -0.745    -0.696 -0.1678  0.8965  0.4099
              Bcc     0.0321     4.305     1.536     1.436 -0.3161 -0.4428  0.8390
 
              Baa    -0.0051    -0.687    -0.245    -0.229  0.8962 -0.2179  0.3865
    20 C(13)  Bbb    -0.0029    -0.391    -0.140    -0.130 -0.1675  0.6405  0.7495
              Bcc     0.0080     1.078     0.385     0.360  0.4109  0.7364 -0.5375
 
              Baa    -0.0170    -2.276    -0.812    -0.759 -0.2648 -0.6254  0.7340
    21 C(13)  Bbb     0.0080     1.069     0.381     0.356  0.9058  0.0998  0.4118
              Bcc     0.0090     1.207     0.431     0.403 -0.3308  0.7739  0.5400
 
              Baa    -0.0322    -4.322    -1.542    -1.442  0.8623 -0.4217 -0.2804
    22 C(13)  Bbb    -0.0295    -3.959    -1.413    -1.321  0.0700 -0.4492  0.8907
              Bcc     0.0617     8.281     2.955     2.762  0.5015  0.7877  0.3579
 
              Baa    -0.0007    -0.089    -0.032    -0.030 -0.1961  0.7963  0.5722
    23 C(13)  Bbb    -0.0000    -0.002    -0.001    -0.001  0.8255 -0.1808  0.5346
              Bcc     0.0007     0.091     0.032     0.030 -0.5292 -0.5772  0.6219
 
              Baa    -0.0137    -1.843    -0.658    -0.615  0.3247  0.7828  0.5309
    24 C(13)  Bbb     0.0053     0.710     0.253     0.237  0.7813 -0.5384  0.3159
              Bcc     0.0084     1.133     0.404     0.378 -0.5330 -0.3122  0.7864
 
              Baa    -0.0416    -5.589    -1.994    -1.864  0.4555  0.0924  0.8855
    25 C(13)  Bbb     0.0175     2.343     0.836     0.781  0.7413 -0.5901 -0.3198
              Bcc     0.0242     3.246     1.158     1.083  0.4930  0.8020 -0.3372
 
              Baa    -0.0155    -2.077    -0.741    -0.693  0.7274 -0.6468  0.2291
    26 C(13)  Bbb    -0.0133    -1.788    -0.638    -0.597  0.6254  0.4876 -0.6092
              Bcc     0.0288     3.866     1.379     1.289  0.2823  0.5864  0.7592
 
              Baa    -0.0597    -8.011    -2.859    -2.672  0.2065 -0.5979  0.7745
    27 C(13)  Bbb     0.0241     3.235     1.154     1.079  0.8023 -0.3496 -0.4838
              Bcc     0.0356     4.776     1.704     1.593  0.5601  0.7213  0.4075
 
              Baa    -0.0649    -8.708    -3.107    -2.905  0.8188 -0.4219 -0.3894
    28 C(13)  Bbb    -0.0627    -8.408    -3.000    -2.804  0.4871  0.8694  0.0823
              Bcc     0.1275    17.116     6.107     5.709  0.3038 -0.2570  0.9174
 
              Baa    -0.1036   -13.907    -4.962    -4.639 -0.0686  0.9264 -0.3702
    29 C(13)  Bbb     0.0447     5.992     2.138     1.999  0.8632 -0.1309 -0.4876
              Bcc     0.0590     7.915     2.824     2.640  0.5001  0.3530  0.7907
 
              Baa    -0.1293   -17.356    -6.193    -5.789 -0.4688  0.5052  0.7245
    30 C(13)  Bbb    -0.1258   -16.876    -6.022    -5.629  0.8795  0.3430  0.3299
              Bcc     0.2551    34.232    12.215    11.418 -0.0818  0.7919 -0.6052
 
              Baa    -0.2540   -34.082   -12.161   -11.369  0.8593  0.0719  0.5063
    31 C(13)  Bbb    -0.2461   -33.023   -11.784   -11.015 -0.5107  0.1713  0.8425
              Bcc     0.5001    67.105    23.945    22.384  0.0261  0.9826 -0.1839
 
              Baa    -0.1055   -14.158    -5.052    -4.723  0.9754  0.2084 -0.0718
    32 C(13)  Bbb    -0.1008   -13.531    -4.828    -4.513  0.1777 -0.5508  0.8155
              Bcc     0.2063    27.689     9.880     9.236 -0.1305  0.8082  0.5743
 
              Baa    -0.0488    -6.546    -2.336    -2.184 -0.2219  0.5134  0.8289
    33 C(13)  Bbb     0.0197     2.644     0.943     0.882  0.9461  0.3191  0.0556
              Bcc     0.0291     3.902     1.392     1.302 -0.2360  0.7966 -0.5566
 
              Baa    -0.0931   -12.499    -4.460    -4.169  0.1216  0.9614  0.2470
    34 C(13)  Bbb     0.0352     4.720     1.684     1.574  0.9497 -0.1850  0.2527
              Bcc     0.0580     7.779     2.776     2.595 -0.2886 -0.2039  0.9355
 
              Baa    -0.0226    -3.037    -1.084    -1.013 -0.0993 -0.1875  0.9772
    35 C(13)  Bbb     0.0098     1.320     0.471     0.440  0.9884 -0.1316  0.0752
              Bcc     0.0128     1.717     0.613     0.573  0.1145  0.9734  0.1984
 
              Baa    -0.0572    -7.672    -2.738    -2.559  0.9849 -0.1623  0.0608
    36 C(13)  Bbb    -0.0548    -7.351    -2.623    -2.452  0.1704  0.9710 -0.1676
              Bcc     0.1119    15.022     5.360     5.011 -0.0319  0.1754  0.9840
 
              Baa    -0.0180    -2.414    -0.861    -0.805  0.9629  0.1238 -0.2400
    37 C(13)  Bbb    -0.0170    -2.275    -0.812    -0.759 -0.0358  0.9394  0.3411
              Bcc     0.0349     4.689     1.673     1.564  0.2676 -0.3198  0.9089
 
              Baa    -0.0204    -2.739    -0.977    -0.914  0.9889 -0.1288 -0.0742
    38 C(13)  Bbb    -0.0186    -2.497    -0.891    -0.833  0.1420  0.6703  0.7284
              Bcc     0.0390     5.236     1.868     1.746  0.0441  0.7308 -0.6811
 
              Baa    -0.0151    -2.023    -0.722    -0.675  0.2505 -0.5691  0.7832
    39 C(13)  Bbb     0.0065     0.878     0.313     0.293  0.9258 -0.0957 -0.3657
              Bcc     0.0085     1.144     0.408     0.382  0.2831  0.8167  0.5029
 
              Baa    -0.0262    -3.515    -1.254    -1.172  0.0901  0.0560  0.9944
    40 C(13)  Bbb    -0.0253    -3.399    -1.213    -1.134  0.9948  0.0423 -0.0925
              Bcc     0.0515     6.914     2.467     2.306 -0.0473  0.9975 -0.0519
 
              Baa    -0.0068    -0.907    -0.324    -0.303 -0.0164  0.9624  0.2712
    41 C(13)  Bbb     0.0021     0.279     0.100     0.093  0.8945 -0.1071  0.4341
              Bcc     0.0047     0.629     0.224     0.210 -0.4468 -0.2497  0.8591
 
              Baa    -0.0160    -2.146    -0.766    -0.716 -0.1224  0.9417 -0.3135
    42 C(13)  Bbb     0.0066     0.891     0.318     0.297  0.8904 -0.0353 -0.4537
              Bcc     0.0094     1.255     0.448     0.419  0.4383  0.3347  0.8342
 
              Baa    -0.0066    -0.886    -0.316    -0.296  0.7793  0.0722  0.6224
    43 C(13)  Bbb    -0.0059    -0.794    -0.283    -0.265 -0.4979 -0.5317  0.6851
              Bcc     0.0125     1.680     0.599     0.560 -0.3804  0.8438  0.3784
 
              Baa    -0.0113    -1.515    -0.541    -0.505  0.9777  0.0978  0.1857
    44 C(13)  Bbb    -0.0106    -1.428    -0.510    -0.476 -0.0510  0.9690 -0.2419
              Bcc     0.0219     2.944     1.050     0.982 -0.2036  0.2270  0.9524
 
              Baa    -0.0157    -2.102    -0.750    -0.701  0.0742 -0.2191  0.9729
    45 C(13)  Bbb     0.0061     0.824     0.294     0.275  0.1585  0.9657  0.2054
              Bcc     0.0095     1.278     0.456     0.426  0.9846 -0.1389 -0.1064
 
              Baa    -0.0031    -0.410    -0.146    -0.137 -0.5877  0.1845  0.7878
    46 C(13)  Bbb     0.0013     0.175     0.062     0.058  0.5946  0.7587  0.2659
              Bcc     0.0018     0.235     0.084     0.078 -0.5487  0.6247 -0.5556
 
              Baa    -0.0076    -1.017    -0.363    -0.339  0.1617  0.9488 -0.2712
    47 C(13)  Bbb     0.0029     0.385     0.137     0.128  0.8917 -0.0228  0.4520
              Bcc     0.0047     0.632     0.226     0.211 -0.4227  0.3149  0.8498
 
              Baa    -0.0149    -1.993    -0.711    -0.665  0.9246  0.0285  0.3799
    48 C(13)  Bbb    -0.0072    -0.961    -0.343    -0.321 -0.2185  0.8565  0.4675
              Bcc     0.0220     2.954     1.054     0.985 -0.3120 -0.5153  0.7982
 
              Baa    -0.0759   -10.190    -3.636    -3.399  0.3682  0.9198 -0.1357
    49 C(13)  Bbb     0.0277     3.715     1.326     1.239  0.3580 -0.0055  0.9337
              Bcc     0.0482     6.475     2.310     2.160  0.8581 -0.3923 -0.3314
 
              Baa    -0.0792   -10.627    -3.792    -3.545 -0.0373  0.5561  0.8303
    50 C(13)  Bbb    -0.0742    -9.955    -3.552    -3.321  0.8644 -0.3990  0.3060
              Bcc     0.1534    20.582     7.344     6.865  0.5014  0.7291 -0.4658
 
              Baa    -0.0297    -3.989    -1.423    -1.331 -0.6364  0.7277 -0.2558
    51 C(13)  Bbb    -0.0275    -3.693    -1.318    -1.232 -0.6334 -0.3037  0.7117
              Bcc     0.0573     7.683     2.741     2.563  0.4403  0.6150  0.6542
 
              Baa    -0.0234    -3.135    -1.119    -1.046  0.1697  0.4940  0.8528
    52 C(13)  Bbb     0.0100     1.339     0.478     0.447 -0.5025  0.7877 -0.3563
              Bcc     0.0134     1.796     0.641     0.599  0.8478  0.3680 -0.3819
 
              Baa    -0.0072    -0.969    -0.346    -0.323  0.4381  0.1595  0.8847
    53 C(13)  Bbb     0.0030     0.398     0.142     0.133 -0.6513  0.7347  0.1901
              Bcc     0.0043     0.571     0.204     0.190  0.6196  0.6594 -0.4257
 
              Baa    -0.0309    -4.146    -1.480    -1.383 -0.0606 -0.2370  0.9696
    54 C(13)  Bbb    -0.0291    -3.908    -1.394    -1.304 -0.6806  0.7204  0.1336
              Bcc     0.0600     8.054     2.874     2.687  0.7301  0.6518  0.2050
 
              Baa    -0.0031    -0.418    -0.149    -0.139  0.7493  0.5331  0.3928
    55 C(13)  Bbb     0.0009     0.121     0.043     0.040 -0.4587 -0.0099  0.8885
              Bcc     0.0022     0.297     0.106     0.099 -0.4775  0.8460 -0.2371
 
              Baa    -0.0202    -2.711    -0.968    -0.904  0.8850  0.4572  0.0882
    56 C(13)  Bbb     0.0087     1.170     0.417     0.390  0.2250 -0.5858  0.7786
              Bcc     0.0115     1.542     0.550     0.514 -0.4076  0.6692  0.6213
 
              Baa    -0.0043    -0.577    -0.206    -0.193  0.7224 -0.6012  0.3415
    57 C(13)  Bbb     0.0021     0.286     0.102     0.095 -0.1729  0.3212  0.9311
              Bcc     0.0022     0.292     0.104     0.097  0.6695  0.7317 -0.1281
 
              Baa    -0.0062    -0.826    -0.295    -0.276 -0.0837  0.2358  0.9682
    58 C(13)  Bbb    -0.0055    -0.738    -0.263    -0.246  0.9102  0.4135 -0.0220
              Bcc     0.0117     1.564     0.558     0.522 -0.4055  0.8794 -0.2493
 
              Baa    -0.0113    -1.515    -0.541    -0.506 -0.6869  0.7041  0.1800
    59 C(13)  Bbb     0.0048     0.644     0.230     0.215  0.3485  0.1018  0.9318
              Bcc     0.0065     0.871     0.311     0.291  0.6378  0.7027 -0.3153
 
              Baa    -0.0034    -0.453    -0.162    -0.151  0.5854  0.8091 -0.0506
    60 C(13)  Bbb    -0.0028    -0.371    -0.132    -0.124 -0.3763  0.3265  0.8671
              Bcc     0.0061     0.824     0.294     0.275  0.7181 -0.4885  0.4956
 
              Baa    -0.0033    -0.437    -0.156    -0.146 -0.4941 -0.5404  0.6810
    61 C(13)  Bbb    -0.0013    -0.170    -0.061    -0.057  0.5765  0.3827  0.7219
              Bcc     0.0045     0.607     0.217     0.202 -0.6507  0.7494  0.1225
 
              Baa    -0.0106    -1.426    -0.509    -0.476  0.6075  0.4107  0.6799
    62 C(13)  Bbb    -0.0073    -0.973    -0.347    -0.325 -0.4462  0.8846 -0.1356
              Bcc     0.0179     2.399     0.856     0.800 -0.6571 -0.2210  0.7206
 
              Baa    -0.0298    -4.001    -1.428    -1.334  0.8099  0.4536 -0.3719
    63 C(13)  Bbb     0.0108     1.452     0.518     0.484  0.0901  0.5304  0.8430
              Bcc     0.0190     2.549     0.909     0.850 -0.5797  0.7162 -0.3887
 
              Baa    -0.0410    -5.502    -1.963    -1.835  0.0941  0.0533  0.9941
    64 C(13)  Bbb    -0.0387    -5.191    -1.852    -1.732 -0.2009  0.9790 -0.0334
              Bcc     0.0797    10.693     3.816     3.567  0.9751  0.1966 -0.1029
 
              Baa    -0.0200    -2.679    -0.956    -0.894  0.3228 -0.0202  0.9463
    65 C(13)  Bbb    -0.0194    -2.606    -0.930    -0.869  0.3897  0.9139 -0.1134
              Bcc     0.0394     5.286     1.886     1.763  0.8625 -0.4054 -0.3029
 
              Baa    -0.0032    -0.436    -0.156    -0.145  0.8549 -0.3431 -0.3892
    66 C(13)  Bbb    -0.0001    -0.011    -0.004    -0.004  0.2564 -0.3728  0.8918
              Bcc     0.0033     0.447     0.159     0.149  0.4510  0.8622  0.2307
 
              Baa    -0.0111    -0.581    -0.207    -0.194  0.8772  0.4651  0.1195
    67 Cl(35) Bbb     0.0034     0.178     0.064     0.059  0.0428 -0.3237  0.9452
              Bcc     0.0077     0.403     0.144     0.134 -0.4783  0.8240  0.3039
 
              Baa    -0.0481    -2.516    -0.898    -0.839  0.9832 -0.1511  0.1019
    68 Cl(35) Bbb     0.0235     1.228     0.438     0.410 -0.1394 -0.2634  0.9546
              Bcc     0.0246     1.288     0.459     0.430  0.1174  0.9528  0.2800
 
              Baa    -0.0216    -1.129    -0.403    -0.377  0.9725 -0.1522 -0.1760
    69 Cl(35) Bbb     0.0087     0.454     0.162     0.151  0.2324  0.5942  0.7700
              Bcc     0.0129     0.675     0.241     0.225  0.0126  0.7897 -0.6133
 
              Baa    -0.0828    -4.332    -1.546    -1.445  0.7625  0.6304 -0.1458
    70 Cl(35) Bbb    -0.0679    -3.556    -1.269    -1.186  0.1619  0.0323  0.9863
              Bcc     0.1507     7.888     2.815     2.631 -0.6264  0.7756  0.0774
 
              Baa    -0.0147    -0.769    -0.274    -0.257  0.8010  0.4884 -0.3461
    71 Cl(35) Bbb     0.0044     0.231     0.082     0.077  0.4571 -0.1257  0.8805
              Bcc     0.0103     0.538     0.192     0.179 -0.3866  0.8635  0.3239
 
              Baa    -0.0175    -0.916    -0.327    -0.306 -0.2018  0.4275  0.8812
    72 Cl(35) Bbb    -0.0023    -0.119    -0.042    -0.040  0.9284 -0.2032  0.3112
              Bcc     0.0198     1.035     0.369     0.345  0.3121  0.8809 -0.3559
 
              Baa    -0.2230   -11.672    -4.165    -3.893 -0.2503  0.7849  0.5668
    73 Cl(35) Bbb    -0.2112   -11.056    -3.945    -3.688  0.9365  0.0478  0.3474
              Bcc     0.4343    22.728     8.110     7.581 -0.2456 -0.6178  0.7470
 

 ---------------------------------------------------------------------------------

 No NMR shielding tensors so no spin-rotation constants.
 Leave Link  601 at Sat Jul 16 14:36:20 2022, MaxMem=  1342177280 cpu:             101.0 elap:               2.4
 (Enter /home/mkliu/g16/l9999.exe)
 1\1\GINC-NODE01\FOpt\UB3LYP\6-311G(d,p)\C66Cl7(2)\MKLIU\16-Jul-2022\0\
 \#P opt b3lyp/6-311G(d, p) empiricaldispersion=GD3\\force\\0,2\C,-1.34
 76340944,1.880588968,-3.9907361615\C,0.187867161,2.2425872116,-3.99135
 97265\C,0.9709309427,0.8700671656,-4.3341369033\C,-1.3042787738,0.3995
 913176,-3.8803225949\C,-0.0868899724,-0.1762234207,-4.1825757672\C,-2.
 1713688175,-0.1326041345,-2.9335736263\C,-2.2284205882,2.2934642015,-2
 .7016322857\C,-2.722245339,0.9300682317,-2.1535376797\C,-1.4719788985,
 2.9562927593,-1.5514963874\C,0.7027941097,2.5577298671,-2.6261266123\C
 ,-0.0429340606,3.1671178304,-1.6037497307\C,1.9116899609,0.6710904177,
 -3.1452545474\C,1.8537281775,1.8205583476,-2.3101844185\C,2.2587083319
 ,-0.5417338587,-2.5979068175\C,0.1973319154,-1.418463117,-3.6566029089
 \C,1.6048148976,-1.8007445823,-3.1954833639\C,-1.9415594513,-1.4221075
 425,-2.4014817468\C,-0.76616694,-2.087152324,-2.8766412383\C,-2.464724
 1309,-1.7242514089,-1.0885897481\C,-3.1212918309,0.7091978475,-0.86593
 47612\C,-3.0760965818,-0.6457362641,-0.3092698347\C,-2.0839649782,2.91
 90807593,-0.3184793448\C,-3.2134380457,1.9347325831,0.0384532754\C,-1.
 3809459493,3.2538052677,0.8845135406\C,0.6686798289,3.4043094824,-0.39
 50480979\C,-0.024764948,3.5503667774,0.8562682318\C,2.4321611814,1.825
 1071644,-1.0104735668\C,1.9341820539,2.8113647553,-0.1280665335\C,2.87
 5812352,-0.5808617695,-1.2712929702\C,3.0310198826,0.621400432,-0.5243
 633319\C,2.9392689361,-1.8406374796,-0.5725930983\C,1.3039480359,-2.82
 41035459,-2.124920093\C,-0.100139163,-3.0550326782,-2.0455267208\C,2.0
 532897164,-2.9169208724,-0.9739449751\C,-1.9214854316,-2.8467865496,-0
 .4098142625\C,-0.7024863734,-3.4850246418,-0.8771322639\C,-1.922509552
 7,-2.9245324538,1.0130479952\C,-3.1462684172,-0.8040633472,1.091853729
 5\C,-2.5345074222,-1.9121572541,1.7505562954\C,-2.9072280382,1.6222002
 727,1.4860653366\C,-1.9224205752,2.5136460591,2.0033959934\C,-3.014900
 0227,0.3535308671,1.9895878283\C,-1.1017307074,2.1338511123,3.06971726
 82\C,0.8392234157,3.1078201138,1.9240448719\C,2.0631242604,2.647059198
 ,1.3093554007\C,0.3169443329,2.4368254232,3.0271371105\C,3.4942184741,
 0.5933560986,0.9277913853\C,2.7346946272,1.5669165687,1.8195457088\C,3
 .0119675134,-1.8701635139,0.8754686039\C,3.2154801737,-0.725787698,1.6
 088118299\C,1.473083305,-3.4961908231,0.223297814\C,0.1098416836,-3.80
 15369905,0.2677805603\C,-0.660343901,-3.4920252236,1.4533941329\C,2.10
 2550173,-2.8879573216,1.3673490049\C,-0.0347723354,-2.9809255816,2.584
 3650617\C,1.3831907773,-2.6762573729,2.5433370273\C,-1.9244895856,-1.4
 514067452,2.9867178229\C,-2.2208267174,-0.0442817846,3.1256690401\C,-1
 .2635758532,0.8265384058,3.6556332266\C,-0.6867846048,-1.9531087299,3.
 3767211205\C,1.0283419752,1.3128075003,3.5759343824\C,2.2196222261,0.8
 908794107,2.9704806958\C,2.511507366,-0.5188504572,2.8348489301\C,1.60
 14848219,-1.4724489936,3.3087214648\C,0.0512701919,0.3199469519,3.9939
 795649\C,0.334711327,-1.0367667764,3.8562488165\Cl,-2.1255559068,2.277
 1404821,-5.5804590184\Cl,0.6228355909,3.6593449125,-5.025668813\Cl,1.8
 418582393,0.8218071076,-5.9110647944\Cl,2.6433205787,-2.5346155465,-4.
 532172931\Cl,-3.6138474327,3.3941780689,-3.1378089917\Cl,-4.9151384851
 ,2.6752095262,-0.0256244011\Cl,5.3345339874,0.9845072004,0.9549905436\
 \Version=ES64L-G16RevA.03\State=2-A\HF=-5736.985619\S2=0.794001\S2-1=0
 .\S2A=0.751755\RMSD=9.853e-09\RMSF=6.772e-05\Dipole=-0.3149177,-0.8169
 912,1.3233251\Quadrupole=-8.1223569,7.4737782,0.6485787,5.399097,0.170
 8776,0.7921118\PG=C01 [X(C66Cl7)]\\@


 "WHERE SHALL I START, PLEASE YOUR MAJESTY?" HE ASKED.
 "BEGIN AT THE BEGINNING," THE KING SAID GRAVELY,
 "AND GO ON TILL YOU COME TO THE END: THEN STOP." 

                                      -- LEWIS CARROLL
 Job cpu time:       4 days 12 hours 34 minutes 40.6 seconds.
 Elapsed time:       0 days  2 hours 15 minutes 56.7 seconds.
 File lengths (MBytes):  RWF=   2038 Int=      0 D2E=      0 Chk=    183 Scr=      1
 Normal termination of Gaussian 16 at Sat Jul 16 14:36:21 2022.
