 Entering Gaussian System, Link 0=g16
 Input=dqwuc7lhwfcao_addon_9.gjf
 Output=dqwuc7lhwfcao_addon_9.log
 Initial command:
 /home/mkliu/g16/l1.exe "/data/scratch/Gau-65289.inp" -scrdir="/data/scratch/"
 Entering Link 1 = /home/mkliu/g16/l1.exe PID=     65290.
  
 Copyright (c) 1988,1990,1992,1993,1995,1998,2003,2009,2016,
            Gaussian, Inc.  All Rights Reserved.
  
 This is part of the Gaussian(R) 16 program.  It is based on
 the Gaussian(R) 09 system (copyright 2009, Gaussian, Inc.),
 the Gaussian(R) 03 system (copyright 2003, Gaussian, Inc.),
 the Gaussian(R) 98 system (copyright 1998, Gaussian, Inc.),
 the Gaussian(R) 94 system (copyright 1995, Gaussian, Inc.),
 the Gaussian 92(TM) system (copyright 1992, Gaussian, Inc.),
 the Gaussian 90(TM) system (copyright 1990, Gaussian, Inc.),
 the Gaussian 88(TM) system (copyright 1988, Gaussian, Inc.),
 the Gaussian 86(TM) system (copyright 1986, Carnegie Mellon
 University), and the Gaussian 82(TM) system (copyright 1983,
 Carnegie Mellon University). Gaussian is a federally registered
 trademark of Gaussian, Inc.
  
 This software contains proprietary and confidential information,
 including trade secrets, belonging to Gaussian, Inc.
  
 This software is provided under written license and may be
 used, copied, transmitted, or stored only in accord with that
 written license.
  
 The following legend is applicable only to US Government
 contracts under FAR:
  
                    RESTRICTED RIGHTS LEGEND
  
 Use, reproduction and disclosure by the US Government is
 subject to restrictions as set forth in subparagraphs (a)
 and (c) of the Commercial Computer Software - Restricted
 Rights clause in FAR 52.227-19.
  
 Gaussian, Inc.
 340 Quinnipiac St., Bldg. 40, Wallingford CT 06492
  
  
 ---------------------------------------------------------------
 Warning -- This program may not be used in any manner that
 competes with the business of Gaussian, Inc. or will provide
 assistance to any competitor of Gaussian, Inc.  The licensee
 of this program is prohibited from giving any competitor of
 Gaussian, Inc. access to this program.  By using this program,
 the user acknowledges that Gaussian, Inc. is engaged in the
 business of creating and licensing software in the field of
 computational chemistry and represents and warrants to the
 licensee that it is not a competitor of Gaussian, Inc. and that
 it will not use this program in any manner prohibited above.
 ---------------------------------------------------------------
  

 Cite this work as:
 Gaussian 16, Revision A.03,
 M. J. Frisch, G. W. Trucks, H. B. Schlegel, G. E. Scuseria, 
 M. A. Robb, J. R. Cheeseman, G. Scalmani, V. Barone, 
 G. A. Petersson, H. Nakatsuji, X. Li, M. Caricato, A. V. Marenich, 
 J. Bloino, B. G. Janesko, R. Gomperts, B. Mennucci, H. P. Hratchian, 
 J. V. Ortiz, A. F. Izmaylov, J. L. Sonnenberg, D. Williams-Young, 
 F. Ding, F. Lipparini, F. Egidi, J. Goings, B. Peng, A. Petrone, 
 T. Henderson, D. Ranasinghe, V. G. Zakrzewski, J. Gao, N. Rega, 
 G. Zheng, W. Liang, M. Hada, M. Ehara, K. Toyota, R. Fukuda, 
 J. Hasegawa, M. Ishida, T. Nakajima, Y. Honda, O. Kitao, H. Nakai, 
 T. Vreven, K. Throssell, J. A. Montgomery, Jr., J. E. Peralta, 
 F. Ogliaro, M. J. Bearpark, J. J. Heyd, E. N. Brothers, K. N. Kudin, 
 V. N. Staroverov, T. A. Keith, R. Kobayashi, J. Normand, 
 K. Raghavachari, A. P. Rendell, J. C. Burant, S. S. Iyengar, 
 J. Tomasi, M. Cossi, J. M. Millam, M. Klene, C. Adamo, R. Cammi, 
 J. W. Ochterski, R. L. Martin, K. Morokuma, O. Farkas, 
 J. B. Foresman, and D. J. Fox, Gaussian, Inc., Wallingford CT, 2016.
 
 ******************************************
 Gaussian 16:  ES64L-G16RevA.03 25-Dec-2016
                16-Jul-2022 
 ******************************************
 %mem=10GB
 %chk=dqwuc7lhwfcao_addon_9.chk
 %nprocshared=48
 Will use up to   48 processors via shared memory.
 -------------------------------------------------
 #P opt b3lyp/6-311G(d, p) empiricaldispersion=GD3
 -------------------------------------------------
 1/18=20,19=15,26=3,38=1/1,3;
 2/9=110,12=2,17=6,18=5,40=1/2;
 3/5=4,6=6,7=101,11=2,25=1,30=1,71=1,74=-5,124=31/1,2,3;
 4//1;
 5/5=2,38=5/2;
 6/7=2,8=2,9=2,10=2,28=1/1;
 7//1,2,3,16;
 1/18=20,19=15,26=3/3(2);
 2/9=110/2;
 99//99;
 2/9=110/2;
 3/5=4,6=6,7=101,11=2,25=1,30=1,71=1,74=-5,124=31/1,2,3;
 4/5=5,16=3,69=1/1;
 5/5=2,38=5/2;
 7//1,2,3,16;
 1/18=20,19=15,26=3/3(-5);
 2/9=110/2;
 6/7=2,8=2,9=2,10=2,19=2,28=1/1;
 99/9=1/99;
 Leave Link    1 at Sat Jul 16 13:22:20 2022, MaxMem=  1342177280 cpu:               2.2 elap:               0.1
 (Enter /home/mkliu/g16/l101.exe)
 -----
 force
 -----
 Symbolic Z-matrix:
 Charge =  0 Multiplicity = 2
 C                    -1.35579   1.87032  -3.94822 
 C                     0.16878   2.21576  -3.98564 
 C                     0.97151   0.90724  -4.28435 
 C                    -1.25961   0.40913  -3.79281 
 C                    -0.05136  -0.15291  -4.10491 
 C                    -2.11827  -0.11681  -2.85143 
 C                    -2.21635   2.28191  -2.71724 
 C                    -2.71527   0.94863  -2.12336 
 C                    -1.48677   2.89515  -1.54758 
 C                     0.64773   2.52981  -2.62603 
 C                    -0.0605    3.11941  -1.59497 
 C                     1.85036   0.67246  -3.07568 
 C                     1.78793   1.77774  -2.23038 
 C                     2.21014  -0.55155  -2.53344 
 C                     0.22326  -1.3955   -3.58124 
 C                     1.62047  -1.80693  -3.16769 
 C                    -1.9049   -1.39027  -2.33079 
 C                    -0.7354   -2.04393  -2.78816 
 C                    -2.4674   -1.68557  -1.04485 
 C                    -3.13655   0.71618  -0.85167 
 C                    -3.08946  -0.63002  -0.29281 
 C                    -2.09451   2.8386   -0.33197 
 C                    -3.25161   1.92533   0.03998 
 C                    -1.38321   3.17084   0.85855 
 C                     0.66013   3.34665  -0.39993 
 C                    -0.01601   3.42293   0.80873 
 C                     2.38104   1.76613  -0.97558 
 C                     2.09976   2.96686  -0.13582 
 C                     2.83447  -0.58753  -1.26247 
 C                     2.94788   0.58809  -0.49717 
 C                     3.14607  -1.93877  -0.63633 
 C                     1.31456  -2.81323  -2.09768 
 C                    -0.09329  -3.02148  -1.99223 
 C                     2.05367  -2.91765  -0.96822 
 C                    -1.93162  -2.80704  -0.37995 
 C                    -0.71574  -3.43288  -0.84183 
 C                    -1.94697  -2.89347   1.03776 
 C                    -3.17498  -0.79194   1.09353 
 C                    -2.57052  -1.89424   1.76149 
 C                    -2.95258   1.62315   1.4703 
 C                    -1.92951   2.4899    1.97061 
 C                    -3.05607   0.36847   1.98194 
 C                    -1.10576   2.09093   3.02245 
 C                     0.8457    3.01848   1.8871 
 C                     2.0825    2.61171   1.31623 
 C                     0.29997   2.37151   2.97128 
 C                     3.50802   0.58033   0.91629 
 C                     2.74597   1.53336   1.79947 
 C                     3.02666  -1.87526   0.86339 
 C                     3.21039  -0.73626   1.57415 
 C                     1.45133  -3.44511   0.21694 
 C                     0.10081  -3.74979   0.27927 
 C                    -0.68062  -3.44836   1.44476 
 C                     2.07984  -2.83876   1.33878 
 C                    -0.05694  -2.9322    2.55836 
 C                     1.34773  -2.63141   2.4956 
 C                    -1.96294  -1.43571   2.98388 
 C                    -2.25243  -0.03869   3.10704 
 C                    -1.28065   0.80784   3.61227 
 C                    -0.72117  -1.92855   3.34637 
 C                     1.01915   1.26574   3.52421 
 C                     2.20708   0.85906   2.9377 
 C                     2.49007  -0.53273   2.79706 
 C                     1.56452  -1.45176   3.2542 
 C                     0.03494   0.31168   3.94324 
 C                     0.30574  -1.03538   3.81024 
 Cl                   -2.11311   2.30616  -5.51086 
 Cl                    0.46718   3.64108  -5.03991 
 Cl                    1.85902   0.80415  -5.80968 
 Cl                    2.68962  -2.40663  -4.46732 
 Cl                   -3.58673   3.36133  -3.12763 
 Cl                   -4.87985   2.67827  -0.17877 
 Cl                    4.78633  -2.45156  -1.20283 
 Cl                    5.2699    0.95303   0.7919 
 Cl                    3.30481   4.28303  -0.48943 
 
 ITRead=  0  0  0  0  0  0  0  0  0  0  0  0  0  0  0  0  0  0  0  0
 ITRead=  0  0  0  0  0  0  0  0  0  0  0  0  0  0  0  0  0  0  0  0
 ITRead=  0  0  0  0  0  0  0  0  0  0  0  0  0  0  0  0  0  0  0  0
 ITRead=  0  0  0  0  0  0  0  0  0  0  0  0  0  0  0
 MicOpt= -1 -1 -1 -1 -1 -1 -1 -1 -1 -1 -1 -1 -1 -1 -1 -1 -1 -1 -1 -1
 MicOpt= -1 -1 -1 -1 -1 -1 -1 -1 -1 -1 -1 -1 -1 -1 -1 -1 -1 -1 -1 -1
 MicOpt= -1 -1 -1 -1 -1 -1 -1 -1 -1 -1 -1 -1 -1 -1 -1 -1 -1 -1 -1 -1
 MicOpt= -1 -1 -1 -1 -1 -1 -1 -1 -1 -1 -1 -1 -1 -1 -1
 NAtoms=     75 NQM=       75 NQMF=       0 NMMI=      0 NMMIF=      0
                NMic=       0 NMicF=      0.
                    Isotopes and Nuclear Properties:
 (Nuclear quadrupole moments (NQMom) in fm**2, nuclear magnetic moments (NMagM)
  in nuclear magnetons)

  Atom         1           2           3           4           5           6           7           8           9          10
 IAtWgt=          12          12          12          12          12          12          12          12          12          12
 AtmWgt=  12.0000000  12.0000000  12.0000000  12.0000000  12.0000000  12.0000000  12.0000000  12.0000000  12.0000000  12.0000000
 NucSpn=           0           0           0           0           0           0           0           0           0           0
 AtZEff=  -0.0000000  -0.0000000  -0.0000000  -0.0000000  -0.0000000  -0.0000000  -0.0000000  -0.0000000  -0.0000000  -0.0000000
 NQMom=    0.0000000   0.0000000   0.0000000   0.0000000   0.0000000   0.0000000   0.0000000   0.0000000   0.0000000   0.0000000
 NMagM=    0.0000000   0.0000000   0.0000000   0.0000000   0.0000000   0.0000000   0.0000000   0.0000000   0.0000000   0.0000000
 AtZNuc=   6.0000000   6.0000000   6.0000000   6.0000000   6.0000000   6.0000000   6.0000000   6.0000000   6.0000000   6.0000000

  Atom        11          12          13          14          15          16          17          18          19          20
 IAtWgt=          12          12          12          12          12          12          12          12          12          12
 AtmWgt=  12.0000000  12.0000000  12.0000000  12.0000000  12.0000000  12.0000000  12.0000000  12.0000000  12.0000000  12.0000000
 NucSpn=           0           0           0           0           0           0           0           0           0           0
 AtZEff=  -0.0000000  -0.0000000  -0.0000000  -0.0000000  -0.0000000  -0.0000000  -0.0000000  -0.0000000  -0.0000000  -0.0000000
 NQMom=    0.0000000   0.0000000   0.0000000   0.0000000   0.0000000   0.0000000   0.0000000   0.0000000   0.0000000   0.0000000
 NMagM=    0.0000000   0.0000000   0.0000000   0.0000000   0.0000000   0.0000000   0.0000000   0.0000000   0.0000000   0.0000000
 AtZNuc=   6.0000000   6.0000000   6.0000000   6.0000000   6.0000000   6.0000000   6.0000000   6.0000000   6.0000000   6.0000000

  Atom        21          22          23          24          25          26          27          28          29          30
 IAtWgt=          12          12          12          12          12          12          12          12          12          12
 AtmWgt=  12.0000000  12.0000000  12.0000000  12.0000000  12.0000000  12.0000000  12.0000000  12.0000000  12.0000000  12.0000000
 NucSpn=           0           0           0           0           0           0           0           0           0           0
 AtZEff=  -0.0000000  -0.0000000  -0.0000000  -0.0000000  -0.0000000  -0.0000000  -0.0000000  -0.0000000  -0.0000000  -0.0000000
 NQMom=    0.0000000   0.0000000   0.0000000   0.0000000   0.0000000   0.0000000   0.0000000   0.0000000   0.0000000   0.0000000
 NMagM=    0.0000000   0.0000000   0.0000000   0.0000000   0.0000000   0.0000000   0.0000000   0.0000000   0.0000000   0.0000000
 AtZNuc=   6.0000000   6.0000000   6.0000000   6.0000000   6.0000000   6.0000000   6.0000000   6.0000000   6.0000000   6.0000000

  Atom        31          32          33          34          35          36          37          38          39          40
 IAtWgt=          12          12          12          12          12          12          12          12          12          12
 AtmWgt=  12.0000000  12.0000000  12.0000000  12.0000000  12.0000000  12.0000000  12.0000000  12.0000000  12.0000000  12.0000000
 NucSpn=           0           0           0           0           0           0           0           0           0           0
 AtZEff=  -0.0000000  -0.0000000  -0.0000000  -0.0000000  -0.0000000  -0.0000000  -0.0000000  -0.0000000  -0.0000000  -0.0000000
 NQMom=    0.0000000   0.0000000   0.0000000   0.0000000   0.0000000   0.0000000   0.0000000   0.0000000   0.0000000   0.0000000
 NMagM=    0.0000000   0.0000000   0.0000000   0.0000000   0.0000000   0.0000000   0.0000000   0.0000000   0.0000000   0.0000000
 AtZNuc=   6.0000000   6.0000000   6.0000000   6.0000000   6.0000000   6.0000000   6.0000000   6.0000000   6.0000000   6.0000000

  Atom        41          42          43          44          45          46          47          48          49          50
 IAtWgt=          12          12          12          12          12          12          12          12          12          12
 AtmWgt=  12.0000000  12.0000000  12.0000000  12.0000000  12.0000000  12.0000000  12.0000000  12.0000000  12.0000000  12.0000000
 NucSpn=           0           0           0           0           0           0           0           0           0           0
 AtZEff=  -0.0000000  -0.0000000  -0.0000000  -0.0000000  -0.0000000  -0.0000000  -0.0000000  -0.0000000  -0.0000000  -0.0000000
 NQMom=    0.0000000   0.0000000   0.0000000   0.0000000   0.0000000   0.0000000   0.0000000   0.0000000   0.0000000   0.0000000
 NMagM=    0.0000000   0.0000000   0.0000000   0.0000000   0.0000000   0.0000000   0.0000000   0.0000000   0.0000000   0.0000000
 AtZNuc=   6.0000000   6.0000000   6.0000000   6.0000000   6.0000000   6.0000000   6.0000000   6.0000000   6.0000000   6.0000000

  Atom        51          52          53          54          55          56          57          58          59          60
 IAtWgt=          12          12          12          12          12          12          12          12          12          12
 AtmWgt=  12.0000000  12.0000000  12.0000000  12.0000000  12.0000000  12.0000000  12.0000000  12.0000000  12.0000000  12.0000000
 NucSpn=           0           0           0           0           0           0           0           0           0           0
 AtZEff=  -0.0000000  -0.0000000  -0.0000000  -0.0000000  -0.0000000  -0.0000000  -0.0000000  -0.0000000  -0.0000000  -0.0000000
 NQMom=    0.0000000   0.0000000   0.0000000   0.0000000   0.0000000   0.0000000   0.0000000   0.0000000   0.0000000   0.0000000
 NMagM=    0.0000000   0.0000000   0.0000000   0.0000000   0.0000000   0.0000000   0.0000000   0.0000000   0.0000000   0.0000000
 AtZNuc=   6.0000000   6.0000000   6.0000000   6.0000000   6.0000000   6.0000000   6.0000000   6.0000000   6.0000000   6.0000000

  Atom        61          62          63          64          65          66          67          68          69          70
 IAtWgt=          12          12          12          12          12          12          35          35          35          35
 AtmWgt=  12.0000000  12.0000000  12.0000000  12.0000000  12.0000000  12.0000000  34.9688527  34.9688527  34.9688527  34.9688527
 NucSpn=           0           0           0           0           0           0           3           3           3           3
 AtZEff=  -0.0000000  -0.0000000  -0.0000000  -0.0000000  -0.0000000  -0.0000000  -0.0000000  -0.0000000  -0.0000000  -0.0000000
 NQMom=    0.0000000   0.0000000   0.0000000   0.0000000   0.0000000   0.0000000  -8.1650000  -8.1650000  -8.1650000  -8.1650000
 NMagM=    0.0000000   0.0000000   0.0000000   0.0000000   0.0000000   0.0000000   0.8218740   0.8218740   0.8218740   0.8218740
 AtZNuc=   6.0000000   6.0000000   6.0000000   6.0000000   6.0000000   6.0000000  17.0000000  17.0000000  17.0000000  17.0000000

  Atom        71          72          73          74          75
 IAtWgt=          35          35          35          35          35
 AtmWgt=  34.9688527  34.9688527  34.9688527  34.9688527  34.9688527
 NucSpn=           3           3           3           3           3
 AtZEff=  -0.0000000  -0.0000000  -0.0000000  -0.0000000  -0.0000000
 NQMom=   -8.1650000  -8.1650000  -8.1650000  -8.1650000  -8.1650000
 NMagM=    0.8218740   0.8218740   0.8218740   0.8218740   0.8218740
 AtZNuc=  17.0000000  17.0000000  17.0000000  17.0000000  17.0000000
 Leave Link  101 at Sat Jul 16 13:22:20 2022, MaxMem=  1342177280 cpu:              13.0 elap:               0.3
 (Enter /home/mkliu/g16/l103.exe)

 GradGradGradGradGradGradGradGradGradGradGradGradGradGradGradGradGradGrad
 Berny optimization.
 Initialization pass.
                           ----------------------------
                           !    Initial Parameters    !
                           ! (Angstroms and Degrees)  !
 --------------------------                            --------------------------
 ! Name  Definition              Value          Derivative Info.                !
 --------------------------------------------------------------------------------
 ! R1    R(1,2)                  1.5637         estimate D2E/DX2                !
 ! R2    R(1,4)                  1.4726         estimate D2E/DX2                !
 ! R3    R(1,7)                  1.5573         estimate D2E/DX2                !
 ! R4    R(1,67)                 1.7903         estimate D2E/DX2                !
 ! R5    R(2,3)                  1.5639         estimate D2E/DX2                !
 ! R6    R(2,10)                 1.4753         estimate D2E/DX2                !
 ! R7    R(2,68)                 1.7978         estimate D2E/DX2                !
 ! R8    R(3,5)                  1.484          estimate D2E/DX2                !
 ! R9    R(3,12)                 1.5127         estimate D2E/DX2                !
 ! R10   R(3,69)                 1.7677         estimate D2E/DX2                !
 ! R11   R(4,5)                  1.3686         estimate D2E/DX2                !
 ! R12   R(4,6)                  1.3784         estimate D2E/DX2                !
 ! R13   R(5,15)                 1.3761         estimate D2E/DX2                !
 ! R14   R(6,8)                  1.4218         estimate D2E/DX2                !
 ! R15   R(6,17)                 1.3922         estimate D2E/DX2                !
 ! R16   R(7,8)                  1.5425         estimate D2E/DX2                !
 ! R17   R(7,9)                  1.5088         estimate D2E/DX2                !
 ! R18   R(7,71)                 1.7921         estimate D2E/DX2                !
 ! R19   R(8,20)                 1.3597         estimate D2E/DX2                !
 ! R20   R(9,11)                 1.4446         estimate D2E/DX2                !
 ! R21   R(9,22)                 1.3602         estimate D2E/DX2                !
 ! R22   R(10,11)                1.3829         estimate D2E/DX2                !
 ! R23   R(10,13)                1.422          estimate D2E/DX2                !
 ! R24   R(11,25)                1.4139         estimate D2E/DX2                !
 ! R25   R(12,13)                1.3929         estimate D2E/DX2                !
 ! R26   R(12,14)                1.3862         estimate D2E/DX2                !
 ! R27   R(13,27)                1.388          estimate D2E/DX2                !
 ! R28   R(14,16)                1.5251         estimate D2E/DX2                !
 ! R29   R(14,29)                1.4165         estimate D2E/DX2                !
 ! R30   R(15,16)                1.5141         estimate D2E/DX2                !
 ! R31   R(15,18)                1.403          estimate D2E/DX2                !
 ! R32   R(16,32)                1.5004         estimate D2E/DX2                !
 ! R33   R(16,70)                1.7865         estimate D2E/DX2                !
 ! R34   R(17,18)                1.4157         estimate D2E/DX2                !
 ! R35   R(17,19)                1.4343         estimate D2E/DX2                !
 ! R36   R(18,33)                1.4147         estimate D2E/DX2                !
 ! R37   R(19,21)                1.4376         estimate D2E/DX2                !
 ! R38   R(19,35)                1.4096         estimate D2E/DX2                !
 ! R39   R(20,21)                1.4583         estimate D2E/DX2                !
 ! R40   R(20,23)                1.5068         estimate D2E/DX2                !
 ! R41   R(21,38)                1.3984         estimate D2E/DX2                !
 ! R42   R(22,23)                1.5203         estimate D2E/DX2                !
 ! R43   R(22,24)                1.4261         estimate D2E/DX2                !
 ! R44   R(23,40)                1.4922         estimate D2E/DX2                !
 ! R45   R(23,72)                1.8072         estimate D2E/DX2                !
 ! R46   R(24,26)                1.3911         estimate D2E/DX2                !
 ! R47   R(24,41)                1.4138         estimate D2E/DX2                !
 ! R48   R(25,26)                1.387          estimate D2E/DX2                !
 ! R49   R(25,28)                1.5121         estimate D2E/DX2                !
 ! R50   R(26,44)                1.4384         estimate D2E/DX2                !
 ! R51   R(27,28)                1.492          estimate D2E/DX2                !
 ! R52   R(27,30)                1.3921         estimate D2E/DX2                !
 ! R53   R(28,45)                1.4949         estimate D2E/DX2                !
 ! R54   R(28,75)                1.8192         estimate D2E/DX2                !
 ! R55   R(29,30)                1.4073         estimate D2E/DX2                !
 ! R56   R(29,31)                1.5215         estimate D2E/DX2                !
 ! R57   R(30,47)                1.5204         estimate D2E/DX2                !
 ! R58   R(31,34)                1.5039         estimate D2E/DX2                !
 ! R59   R(31,49)                1.5058         estimate D2E/DX2                !
 ! R60   R(31,73)                1.8095         estimate D2E/DX2                !
 ! R61   R(32,33)                1.4271         estimate D2E/DX2                !
 ! R62   R(32,34)                1.3538         estimate D2E/DX2                !
 ! R63   R(33,36)                1.3712         estimate D2E/DX2                !
 ! R64   R(34,51)                1.4303         estimate D2E/DX2                !
 ! R65   R(35,36)                1.4434         estimate D2E/DX2                !
 ! R66   R(35,37)                1.4204         estimate D2E/DX2                !
 ! R67   R(36,52)                1.4227         estimate D2E/DX2                !
 ! R68   R(37,39)                1.3824         estimate D2E/DX2                !
 ! R69   R(37,53)                1.4412         estimate D2E/DX2                !
 ! R70   R(38,39)                1.4236         estimate D2E/DX2                !
 ! R71   R(38,42)                1.4663         estimate D2E/DX2                !
 ! R72   R(39,57)                1.44           estimate D2E/DX2                !
 ! R73   R(40,41)                1.4312         estimate D2E/DX2                !
 ! R74   R(40,42)                1.3589         estimate D2E/DX2                !
 ! R75   R(41,43)                1.3943         estimate D2E/DX2                !
 ! R76   R(42,58)                1.4413         estimate D2E/DX2                !
 ! R77   R(43,46)                1.4344         estimate D2E/DX2                !
 ! R78   R(43,59)                1.4229         estimate D2E/DX2                !
 ! R79   R(44,45)                1.4216         estimate D2E/DX2                !
 ! R80   R(44,46)                1.3754         estimate D2E/DX2                !
 ! R81   R(45,48)                1.3552         estimate D2E/DX2                !
 ! R82   R(46,61)                1.4303         estimate D2E/DX2                !
 ! R83   R(47,48)                1.5063         estimate D2E/DX2                !
 ! R84   R(47,50)                1.5016         estimate D2E/DX2                !
 ! R85   R(47,74)                1.8052         estimate D2E/DX2                !
 ! R86   R(48,62)                1.4285         estimate D2E/DX2                !
 ! R87   R(49,50)                1.3551         estimate D2E/DX2                !
 ! R88   R(49,54)                1.4321         estimate D2E/DX2                !
 ! R89   R(50,63)                1.4338         estimate D2E/DX2                !
 ! R90   R(51,52)                1.3859         estimate D2E/DX2                !
 ! R91   R(51,54)                1.4217         estimate D2E/DX2                !
 ! R92   R(52,53)                1.4352         estimate D2E/DX2                !
 ! R93   R(53,55)                1.3768         estimate D2E/DX2                !
 ! R94   R(54,56)                1.3846         estimate D2E/DX2                !
 ! R95   R(55,56)                1.4379         estimate D2E/DX2                !
 ! R96   R(55,60)                1.4386         estimate D2E/DX2                !
 ! R97   R(56,64)                1.4192         estimate D2E/DX2                !
 ! R98   R(57,58)                1.432          estimate D2E/DX2                !
 ! R99   R(57,60)                1.3843         estimate D2E/DX2                !
 ! R100  R(58,59)                1.3843         estimate D2E/DX2                !
 ! R101  R(59,65)                1.4445         estimate D2E/DX2                !
 ! R102  R(60,66)                1.4379         estimate D2E/DX2                !
 ! R103  R(61,62)                1.3858         estimate D2E/DX2                !
 ! R104  R(61,65)                1.4333         estimate D2E/DX2                !
 ! R105  R(62,63)                1.4272         estimate D2E/DX2                !
 ! R106  R(63,64)                1.3821         estimate D2E/DX2                !
 ! R107  R(64,66)                1.4377         estimate D2E/DX2                !
 ! R108  R(65,66)                1.3804         estimate D2E/DX2                !
 ! A1    A(2,1,4)               99.0939         estimate D2E/DX2                !
 ! A2    A(2,1,7)              119.9539         estimate D2E/DX2                !
 ! A3    A(2,1,67)             109.7406         estimate D2E/DX2                !
 ! A4    A(4,1,7)              102.4109         estimate D2E/DX2                !
 ! A5    A(4,1,67)             111.1797         estimate D2E/DX2                !
 ! A6    A(7,1,67)             113.068          estimate D2E/DX2                !
 ! A7    A(1,2,3)              108.6739         estimate D2E/DX2                !
 ! A8    A(1,2,10)             109.9684         estimate D2E/DX2                !
 ! A9    A(1,2,68)             110.5492         estimate D2E/DX2                !
 ! A10   A(3,2,10)             100.8066         estimate D2E/DX2                !
 ! A11   A(3,2,68)             117.7842         estimate D2E/DX2                !
 ! A12   A(10,2,68)            108.5287         estimate D2E/DX2                !
 ! A13   A(2,3,5)              102.7581         estimate D2E/DX2                !
 ! A14   A(2,3,12)             105.9887         estimate D2E/DX2                !
 ! A15   A(2,3,69)             118.1185         estimate D2E/DX2                !
 ! A16   A(5,3,12)             101.1249         estimate D2E/DX2                !
 ! A17   A(5,3,69)             114.1242         estimate D2E/DX2                !
 ! A18   A(12,3,69)            112.8733         estimate D2E/DX2                !
 ! A19   A(1,4,5)              116.1726         estimate D2E/DX2                !
 ! A20   A(1,4,6)              114.2036         estimate D2E/DX2                !
 ! A21   A(5,4,6)              123.2965         estimate D2E/DX2                !
 ! A22   A(3,5,4)              110.0409         estimate D2E/DX2                !
 ! A23   A(3,5,15)             123.6093         estimate D2E/DX2                !
 ! A24   A(4,5,15)             117.4004         estimate D2E/DX2                !
 ! A25   A(4,6,8)              108.9862         estimate D2E/DX2                !
 ! A26   A(4,6,17)             120.5919         estimate D2E/DX2                !
 ! A27   A(8,6,17)             123.9361         estimate D2E/DX2                !
 ! A28   A(1,7,8)              104.7509         estimate D2E/DX2                !
 ! A29   A(1,7,9)              116.9352         estimate D2E/DX2                !
 ! A30   A(1,7,71)             113.6241         estimate D2E/DX2                !
 ! A31   A(8,7,9)              102.0788         estimate D2E/DX2                !
 ! A32   A(8,7,71)             111.1907         estimate D2E/DX2                !
 ! A33   A(9,7,71)             107.607          estimate D2E/DX2                !
 ! A34   A(6,8,7)              108.3459         estimate D2E/DX2                !
 ! A35   A(6,8,20)             118.7448         estimate D2E/DX2                !
 ! A36   A(7,8,20)             127.4517         estimate D2E/DX2                !
 ! A37   A(7,9,11)             121.0039         estimate D2E/DX2                !
 ! A38   A(7,9,22)             117.3774         estimate D2E/DX2                !
 ! A39   A(11,9,22)            118.4833         estimate D2E/DX2                !
 ! A40   A(2,10,11)            127.7061         estimate D2E/DX2                !
 ! A41   A(2,10,13)            113.8363         estimate D2E/DX2                !
 ! A42   A(11,10,13)           115.3847         estimate D2E/DX2                !
 ! A43   A(9,11,10)            117.6413         estimate D2E/DX2                !
 ! A44   A(9,11,25)            120.0298         estimate D2E/DX2                !
 ! A45   A(10,11,25)           115.9561         estimate D2E/DX2                !
 ! A46   A(3,12,13)            109.6148         estimate D2E/DX2                !
 ! A47   A(3,12,14)            126.8955         estimate D2E/DX2                !
 ! A48   A(13,12,14)           118.3531         estimate D2E/DX2                !
 ! A49   A(10,13,12)           106.6644         estimate D2E/DX2                !
 ! A50   A(10,13,27)           126.7686         estimate D2E/DX2                !
 ! A51   A(12,13,27)           121.5246         estimate D2E/DX2                !
 ! A52   A(12,14,16)           117.6316         estimate D2E/DX2                !
 ! A53   A(12,14,29)           119.1961         estimate D2E/DX2                !
 ! A54   A(16,14,29)           121.5103         estimate D2E/DX2                !
 ! A55   A(5,15,16)            122.2391         estimate D2E/DX2                !
 ! A56   A(5,15,18)            119.7411         estimate D2E/DX2                !
 ! A57   A(16,15,18)           110.5214         estimate D2E/DX2                !
 ! A58   A(14,16,15)           104.2828         estimate D2E/DX2                !
 ! A59   A(14,16,32)           109.5316         estimate D2E/DX2                !
 ! A60   A(14,16,70)           110.3318         estimate D2E/DX2                !
 ! A61   A(15,16,32)           100.8878         estimate D2E/DX2                !
 ! A62   A(15,16,70)           116.4083         estimate D2E/DX2                !
 ! A63   A(32,16,70)           114.5613         estimate D2E/DX2                !
 ! A64   A(6,17,18)            115.3485         estimate D2E/DX2                !
 ! A65   A(6,17,19)            117.6128         estimate D2E/DX2                !
 ! A66   A(18,17,19)           121.2364         estimate D2E/DX2                !
 ! A67   A(15,18,17)           122.2549         estimate D2E/DX2                !
 ! A68   A(15,18,33)           109.1014         estimate D2E/DX2                !
 ! A69   A(17,18,33)           120.8128         estimate D2E/DX2                !
 ! A70   A(17,19,21)           119.1786         estimate D2E/DX2                !
 ! A71   A(17,19,35)           115.9538         estimate D2E/DX2                !
 ! A72   A(21,19,35)           120.1254         estimate D2E/DX2                !
 ! A73   A(8,20,21)            120.4129         estimate D2E/DX2                !
 ! A74   A(8,20,23)            116.1002         estimate D2E/DX2                !
 ! A75   A(21,20,23)           121.095          estimate D2E/DX2                !
 ! A76   A(19,21,20)           119.4249         estimate D2E/DX2                !
 ! A77   A(19,21,38)           117.3905         estimate D2E/DX2                !
 ! A78   A(20,21,38)           119.0015         estimate D2E/DX2                !
 ! A79   A(9,22,23)            125.7095         estimate D2E/DX2                !
 ! A80   A(9,22,24)            120.8989         estimate D2E/DX2                !
 ! A81   A(23,22,24)           108.3807         estimate D2E/DX2                !
 ! A82   A(20,23,22)           106.2105         estimate D2E/DX2                !
 ! A83   A(20,23,40)           112.9193         estimate D2E/DX2                !
 ! A84   A(20,23,72)           109.3605         estimate D2E/DX2                !
 ! A85   A(22,23,40)           101.7504         estimate D2E/DX2                !
 ! A86   A(22,23,72)           113.9438         estimate D2E/DX2                !
 ! A87   A(40,23,72)           112.3928         estimate D2E/DX2                !
 ! A88   A(22,24,26)           120.1666         estimate D2E/DX2                !
 ! A89   A(22,24,41)           110.592          estimate D2E/DX2                !
 ! A90   A(26,24,41)           119.6838         estimate D2E/DX2                !
 ! A91   A(11,25,26)           119.7956         estimate D2E/DX2                !
 ! A92   A(11,25,28)           126.3351         estimate D2E/DX2                !
 ! A93   A(26,25,28)           109.0086         estimate D2E/DX2                !
 ! A94   A(24,26,25)           120.0219         estimate D2E/DX2                !
 ! A95   A(24,26,44)           120.7277         estimate D2E/DX2                !
 ! A96   A(25,26,44)           110.2305         estimate D2E/DX2                !
 ! A97   A(13,27,28)           114.9324         estimate D2E/DX2                !
 ! A98   A(13,27,30)           119.4568         estimate D2E/DX2                !
 ! A99   A(28,27,30)           124.358          estimate D2E/DX2                !
 ! A100  A(25,28,27)           106.4579         estimate D2E/DX2                !
 ! A101  A(25,28,45)           102.611          estimate D2E/DX2                !
 ! A102  A(25,28,75)           114.5185         estimate D2E/DX2                !
 ! A103  A(27,28,45)           110.9576         estimate D2E/DX2                !
 ! A104  A(27,28,75)           110.3625         estimate D2E/DX2                !
 ! A105  A(45,28,75)           111.6122         estimate D2E/DX2                !
 ! A106  A(14,29,30)           120.147          estimate D2E/DX2                !
 ! A107  A(14,29,31)           118.8208         estimate D2E/DX2                !
 ! A108  A(30,29,31)           120.1045         estimate D2E/DX2                !
 ! A109  A(27,30,29)           119.1567         estimate D2E/DX2                !
 ! A110  A(27,30,47)           118.2818         estimate D2E/DX2                !
 ! A111  A(29,30,47)           122.0704         estimate D2E/DX2                !
 ! A112  A(29,31,34)           109.7842         estimate D2E/DX2                !
 ! A113  A(29,31,49)           110.8647         estimate D2E/DX2                !
 ! A114  A(29,31,73)           107.9675         estimate D2E/DX2                !
 ! A115  A(34,31,49)           100.9324         estimate D2E/DX2                !
 ! A116  A(34,31,73)           113.8846         estimate D2E/DX2                !
 ! A117  A(49,31,73)           113.3055         estimate D2E/DX2                !
 ! A118  A(16,32,33)           110.5921         estimate D2E/DX2                !
 ! A119  A(16,32,34)           122.37           estimate D2E/DX2                !
 ! A120  A(33,32,34)           117.7545         estimate D2E/DX2                !
 ! A121  A(18,33,32)           107.7801         estimate D2E/DX2                !
 ! A122  A(18,33,36)           118.2483         estimate D2E/DX2                !
 ! A123  A(32,33,36)           123.6157         estimate D2E/DX2                !
 ! A124  A(31,34,32)           122.0372         estimate D2E/DX2                !
 ! A125  A(31,34,51)           111.2896         estimate D2E/DX2                !
 ! A126  A(32,34,51)           119.3297         estimate D2E/DX2                !
 ! A127  A(19,35,36)           120.9453         estimate D2E/DX2                !
 ! A128  A(19,35,37)           121.0047         estimate D2E/DX2                !
 ! A129  A(36,35,37)           107.5842         estimate D2E/DX2                !
 ! A130  A(33,36,35)           121.3851         estimate D2E/DX2                !
 ! A131  A(33,36,52)           117.8671         estimate D2E/DX2                !
 ! A132  A(35,36,52)           109.1415         estimate D2E/DX2                !
 ! A133  A(35,37,39)           118.9089         estimate D2E/DX2                !
 ! A134  A(35,37,53)           107.2044         estimate D2E/DX2                !
 ! A135  A(39,37,53)           121.7878         estimate D2E/DX2                !
 ! A136  A(21,38,39)           121.9287         estimate D2E/DX2                !
 ! A137  A(21,38,42)           120.27           estimate D2E/DX2                !
 ! A138  A(39,38,42)           107.1016         estimate D2E/DX2                !
 ! A139  A(37,39,38)           120.3689         estimate D2E/DX2                !
 ! A140  A(37,39,57)           118.9633         estimate D2E/DX2                !
 ! A141  A(38,39,57)           109.3231         estimate D2E/DX2                !
 ! A142  A(23,40,41)           110.8365         estimate D2E/DX2                !
 ! A143  A(23,40,42)           122.1817         estimate D2E/DX2                !
 ! A144  A(41,40,42)           118.815          estimate D2E/DX2                !
 ! A145  A(24,41,40)           107.0347         estimate D2E/DX2                !
 ! A146  A(24,41,43)           120.193          estimate D2E/DX2                !
 ! A147  A(40,41,43)           120.8472         estimate D2E/DX2                !
 ! A148  A(38,42,40)           120.5801         estimate D2E/DX2                !
 ! A149  A(38,42,58)           107.1342         estimate D2E/DX2                !
 ! A150  A(40,42,58)           120.8137         estimate D2E/DX2                !
 ! A151  A(41,43,46)           119.7424         estimate D2E/DX2                !
 ! A152  A(41,43,59)           119.8743         estimate D2E/DX2                !
 ! A153  A(46,43,59)           108.1574         estimate D2E/DX2                !
 ! A154  A(26,44,45)           107.493          estimate D2E/DX2                !
 ! A155  A(26,44,46)           119.046          estimate D2E/DX2                !
 ! A156  A(45,44,46)           121.8113         estimate D2E/DX2                !
 ! A157  A(28,45,44)           109.3966         estimate D2E/DX2                !
 ! A158  A(28,45,48)           121.9876         estimate D2E/DX2                !
 ! A159  A(44,45,48)           120.6913         estimate D2E/DX2                !
 ! A160  A(43,46,44)           120.5959         estimate D2E/DX2                !
 ! A161  A(43,46,61)           109.1325         estimate D2E/DX2                !
 ! A162  A(44,46,61)           117.9615         estimate D2E/DX2                !
 ! A163  A(30,47,48)           110.8221         estimate D2E/DX2                !
 ! A164  A(30,47,50)           109.7998         estimate D2E/DX2                !
 ! A165  A(30,47,74)           107.125          estimate D2E/DX2                !
 ! A166  A(48,47,50)           101.3965         estimate D2E/DX2                !
 ! A167  A(48,47,74)           113.8003         estimate D2E/DX2                !
 ! A168  A(50,47,74)           113.8705         estimate D2E/DX2                !
 ! A169  A(45,48,47)           122.8229         estimate D2E/DX2                !
 ! A170  A(45,48,62)           118.3617         estimate D2E/DX2                !
 ! A171  A(47,48,62)           111.0618         estimate D2E/DX2                !
 ! A172  A(31,49,50)           123.1682         estimate D2E/DX2                !
 ! A173  A(31,49,54)           110.7732         estimate D2E/DX2                !
 ! A174  A(50,49,54)           118.7533         estimate D2E/DX2                !
 ! A175  A(47,50,49)           122.2804         estimate D2E/DX2                !
 ! A176  A(47,50,63)           110.4125         estimate D2E/DX2                !
 ! A177  A(49,50,63)           119.9053         estimate D2E/DX2                !
 ! A178  A(34,51,52)           121.9204         estimate D2E/DX2                !
 ! A179  A(34,51,54)           108.0833         estimate D2E/DX2                !
 ! A180  A(52,51,54)           119.2804         estimate D2E/DX2                !
 ! A181  A(36,52,51)           118.3527         estimate D2E/DX2                !
 ! A182  A(36,52,53)           106.2983         estimate D2E/DX2                !
 ! A183  A(51,52,53)           121.3946         estimate D2E/DX2                !
 ! A184  A(37,53,52)           109.2649         estimate D2E/DX2                !
 ! A185  A(37,53,55)           118.8228         estimate D2E/DX2                !
 ! A186  A(52,53,55)           119.2702         estimate D2E/DX2                !
 ! A187  A(49,54,51)           108.4993         estimate D2E/DX2                !
 ! A188  A(49,54,56)           121.7476         estimate D2E/DX2                !
 ! A189  A(51,54,56)           119.3            estimate D2E/DX2                !
 ! A190  A(53,55,56)           119.0557         estimate D2E/DX2                !
 ! A191  A(53,55,60)           119.7002         estimate D2E/DX2                !
 ! A192  A(56,55,60)           109.2099         estimate D2E/DX2                !
 ! A193  A(54,56,55)           121.4441         estimate D2E/DX2                !
 ! A194  A(54,56,64)           119.3597         estimate D2E/DX2                !
 ! A195  A(55,56,64)           107.4447         estimate D2E/DX2                !
 ! A196  A(39,57,58)           107.3586         estimate D2E/DX2                !
 ! A197  A(39,57,60)           119.1703         estimate D2E/DX2                !
 ! A198  A(58,57,60)           120.4077         estimate D2E/DX2                !
 ! A199  A(42,58,57)           108.7336         estimate D2E/DX2                !
 ! A200  A(42,58,59)           120.2358         estimate D2E/DX2                !
 ! A201  A(57,58,59)           119.082          estimate D2E/DX2                !
 ! A202  A(43,59,58)           119.1058         estimate D2E/DX2                !
 ! A203  A(43,59,65)           107.0234         estimate D2E/DX2                !
 ! A204  A(58,59,65)           120.8605         estimate D2E/DX2                !
 ! A205  A(55,60,57)           121.2745         estimate D2E/DX2                !
 ! A206  A(55,60,66)           106.2799         estimate D2E/DX2                !
 ! A207  A(57,60,66)           120.2636         estimate D2E/DX2                !
 ! A208  A(46,61,62)           119.622          estimate D2E/DX2                !
 ! A209  A(46,61,65)           106.4008         estimate D2E/DX2                !
 ! A210  A(62,61,65)           121.1306         estimate D2E/DX2                !
 ! A211  A(48,62,61)           121.4709         estimate D2E/DX2                !
 ! A212  A(48,62,63)           107.8784         estimate D2E/DX2                !
 ! A213  A(61,62,63)           119.857          estimate D2E/DX2                !
 ! A214  A(50,63,62)           108.7892         estimate D2E/DX2                !
 ! A215  A(50,63,64)           121.6104         estimate D2E/DX2                !
 ! A216  A(62,63,64)           118.8858         estimate D2E/DX2                !
 ! A217  A(56,64,63)           118.5691         estimate D2E/DX2                !
 ! A218  A(56,64,66)           108.283          estimate D2E/DX2                !
 ! A219  A(63,64,66)           121.4433         estimate D2E/DX2                !
 ! A220  A(59,65,61)           109.2549         estimate D2E/DX2                !
 ! A221  A(59,65,66)           119.4576         estimate D2E/DX2                !
 ! A222  A(61,65,66)           119.1209         estimate D2E/DX2                !
 ! A223  A(60,66,64)           108.7009         estimate D2E/DX2                !
 ! A224  A(60,66,65)           119.8107         estimate D2E/DX2                !
 ! A225  A(64,66,65)           119.4475         estimate D2E/DX2                !
 ! D1    D(4,1,2,3)             17.0783         estimate D2E/DX2                !
 ! D2    D(4,1,2,10)           -92.3953         estimate D2E/DX2                !
 ! D3    D(4,1,2,68)           147.7841         estimate D2E/DX2                !
 ! D4    D(7,1,2,3)            127.1658         estimate D2E/DX2                !
 ! D5    D(7,1,2,10)            17.6922         estimate D2E/DX2                !
 ! D6    D(7,1,2,68)          -102.1285         estimate D2E/DX2                !
 ! D7    D(67,1,2,3)           -99.4205         estimate D2E/DX2                !
 ! D8    D(67,1,2,10)          151.1059         estimate D2E/DX2                !
 ! D9    D(67,1,2,68)           31.2853         estimate D2E/DX2                !
 ! D10   D(2,1,4,5)            -17.4957         estimate D2E/DX2                !
 ! D11   D(2,1,4,6)            135.5734         estimate D2E/DX2                !
 ! D12   D(7,1,4,5)           -141.0675         estimate D2E/DX2                !
 ! D13   D(7,1,4,6)             12.0016         estimate D2E/DX2                !
 ! D14   D(67,1,4,5)            97.8997         estimate D2E/DX2                !
 ! D15   D(67,1,4,6)          -109.0313         estimate D2E/DX2                !
 ! D16   D(2,1,7,8)           -117.6168         estimate D2E/DX2                !
 ! D17   D(2,1,7,9)             -5.4998         estimate D2E/DX2                !
 ! D18   D(2,1,7,71)           120.8396         estimate D2E/DX2                !
 ! D19   D(4,1,7,8)             -9.3404         estimate D2E/DX2                !
 ! D20   D(4,1,7,9)            102.7766         estimate D2E/DX2                !
 ! D21   D(4,1,7,71)          -130.884          estimate D2E/DX2                !
 ! D22   D(67,1,7,8)           110.3828         estimate D2E/DX2                !
 ! D23   D(67,1,7,9)          -137.5002         estimate D2E/DX2                !
 ! D24   D(67,1,7,71)          -11.1608         estimate D2E/DX2                !
 ! D25   D(1,2,3,5)            -12.103          estimate D2E/DX2                !
 ! D26   D(1,2,3,12)          -117.8072         estimate D2E/DX2                !
 ! D27   D(1,2,3,69)           114.4906         estimate D2E/DX2                !
 ! D28   D(10,2,3,5)           103.4597         estimate D2E/DX2                !
 ! D29   D(10,2,3,12)           -2.2445         estimate D2E/DX2                !
 ! D30   D(10,2,3,69)         -129.9467         estimate D2E/DX2                !
 ! D31   D(68,2,3,5)          -138.7493         estimate D2E/DX2                !
 ! D32   D(68,2,3,12)          115.5464         estimate D2E/DX2                !
 ! D33   D(68,2,3,69)          -12.1557         estimate D2E/DX2                !
 ! D34   D(1,2,10,11)          -31.816          estimate D2E/DX2                !
 ! D35   D(1,2,10,13)          127.2396         estimate D2E/DX2                !
 ! D36   D(3,2,10,11)         -146.4088         estimate D2E/DX2                !
 ! D37   D(3,2,10,13)           12.6468         estimate D2E/DX2                !
 ! D38   D(68,2,10,11)          89.2254         estimate D2E/DX2                !
 ! D39   D(68,2,10,13)        -111.7191         estimate D2E/DX2                !
 ! D40   D(2,3,5,4)              1.4527         estimate D2E/DX2                !
 ! D41   D(2,3,5,15)          -144.7119         estimate D2E/DX2                !
 ! D42   D(12,3,5,4)           110.8644         estimate D2E/DX2                !
 ! D43   D(12,3,5,15)          -35.3002         estimate D2E/DX2                !
 ! D44   D(69,3,5,4)          -127.6617         estimate D2E/DX2                !
 ! D45   D(69,3,5,15)           86.1738         estimate D2E/DX2                !
 ! D46   D(2,3,12,13)           -8.6083         estimate D2E/DX2                !
 ! D47   D(2,3,12,14)          145.2805         estimate D2E/DX2                !
 ! D48   D(5,3,12,13)         -115.4941         estimate D2E/DX2                !
 ! D49   D(5,3,12,14)           38.3946         estimate D2E/DX2                !
 ! D50   D(69,3,12,13)         122.1585         estimate D2E/DX2                !
 ! D51   D(69,3,12,14)         -83.9527         estimate D2E/DX2                !
 ! D52   D(1,4,5,3)             10.9631         estimate D2E/DX2                !
 ! D53   D(1,4,5,15)           159.4746         estimate D2E/DX2                !
 ! D54   D(6,4,5,3)           -139.4176         estimate D2E/DX2                !
 ! D55   D(6,4,5,15)             9.0939         estimate D2E/DX2                !
 ! D56   D(1,4,6,8)             -9.6336         estimate D2E/DX2                !
 ! D57   D(1,4,6,17)          -162.4137         estimate D2E/DX2                !
 ! D58   D(5,4,6,8)            141.268          estimate D2E/DX2                !
 ! D59   D(5,4,6,17)           -11.5121         estimate D2E/DX2                !
 ! D60   D(3,5,15,16)           -1.5462         estimate D2E/DX2                !
 ! D61   D(3,5,15,18)          145.3483         estimate D2E/DX2                !
 ! D62   D(4,5,15,16)         -145.4464         estimate D2E/DX2                !
 ! D63   D(4,5,15,18)            1.4482         estimate D2E/DX2                !
 ! D64   D(4,6,8,7)              2.5886         estimate D2E/DX2                !
 ! D65   D(4,6,8,20)          -153.2763         estimate D2E/DX2                !
 ! D66   D(17,6,8,7)           154.2564         estimate D2E/DX2                !
 ! D67   D(17,6,8,20)           -1.6084         estimate D2E/DX2                !
 ! D68   D(4,6,17,18)            2.896          estimate D2E/DX2                !
 ! D69   D(4,6,17,19)          156.4523         estimate D2E/DX2                !
 ! D70   D(8,6,17,18)         -145.6829         estimate D2E/DX2                !
 ! D71   D(8,6,17,19)            7.8734         estimate D2E/DX2                !
 ! D72   D(1,7,8,6)              4.5866         estimate D2E/DX2                !
 ! D73   D(1,7,8,20)           157.7408         estimate D2E/DX2                !
 ! D74   D(9,7,8,6)           -117.7824         estimate D2E/DX2                !
 ! D75   D(9,7,8,20)            35.3719         estimate D2E/DX2                !
 ! D76   D(71,7,8,6)           127.7152         estimate D2E/DX2                !
 ! D77   D(71,7,8,20)          -79.1306         estimate D2E/DX2                !
 ! D78   D(1,7,9,11)             1.6863         estimate D2E/DX2                !
 ! D79   D(1,7,9,22)          -157.9949         estimate D2E/DX2                !
 ! D80   D(8,7,9,11)           115.3142         estimate D2E/DX2                !
 ! D81   D(8,7,9,22)           -44.3669         estimate D2E/DX2                !
 ! D82   D(71,7,9,11)         -127.5734         estimate D2E/DX2                !
 ! D83   D(71,7,9,22)           72.7455         estimate D2E/DX2                !
 ! D84   D(6,8,20,21)           -5.6246         estimate D2E/DX2                !
 ! D85   D(6,8,20,23)          157.0124         estimate D2E/DX2                !
 ! D86   D(7,8,20,21)         -156.3575         estimate D2E/DX2                !
 ! D87   D(7,8,20,23)            6.2796         estimate D2E/DX2                !
 ! D88   D(7,9,11,10)          -12.0357         estimate D2E/DX2                !
 ! D89   D(7,9,11,25)         -162.892          estimate D2E/DX2                !
 ! D90   D(22,9,11,10)         147.4271         estimate D2E/DX2                !
 ! D91   D(22,9,11,25)          -3.4293         estimate D2E/DX2                !
 ! D92   D(7,9,22,23)           16.6161         estimate D2E/DX2                !
 ! D93   D(7,9,22,24)          168.5936         estimate D2E/DX2                !
 ! D94   D(11,9,22,23)        -143.591          estimate D2E/DX2                !
 ! D95   D(11,9,22,24)           8.3865         estimate D2E/DX2                !
 ! D96   D(2,10,11,9)           29.9788         estimate D2E/DX2                !
 ! D97   D(2,10,11,25)        -177.9861         estimate D2E/DX2                !
 ! D98   D(13,10,11,9)        -128.8034         estimate D2E/DX2                !
 ! D99   D(13,10,11,25)         23.2318         estimate D2E/DX2                !
 ! D100  D(2,10,13,12)         -18.8            estimate D2E/DX2                !
 ! D101  D(2,10,13,27)        -173.6244         estimate D2E/DX2                !
 ! D102  D(11,10,13,12)        142.9579         estimate D2E/DX2                !
 ! D103  D(11,10,13,27)        -11.8665         estimate D2E/DX2                !
 ! D104  D(9,11,25,26)          -3.358          estimate D2E/DX2                !
 ! D105  D(9,11,25,28)         149.1501         estimate D2E/DX2                !
 ! D106  D(10,11,25,26)       -154.6844         estimate D2E/DX2                !
 ! D107  D(10,11,25,28)         -2.1763         estimate D2E/DX2                !
 ! D108  D(3,12,13,10)          16.2252         estimate D2E/DX2                !
 ! D109  D(3,12,13,27)         172.6617         estimate D2E/DX2                !
 ! D110  D(14,12,13,10)       -140.1995         estimate D2E/DX2                !
 ! D111  D(14,12,13,27)         16.237          estimate D2E/DX2                !
 ! D112  D(3,12,14,16)          -2.9406         estimate D2E/DX2                !
 ! D113  D(3,12,14,29)        -168.4786         estimate D2E/DX2                !
 ! D114  D(13,12,14,16)        148.9544         estimate D2E/DX2                !
 ! D115  D(13,12,14,29)        -16.5836         estimate D2E/DX2                !
 ! D116  D(10,13,27,28)        -22.2075         estimate D2E/DX2                !
 ! D117  D(10,13,27,30)        145.5643         estimate D2E/DX2                !
 ! D118  D(12,13,27,28)       -173.647          estimate D2E/DX2                !
 ! D119  D(12,13,27,30)         -5.8752         estimate D2E/DX2                !
 ! D120  D(12,14,16,15)        -35.302          estimate D2E/DX2                !
 ! D121  D(12,14,16,32)       -142.5867         estimate D2E/DX2                !
 ! D122  D(12,14,16,70)         90.4147         estimate D2E/DX2                !
 ! D123  D(29,14,16,15)        129.882          estimate D2E/DX2                !
 ! D124  D(29,14,16,32)         22.5973         estimate D2E/DX2                !
 ! D125  D(29,14,16,70)       -104.4013         estimate D2E/DX2                !
 ! D126  D(12,14,29,30)          7.1904         estimate D2E/DX2                !
 ! D127  D(12,14,29,31)        176.1821         estimate D2E/DX2                !
 ! D128  D(16,14,29,30)       -157.7679         estimate D2E/DX2                !
 ! D129  D(16,14,29,31)         11.2238         estimate D2E/DX2                !
 ! D130  D(5,15,16,14)          38.7265         estimate D2E/DX2                !
 ! D131  D(5,15,16,32)         152.3223         estimate D2E/DX2                !
 ! D132  D(5,15,16,70)         -83.0584         estimate D2E/DX2                !
 ! D133  D(18,15,16,14)       -110.8512         estimate D2E/DX2                !
 ! D134  D(18,15,16,32)          2.7446         estimate D2E/DX2                !
 ! D135  D(18,15,16,70)        127.364          estimate D2E/DX2                !
 ! D136  D(5,15,18,17)          -9.7937         estimate D2E/DX2                !
 ! D137  D(5,15,18,33)        -159.0591         estimate D2E/DX2                !
 ! D138  D(16,15,18,17)        140.65           estimate D2E/DX2                !
 ! D139  D(16,15,18,33)         -8.6154         estimate D2E/DX2                !
 ! D140  D(14,16,32,33)        113.6024         estimate D2E/DX2                !
 ! D141  D(14,16,32,34)        -32.2051         estimate D2E/DX2                !
 ! D142  D(15,16,32,33)          4.0419         estimate D2E/DX2                !
 ! D143  D(15,16,32,34)       -141.7657         estimate D2E/DX2                !
 ! D144  D(70,16,32,33)       -121.8236         estimate D2E/DX2                !
 ! D145  D(70,16,32,34)         92.3689         estimate D2E/DX2                !
 ! D146  D(6,17,18,15)           7.4002         estimate D2E/DX2                !
 ! D147  D(6,17,18,33)         153.1857         estimate D2E/DX2                !
 ! D148  D(19,17,18,15)       -145.1159         estimate D2E/DX2                !
 ! D149  D(19,17,18,33)          0.6695         estimate D2E/DX2                !
 ! D150  D(6,17,19,21)          -6.7699         estimate D2E/DX2                !
 ! D151  D(6,17,19,35)        -162.4283         estimate D2E/DX2                !
 ! D152  D(18,17,19,21)        145.152          estimate D2E/DX2                !
 ! D153  D(18,17,19,35)        -10.5064         estimate D2E/DX2                !
 ! D154  D(15,18,33,32)         11.018          estimate D2E/DX2                !
 ! D155  D(15,18,33,36)        157.3525         estimate D2E/DX2                !
 ! D156  D(17,18,33,32)       -138.7681         estimate D2E/DX2                !
 ! D157  D(17,18,33,36)          7.5663         estimate D2E/DX2                !
 ! D158  D(17,19,21,20)          0.0369         estimate D2E/DX2                !
 ! D159  D(17,19,21,38)       -156.7688         estimate D2E/DX2                !
 ! D160  D(35,19,21,20)        154.6656         estimate D2E/DX2                !
 ! D161  D(35,19,21,38)         -2.1401         estimate D2E/DX2                !
 ! D162  D(17,19,35,36)         12.4473         estimate D2E/DX2                !
 ! D163  D(17,19,35,37)        152.9164         estimate D2E/DX2                !
 ! D164  D(21,19,35,36)       -142.9658         estimate D2E/DX2                !
 ! D165  D(21,19,35,37)         -2.4968         estimate D2E/DX2                !
 ! D166  D(8,20,21,19)           6.3723         estimate D2E/DX2                !
 ! D167  D(8,20,21,38)         162.8046         estimate D2E/DX2                !
 ! D168  D(23,20,21,19)       -155.3899         estimate D2E/DX2                !
 ! D169  D(23,20,21,38)          1.0423         estimate D2E/DX2                !
 ! D170  D(8,20,23,22)         -36.8356         estimate D2E/DX2                !
 ! D171  D(8,20,23,40)        -147.5176         estimate D2E/DX2                !
 ! D172  D(8,20,23,72)          86.5404         estimate D2E/DX2                !
 ! D173  D(21,20,23,22)        125.674          estimate D2E/DX2                !
 ! D174  D(21,20,23,40)         14.992          estimate D2E/DX2                !
 ! D175  D(21,20,23,72)       -110.95           estimate D2E/DX2                !
 ! D176  D(19,21,38,39)          5.4817         estimate D2E/DX2                !
 ! D177  D(19,21,38,42)        145.3781         estimate D2E/DX2                !
 ! D178  D(20,21,38,39)       -151.4252         estimate D2E/DX2                !
 ! D179  D(20,21,38,42)        -11.5287         estimate D2E/DX2                !
 ! D180  D(9,22,23,20)          27.3506         estimate D2E/DX2                !
 ! D181  D(9,22,23,40)         145.6912         estimate D2E/DX2                !
 ! D182  D(9,22,23,72)         -93.1031         estimate D2E/DX2                !
 ! D183  D(24,22,23,20)       -127.5106         estimate D2E/DX2                !
 ! D184  D(24,22,23,40)         -9.17           estimate D2E/DX2                !
 ! D185  D(24,22,23,72)        112.0358         estimate D2E/DX2                !
 ! D186  D(9,22,24,26)          -6.7646         estimate D2E/DX2                !
 ! D187  D(9,22,24,41)        -152.89           estimate D2E/DX2                !
 ! D188  D(23,22,24,26)        149.5324         estimate D2E/DX2                !
 ! D189  D(23,22,24,41)          3.407          estimate D2E/DX2                !
 ! D190  D(20,23,40,41)        125.4904         estimate D2E/DX2                !
 ! D191  D(20,23,40,42)        -22.594          estimate D2E/DX2                !
 ! D192  D(22,23,40,41)         12.0665         estimate D2E/DX2                !
 ! D193  D(22,23,40,42)       -136.018          estimate D2E/DX2                !
 ! D194  D(72,23,40,41)       -110.2122         estimate D2E/DX2                !
 ! D195  D(72,23,40,42)        101.7034         estimate D2E/DX2                !
 ! D196  D(22,24,26,25)         -0.2413         estimate D2E/DX2                !
 ! D197  D(22,24,26,44)       -144.1516         estimate D2E/DX2                !
 ! D198  D(41,24,26,25)        142.8474         estimate D2E/DX2                !
 ! D199  D(41,24,26,44)         -1.0629         estimate D2E/DX2                !
 ! D200  D(22,24,41,40)          4.2958         estimate D2E/DX2                !
 ! D201  D(22,24,41,43)        147.3043         estimate D2E/DX2                !
 ! D202  D(26,24,41,40)       -142.0156         estimate D2E/DX2                !
 ! D203  D(26,24,41,43)          0.9929         estimate D2E/DX2                !
 ! D204  D(11,25,26,24)          5.115          estimate D2E/DX2                !
 ! D205  D(11,25,26,44)        152.4558         estimate D2E/DX2                !
 ! D206  D(28,25,26,24)       -151.7241         estimate D2E/DX2                !
 ! D207  D(28,25,26,44)         -4.3834         estimate D2E/DX2                !
 ! D208  D(11,25,28,27)        -28.8236         estimate D2E/DX2                !
 ! D209  D(11,25,28,45)       -145.4563         estimate D2E/DX2                !
 ! D210  D(11,25,28,75)         93.4204         estimate D2E/DX2                !
 ! D211  D(26,25,28,27)        126.1079         estimate D2E/DX2                !
 ! D212  D(26,25,28,45)          9.4752         estimate D2E/DX2                !
 ! D213  D(26,25,28,75)       -111.6481         estimate D2E/DX2                !
 ! D214  D(24,26,44,45)        144.0818         estimate D2E/DX2                !
 ! D215  D(24,26,44,46)          0.2564         estimate D2E/DX2                !
 ! D216  D(25,26,44,45)         -2.9924         estimate D2E/DX2                !
 ! D217  D(25,26,44,46)       -146.8178         estimate D2E/DX2                !
 ! D218  D(13,27,28,25)         37.895          estimate D2E/DX2                !
 ! D219  D(13,27,28,45)        148.807          estimate D2E/DX2                !
 ! D220  D(13,27,28,75)        -86.9391         estimate D2E/DX2                !
 ! D221  D(30,27,28,25)       -129.1961         estimate D2E/DX2                !
 ! D222  D(30,27,28,45)        -18.2841         estimate D2E/DX2                !
 ! D223  D(30,27,28,75)        105.9698         estimate D2E/DX2                !
 ! D224  D(13,27,30,29)         -3.8806         estimate D2E/DX2                !
 ! D225  D(13,27,30,47)       -176.0102         estimate D2E/DX2                !
 ! D226  D(28,27,30,29)        162.6657         estimate D2E/DX2                !
 ! D227  D(28,27,30,47)         -9.4639         estimate D2E/DX2                !
 ! D228  D(25,28,45,44)        -11.3416         estimate D2E/DX2                !
 ! D229  D(25,28,45,48)        137.7403         estimate D2E/DX2                !
 ! D230  D(27,28,45,44)       -124.7056         estimate D2E/DX2                !
 ! D231  D(27,28,45,48)         24.3762         estimate D2E/DX2                !
 ! D232  D(75,28,45,44)        111.754          estimate D2E/DX2                !
 ! D233  D(75,28,45,48)        -99.1641         estimate D2E/DX2                !
 ! D234  D(14,29,30,27)          3.1848         estimate D2E/DX2                !
 ! D235  D(14,29,30,47)        175.0037         estimate D2E/DX2                !
 ! D236  D(31,29,30,27)       -165.6649         estimate D2E/DX2                !
 ! D237  D(31,29,30,47)          6.154          estimate D2E/DX2                !
 ! D238  D(14,29,31,34)        -36.2544         estimate D2E/DX2                !
 ! D239  D(14,29,31,49)       -146.913          estimate D2E/DX2                !
 ! D240  D(14,29,31,73)         88.4265         estimate D2E/DX2                !
 ! D241  D(30,29,31,34)        132.742          estimate D2E/DX2                !
 ! D242  D(30,29,31,49)         22.0835         estimate D2E/DX2                !
 ! D243  D(30,29,31,73)       -102.577          estimate D2E/DX2                !
 ! D244  D(27,30,47,48)         30.6228         estimate D2E/DX2                !
 ! D245  D(27,30,47,50)        141.8217         estimate D2E/DX2                !
 ! D246  D(27,30,47,74)        -94.0548         estimate D2E/DX2                !
 ! D247  D(29,30,47,48)       -141.2647         estimate D2E/DX2                !
 ! D248  D(29,30,47,50)        -30.0659         estimate D2E/DX2                !
 ! D249  D(29,30,47,74)         94.0577         estimate D2E/DX2                !
 ! D250  D(29,31,34,32)         28.1716         estimate D2E/DX2                !
 ! D251  D(29,31,34,51)       -121.5978         estimate D2E/DX2                !
 ! D252  D(49,31,34,32)        145.2353         estimate D2E/DX2                !
 ! D253  D(49,31,34,51)         -4.5341         estimate D2E/DX2                !
 ! D254  D(73,31,34,32)        -93.0144         estimate D2E/DX2                !
 ! D255  D(73,31,34,51)        117.2162         estimate D2E/DX2                !
 ! D256  D(29,31,49,50)        -26.873          estimate D2E/DX2                !
 ! D257  D(29,31,49,54)        122.7314         estimate D2E/DX2                !
 ! D258  D(34,31,49,50)       -143.1397         estimate D2E/DX2                !
 ! D259  D(34,31,49,54)          6.4647         estimate D2E/DX2                !
 ! D260  D(73,31,49,50)         94.7044         estimate D2E/DX2                !
 ! D261  D(73,31,49,54)       -115.6912         estimate D2E/DX2                !
 ! D262  D(16,32,33,18)         -9.3594         estimate D2E/DX2                !
 ! D263  D(16,32,33,36)       -153.4584         estimate D2E/DX2                !
 ! D264  D(34,32,33,18)        138.2048         estimate D2E/DX2                !
 ! D265  D(34,32,33,36)         -5.8943         estimate D2E/DX2                !
 ! D266  D(16,32,34,31)          6.5703         estimate D2E/DX2                !
 ! D267  D(16,32,34,51)        154.0159         estimate D2E/DX2                !
 ! D268  D(33,32,34,31)       -136.9555         estimate D2E/DX2                !
 ! D269  D(33,32,34,51)         10.4901         estimate D2E/DX2                !
 ! D270  D(18,33,36,35)         -5.6198         estimate D2E/DX2                !
 ! D271  D(18,33,36,52)       -144.8239         estimate D2E/DX2                !
 ! D272  D(32,33,36,35)        135.0442         estimate D2E/DX2                !
 ! D273  D(32,33,36,52)         -4.1599         estimate D2E/DX2                !
 ! D274  D(31,34,51,52)        145.1543         estimate D2E/DX2                !
 ! D275  D(31,34,51,54)          1.1008         estimate D2E/DX2                !
 ! D276  D(32,34,51,52)         -5.5342         estimate D2E/DX2                !
 ! D277  D(32,34,51,54)       -149.5877         estimate D2E/DX2                !
 ! D278  D(19,35,36,33)         -4.6923         estimate D2E/DX2                !
 ! D279  D(19,35,36,52)        137.6167         estimate D2E/DX2                !
 ! D280  D(37,35,36,33)       -149.7818         estimate D2E/DX2                !
 ! D281  D(37,35,36,52)         -7.4727         estimate D2E/DX2                !
 ! D282  D(19,35,37,39)          3.8765         estimate D2E/DX2                !
 ! D283  D(19,35,37,53)       -139.3434         estimate D2E/DX2                !
 ! D284  D(36,35,37,39)        148.9411         estimate D2E/DX2                !
 ! D285  D(36,35,37,53)          5.7212         estimate D2E/DX2                !
 ! D286  D(33,36,52,51)          9.1667         estimate D2E/DX2                !
 ! D287  D(33,36,52,53)        149.9267         estimate D2E/DX2                !
 ! D288  D(35,36,52,51)       -134.647          estimate D2E/DX2                !
 ! D289  D(35,36,52,53)          6.113          estimate D2E/DX2                !
 ! D290  D(35,37,39,38)         -0.5934         estimate D2E/DX2                !
 ! D291  D(35,37,39,57)       -140.2923         estimate D2E/DX2                !
 ! D292  D(53,37,39,38)        137.1165         estimate D2E/DX2                !
 ! D293  D(53,37,39,57)         -2.5824         estimate D2E/DX2                !
 ! D294  D(35,37,53,52)         -2.0178         estimate D2E/DX2                !
 ! D295  D(35,37,53,55)        139.5637         estimate D2E/DX2                !
 ! D296  D(39,37,53,52)       -143.9476         estimate D2E/DX2                !
 ! D297  D(39,37,53,55)         -2.3661         estimate D2E/DX2                !
 ! D298  D(21,38,39,37)         -4.2129         estimate D2E/DX2                !
 ! D299  D(21,38,39,57)        138.9394         estimate D2E/DX2                !
 ! D300  D(42,38,39,37)       -148.6158         estimate D2E/DX2                !
 ! D301  D(42,38,39,57)         -5.4635         estimate D2E/DX2                !
 ! D302  D(21,38,42,40)          4.4765         estimate D2E/DX2                !
 ! D303  D(21,38,42,58)       -139.116          estimate D2E/DX2                !
 ! D304  D(39,38,42,40)        149.5864         estimate D2E/DX2                !
 ! D305  D(39,38,42,58)          5.9939         estimate D2E/DX2                !
 ! D306  D(37,39,57,58)        146.5664         estimate D2E/DX2                !
 ! D307  D(37,39,57,60)          5.1395         estimate D2E/DX2                !
 ! D308  D(38,39,57,58)          2.8205         estimate D2E/DX2                !
 ! D309  D(38,39,57,60)       -138.6064         estimate D2E/DX2                !
 ! D310  D(23,40,41,24)        -10.6216         estimate D2E/DX2                !
 ! D311  D(23,40,41,43)       -153.338          estimate D2E/DX2                !
 ! D312  D(42,40,41,24)        138.6694         estimate D2E/DX2                !
 ! D313  D(42,40,41,43)         -4.047          estimate D2E/DX2                !
 ! D314  D(23,40,42,38)         13.7623         estimate D2E/DX2                !
 ! D315  D(23,40,42,58)        152.4315         estimate D2E/DX2                !
 ! D316  D(41,40,42,38)       -131.9105         estimate D2E/DX2                !
 ! D317  D(41,40,42,58)          6.7586         estimate D2E/DX2                !
 ! D318  D(24,41,43,46)         -0.1285         estimate D2E/DX2                !
 ! D319  D(24,41,43,59)       -138.041          estimate D2E/DX2                !
 ! D320  D(40,41,43,46)        137.7974         estimate D2E/DX2                !
 ! D321  D(40,41,43,59)         -0.115          estimate D2E/DX2                !
 ! D322  D(38,42,58,57)         -4.3347         estimate D2E/DX2                !
 ! D323  D(38,42,58,59)        138.0131         estimate D2E/DX2                !
 ! D324  D(40,42,58,57)       -147.8248         estimate D2E/DX2                !
 ! D325  D(40,42,58,59)         -5.4769         estimate D2E/DX2                !
 ! D326  D(41,43,46,44)         -0.6877         estimate D2E/DX2                !
 ! D327  D(41,43,46,61)       -142.1037         estimate D2E/DX2                !
 ! D328  D(59,43,46,44)        141.6028         estimate D2E/DX2                !
 ! D329  D(59,43,46,61)          0.1867         estimate D2E/DX2                !
 ! D330  D(41,43,59,58)          1.4707         estimate D2E/DX2                !
 ! D331  D(41,43,59,65)        143.1401         estimate D2E/DX2                !
 ! D332  D(46,43,59,58)       -140.7612         estimate D2E/DX2                !
 ! D333  D(46,43,59,65)          0.9081         estimate D2E/DX2                !
 ! D334  D(26,44,45,28)          9.2606         estimate D2E/DX2                !
 ! D335  D(26,44,45,48)       -140.2897         estimate D2E/DX2                !
 ! D336  D(46,44,45,28)        151.8715         estimate D2E/DX2                !
 ! D337  D(46,44,45,48)          2.3212         estimate D2E/DX2                !
 ! D338  D(26,44,46,43)          0.6198         estimate D2E/DX2                !
 ! D339  D(26,44,46,61)        138.7773         estimate D2E/DX2                !
 ! D340  D(45,44,46,43)       -137.8924         estimate D2E/DX2                !
 ! D341  D(45,44,46,61)          0.2651         estimate D2E/DX2                !
 ! D342  D(28,45,48,47)         -2.3238         estimate D2E/DX2                !
 ! D343  D(28,45,48,62)       -148.855          estimate D2E/DX2                !
 ! D344  D(44,45,48,47)        143.3716         estimate D2E/DX2                !
 ! D345  D(44,45,48,62)         -3.1597         estimate D2E/DX2                !
 ! D346  D(43,46,61,62)        140.7245         estimate D2E/DX2                !
 ! D347  D(43,46,61,65)         -1.2088         estimate D2E/DX2                !
 ! D348  D(44,46,61,62)         -1.846          estimate D2E/DX2                !
 ! D349  D(44,46,61,65)       -143.7793         estimate D2E/DX2                !
 ! D350  D(30,47,48,45)        -25.5592         estimate D2E/DX2                !
 ! D351  D(30,47,48,62)        123.1068         estimate D2E/DX2                !
 ! D352  D(50,47,48,45)       -142.0691         estimate D2E/DX2                !
 ! D353  D(50,47,48,62)          6.5969         estimate D2E/DX2                !
 ! D354  D(74,47,48,45)         95.2415         estimate D2E/DX2                !
 ! D355  D(74,47,48,62)       -116.0926         estimate D2E/DX2                !
 ! D356  D(30,47,50,49)         26.1265         estimate D2E/DX2                !
 ! D357  D(30,47,50,63)       -123.6768         estimate D2E/DX2                !
 ! D358  D(48,47,50,49)        143.3828         estimate D2E/DX2                !
 ! D359  D(48,47,50,63)         -6.4205         estimate D2E/DX2                !
 ! D360  D(74,47,50,49)        -93.9761         estimate D2E/DX2                !
 ! D361  D(74,47,50,63)        116.2206         estimate D2E/DX2                !
 ! D362  D(45,48,62,61)          1.5578         estimate D2E/DX2                !
 ! D363  D(45,48,62,63)        145.7281         estimate D2E/DX2                !
 ! D364  D(47,48,62,61)       -148.6659         estimate D2E/DX2                !
 ! D365  D(47,48,62,63)         -4.4956         estimate D2E/DX2                !
 ! D366  D(31,49,50,47)          2.0271         estimate D2E/DX2                !
 ! D367  D(31,49,50,63)        149.0849         estimate D2E/DX2                !
 ! D368  D(54,49,50,47)       -145.3159         estimate D2E/DX2                !
 ! D369  D(54,49,50,63)          1.7419         estimate D2E/DX2                !
 ! D370  D(31,49,54,51)         -6.2743         estimate D2E/DX2                !
 ! D371  D(31,49,54,56)       -150.7503         estimate D2E/DX2                !
 ! D372  D(50,49,54,51)        144.8379         estimate D2E/DX2                !
 ! D373  D(50,49,54,56)          0.362          estimate D2E/DX2                !
 ! D374  D(47,50,63,62)          4.1793         estimate D2E/DX2                !
 ! D375  D(47,50,63,64)        148.133          estimate D2E/DX2                !
 ! D376  D(49,50,63,62)       -146.444          estimate D2E/DX2                !
 ! D377  D(49,50,63,64)         -2.4903         estimate D2E/DX2                !
 ! D378  D(34,51,52,36)         -4.6421         estimate D2E/DX2                !
 ! D379  D(34,51,52,53)       -139.3029         estimate D2E/DX2                !
 ! D380  D(54,51,52,36)        135.583          estimate D2E/DX2                !
 ! D381  D(54,51,52,53)          0.9222         estimate D2E/DX2                !
 ! D382  D(34,51,54,49)          3.1465         estimate D2E/DX2                !
 ! D383  D(34,51,54,56)        148.6338         estimate D2E/DX2                !
 ! D384  D(52,51,54,49)       -142.0164         estimate D2E/DX2                !
 ! D385  D(52,51,54,56)          3.4709         estimate D2E/DX2                !
 ! D386  D(36,52,53,37)         -2.5343         estimate D2E/DX2                !
 ! D387  D(36,52,53,55)       -143.918          estimate D2E/DX2                !
 ! D388  D(51,52,53,37)        136.7608         estimate D2E/DX2                !
 ! D389  D(51,52,53,55)         -4.623          estimate D2E/DX2                !
 ! D390  D(37,53,55,56)       -133.9319         estimate D2E/DX2                !
 ! D391  D(37,53,55,60)          4.6782         estimate D2E/DX2                !
 ! D392  D(52,53,55,56)          3.8108         estimate D2E/DX2                !
 ! D393  D(52,53,55,60)        142.4209         estimate D2E/DX2                !
 ! D394  D(49,54,56,55)        136.5432         estimate D2E/DX2                !
 ! D395  D(49,54,56,64)         -1.8004         estimate D2E/DX2                !
 ! D396  D(51,54,56,55)         -4.2698         estimate D2E/DX2                !
 ! D397  D(51,54,56,64)       -142.6133         estimate D2E/DX2                !
 ! D398  D(53,55,56,54)          0.5697         estimate D2E/DX2                !
 ! D399  D(53,55,56,64)        143.1809         estimate D2E/DX2                !
 ! D400  D(60,55,56,54)       -141.972          estimate D2E/DX2                !
 ! D401  D(60,55,56,64)          0.6392         estimate D2E/DX2                !
 ! D402  D(53,55,60,57)         -2.1157         estimate D2E/DX2                !
 ! D403  D(53,55,60,66)       -144.4584         estimate D2E/DX2                !
 ! D404  D(56,55,60,57)        140.1466         estimate D2E/DX2                !
 ! D405  D(56,55,60,66)         -2.1961         estimate D2E/DX2                !
 ! D406  D(54,56,64,63)          1.0688         estimate D2E/DX2                !
 ! D407  D(54,56,64,66)        144.7235         estimate D2E/DX2                !
 ! D408  D(55,56,64,63)       -142.4617         estimate D2E/DX2                !
 ! D409  D(55,56,64,66)          1.193          estimate D2E/DX2                !
 ! D410  D(39,57,58,42)          1.0256         estimate D2E/DX2                !
 ! D411  D(39,57,58,59)       -141.8246         estimate D2E/DX2                !
 ! D412  D(60,57,58,42)        141.8817         estimate D2E/DX2                !
 ! D413  D(60,57,58,59)         -0.9685         estimate D2E/DX2                !
 ! D414  D(39,57,60,55)         -2.8712         estimate D2E/DX2                !
 ! D415  D(39,57,60,66)        134.3652         estimate D2E/DX2                !
 ! D416  D(58,57,60,55)       -139.2385         estimate D2E/DX2                !
 ! D417  D(58,57,60,66)         -2.002          estimate D2E/DX2                !
 ! D418  D(42,58,59,43)          1.1962         estimate D2E/DX2                !
 ! D419  D(42,58,59,65)       -135.1076         estimate D2E/DX2                !
 ! D420  D(57,58,59,43)        139.7467         estimate D2E/DX2                !
 ! D421  D(57,58,59,65)          3.4429         estimate D2E/DX2                !
 ! D422  D(43,59,65,61)         -1.6828         estimate D2E/DX2                !
 ! D423  D(43,59,65,66)       -143.8046         estimate D2E/DX2                !
 ! D424  D(58,59,65,61)        139.1743         estimate D2E/DX2                !
 ! D425  D(58,59,65,66)         -2.9474         estimate D2E/DX2                !
[...]
    14 C(13)  Bbb     0.0294     3.947     1.409     1.317 -0.1612  0.1995  0.9665
              Bcc     0.0362     4.854     1.732     1.619  0.9856  0.0833  0.1471
 
              Baa    -0.0029    -0.385    -0.137    -0.128  0.2170  0.9728 -0.0807
    15 C(13)  Bbb    -0.0000    -0.006    -0.002    -0.002  0.9647 -0.2011  0.1698
              Bcc     0.0029     0.391     0.140     0.130 -0.1489  0.1147  0.9822
 
              Baa    -0.0016    -0.208    -0.074    -0.069  0.0826  0.8489 -0.5221
    16 C(13)  Bbb    -0.0012    -0.163    -0.058    -0.055  0.9889 -0.1347 -0.0627
              Bcc     0.0028     0.372     0.133     0.124  0.1235  0.5112  0.8506
 
              Baa    -0.0007    -0.093    -0.033    -0.031  0.1477  0.9649  0.2169
    17 C(13)  Bbb    -0.0003    -0.041    -0.015    -0.014  0.9684 -0.0966 -0.2298
              Bcc     0.0010     0.133     0.048     0.045  0.2008 -0.2440  0.9488
 
              Baa    -0.0028    -0.370    -0.132    -0.124 -0.1707  0.9836 -0.0582
    18 C(13)  Bbb    -0.0021    -0.276    -0.099    -0.092  0.9563  0.1796  0.2309
              Bcc     0.0048     0.647     0.231     0.216 -0.2375  0.0163  0.9712
 
              Baa    -0.0015    -0.199    -0.071    -0.066  0.3131  0.8628  0.3969
    19 C(13)  Bbb    -0.0011    -0.148    -0.053    -0.049  0.9482 -0.3080 -0.0782
              Bcc     0.0026     0.346     0.124     0.116 -0.0548 -0.4008  0.9145
 
              Baa    -0.0072    -0.961    -0.343    -0.321  0.0536  0.6484  0.7594
    20 C(13)  Bbb    -0.0053    -0.716    -0.256    -0.239  0.8980 -0.3639  0.2473
              Bcc     0.0125     1.678     0.599     0.560  0.4367  0.6688 -0.6017
 
              Baa    -0.0040    -0.536    -0.191    -0.179  0.5850  0.6106 -0.5339
    21 C(13)  Bbb     0.0014     0.193     0.069     0.064 -0.2025  0.7473  0.6329
              Bcc     0.0026     0.343     0.122     0.114  0.7854 -0.2621  0.5608
 
              Baa    -0.0771   -10.342    -3.690    -3.450  0.6489  0.6417  0.4089
    22 C(13)  Bbb     0.0365     4.896     1.747     1.633 -0.2547 -0.3232  0.9114
              Bcc     0.0406     5.446     1.943     1.817  0.7170 -0.6956 -0.0463
 
              Baa    -0.0010    -0.134    -0.048    -0.045  0.1153  0.5075  0.8539
    23 C(13)  Bbb    -0.0004    -0.056    -0.020    -0.019  0.9932 -0.0734 -0.0905
              Bcc     0.0014     0.191     0.068     0.064  0.0167  0.8585 -0.5125
 
              Baa    -0.0667    -8.949    -3.193    -2.985 -0.6547 -0.2276  0.7208
    24 C(13)  Bbb    -0.0608    -8.157    -2.911    -2.721 -0.6320  0.6879 -0.3568
              Bcc     0.1275    17.106     6.104     5.706  0.4146  0.6892  0.5943
 
              Baa    -0.1177   -15.799    -5.638    -5.270  0.7941  0.3679 -0.4838
    25 C(13)  Bbb    -0.1107   -14.852    -5.299    -4.954 -0.2949  0.9292  0.2226
              Bcc     0.2284    30.651    10.937    10.224  0.5315 -0.0341  0.8464
 
              Baa    -0.0564    -7.564    -2.699    -2.523  0.3355  0.4274  0.8395
    26 C(13)  Bbb     0.0195     2.613     0.932     0.872  0.8188  0.3085 -0.4842
              Bcc     0.0369     4.951     1.767     1.651 -0.4659  0.8498 -0.2464
 
              Baa    -0.0841   -11.286    -4.027    -3.765  0.8867 -0.2645 -0.3792
    27 C(13)  Bbb    -0.0802   -10.763    -3.841    -3.590  0.4494  0.6860  0.5723
              Bcc     0.1643    22.049     7.868     7.355  0.1088 -0.6778  0.7271
 
              Baa    -0.0076    -1.018    -0.363    -0.340  0.6404 -0.3977  0.6571
    28 C(13)  Bbb     0.0013     0.169     0.060     0.056  0.2949  0.9172  0.2677
              Bcc     0.0063     0.849     0.303     0.283  0.7092 -0.0224 -0.7047
 
              Baa    -0.0980   -13.153    -4.693    -4.387 -0.6032  0.2911  0.7426
    29 C(13)  Bbb    -0.0906   -12.152    -4.336    -4.053  0.7975  0.2137  0.5641
              Bcc     0.1886    25.305     9.029     8.441  0.0055  0.9325 -0.3611
 
              Baa    -0.0638    -8.558    -3.054    -2.855 -0.0366  0.8767 -0.4797
    30 C(13)  Bbb     0.0278     3.728     1.330     1.244  0.8377 -0.2348 -0.4931
              Bcc     0.0360     4.830     1.723     1.611  0.5449  0.4199  0.7258
 
              Baa    -0.0028    -0.378    -0.135    -0.126  0.0733  0.9573 -0.2798
    31 C(13)  Bbb    -0.0008    -0.102    -0.036    -0.034 -0.6539  0.2579  0.7112
              Bcc     0.0036     0.480     0.171     0.160  0.7530  0.1309  0.6449
 
              Baa    -0.0031    -0.410    -0.146    -0.137  0.9232 -0.3343  0.1898
    32 C(13)  Bbb    -0.0022    -0.296    -0.105    -0.099 -0.3715 -0.6491  0.6638
              Bcc     0.0053     0.706     0.252     0.235  0.0987  0.6833  0.7234
 
              Baa    -0.0025    -0.337    -0.120    -0.112 -0.2800  0.6724  0.6852
    33 C(13)  Bbb     0.0009     0.116     0.041     0.039  0.8741  0.4737 -0.1076
              Bcc     0.0017     0.221     0.079     0.074  0.3969 -0.5688  0.7204
 
              Baa    -0.0043    -0.578    -0.206    -0.193  0.2230  0.9636  0.1475
    34 C(13)  Bbb    -0.0002    -0.029    -0.010    -0.010  0.9437 -0.1754 -0.2805
              Bcc     0.0045     0.607     0.217     0.203  0.2444 -0.2017  0.9485
 
              Baa    -0.0042    -0.562    -0.201    -0.188 -0.2144 -0.2162  0.9525
    35 C(13)  Bbb     0.0019     0.260     0.093     0.087  0.1307  0.9601  0.2473
              Bcc     0.0022     0.302     0.108     0.101  0.9680 -0.1775  0.1776
 
              Baa    -0.0015    -0.207    -0.074    -0.069  0.6329  0.7434 -0.2163
    36 C(13)  Bbb    -0.0013    -0.174    -0.062    -0.058  0.7491 -0.6586 -0.0716
              Bcc     0.0028     0.381     0.136     0.127  0.1957  0.1167  0.9737
 
              Baa    -0.0006    -0.074    -0.026    -0.025  0.7024 -0.6172 -0.3546
    37 C(13)  Bbb    -0.0002    -0.033    -0.012    -0.011  0.7110  0.6313  0.3097
              Bcc     0.0008     0.107     0.038     0.036  0.0327 -0.4696  0.8823
 
              Baa    -0.0041    -0.548    -0.195    -0.183 -0.2623  0.6936  0.6709
    38 C(13)  Bbb    -0.0034    -0.455    -0.162    -0.152  0.9456  0.0459  0.3222
              Bcc     0.0075     1.002     0.358     0.334  0.1927  0.7189 -0.6679
 
              Baa    -0.0013    -0.179    -0.064    -0.060  0.6849  0.4964 -0.5334
    39 C(13)  Bbb    -0.0005    -0.063    -0.023    -0.021 -0.1106  0.7944  0.5972
              Bcc     0.0018     0.243     0.087     0.081  0.7202 -0.3500  0.5990
 
              Baa    -0.0125    -1.676    -0.598    -0.559  0.7776 -0.1467  0.6114
    40 C(13)  Bbb    -0.0120    -1.615    -0.576    -0.539 -0.6071  0.0781  0.7908
              Bcc     0.0245     3.291     1.174     1.098  0.1638  0.9861  0.0283
 
              Baa    -0.0336    -4.508    -1.608    -1.504  0.1602  0.8588  0.4867
    41 C(13)  Bbb     0.0147     1.971     0.703     0.658 -0.4220 -0.3861  0.8203
              Bcc     0.0189     2.536     0.905     0.846  0.8923 -0.3368  0.3005
 
              Baa    -0.0179    -2.396    -0.855    -0.799  0.0164  0.9522 -0.3051
    42 C(13)  Bbb     0.0083     1.120     0.400     0.374 -0.1471  0.3041  0.9412
              Bcc     0.0095     1.276     0.455     0.426  0.9890  0.0295  0.1451
 
              Baa    -0.0349    -4.680    -1.670    -1.561  0.7405  0.4840 -0.4663
    43 C(13)  Bbb    -0.0324    -4.350    -1.552    -1.451  0.6334 -0.2707  0.7249
              Bcc     0.0673     9.030     3.222     3.012 -0.2246  0.8322  0.5070
 
              Baa    -0.0211    -2.832    -1.010    -0.945  0.6337  0.7578 -0.1554
    44 C(13)  Bbb    -0.0188    -2.517    -0.898    -0.840  0.7687 -0.5945  0.2360
              Bcc     0.0399     5.349     1.909     1.784 -0.0865  0.2690  0.9592
 
              Baa    -0.0124    -1.661    -0.593    -0.554  0.0113 -0.1009  0.9948
    45 C(13)  Bbb     0.0031     0.415     0.148     0.138  0.1616  0.9820  0.0978
              Bcc     0.0093     1.246     0.445     0.416  0.9868 -0.1597 -0.0274
 
              Baa    -0.0234    -3.142    -1.121    -1.048 -0.2498  0.5508  0.7963
    46 C(13)  Bbb     0.0106     1.422     0.507     0.474  0.9020  0.4315 -0.0155
              Bcc     0.0128     1.720     0.614     0.574 -0.3521  0.7144 -0.6047
 
              Baa    -0.0011    -0.149    -0.053    -0.050 -0.3143  0.7128 -0.6270
    47 C(13)  Bbb    -0.0007    -0.091    -0.032    -0.030  0.1108  0.6835  0.7215
              Bcc     0.0018     0.239     0.085     0.080  0.9428  0.1572 -0.2938
 
              Baa    -0.0053    -0.711    -0.254    -0.237  0.0883  0.9052  0.4156
    48 C(13)  Bbb    -0.0030    -0.404    -0.144    -0.135  0.8076 -0.3093  0.5022
              Bcc     0.0083     1.114     0.398     0.372 -0.5831 -0.2913  0.7584
 
              Baa    -0.0030    -0.402    -0.143    -0.134  0.2851  0.9108 -0.2985
    49 C(13)  Bbb    -0.0008    -0.112    -0.040    -0.037 -0.1100  0.3405  0.9338
              Bcc     0.0038     0.514     0.183     0.171  0.9522 -0.2334  0.1973
 
              Baa    -0.0025    -0.336    -0.120    -0.112  0.3739  0.0442  0.9264
    50 C(13)  Bbb    -0.0012    -0.164    -0.058    -0.055 -0.4538  0.8799  0.1411
              Bcc     0.0037     0.500     0.178     0.167  0.8089  0.4731 -0.3490
 
              Baa    -0.0023    -0.314    -0.112    -0.105  0.7230 -0.0605 -0.6882
    51 C(13)  Bbb    -0.0014    -0.191    -0.068    -0.064 -0.3411  0.8351 -0.4317
              Bcc     0.0038     0.505     0.180     0.169  0.6008  0.5468  0.5831
 
              Baa    -0.0023    -0.304    -0.108    -0.101  0.4330  0.3974  0.8091
    52 C(13)  Bbb     0.0008     0.104     0.037     0.035  0.8564  0.0985 -0.5068
              Bcc     0.0015     0.200     0.071     0.067 -0.2811  0.9123 -0.2977
 
              Baa    -0.0036    -0.482    -0.172    -0.161  0.7897  0.2865 -0.5425
    53 C(13)  Bbb    -0.0033    -0.444    -0.159    -0.148 -0.1660  0.9511  0.2606
              Bcc     0.0069     0.927     0.331     0.309  0.5906 -0.1157  0.7986
 
              Baa    -0.0027    -0.365    -0.130    -0.122  0.7111  0.6867  0.1510
    54 C(13)  Bbb     0.0009     0.114     0.041     0.038 -0.3581  0.1688  0.9183
              Bcc     0.0019     0.251     0.090     0.084 -0.6051  0.7070 -0.3660
 
              Baa    -0.0018    -0.238    -0.085    -0.079  0.8334 -0.2469  0.4945
    55 C(13)  Bbb     0.0005     0.063     0.022     0.021 -0.5502 -0.4560  0.6995
              Bcc     0.0013     0.175     0.063     0.058 -0.0528  0.8551  0.5158
 
              Baa    -0.0022    -0.290    -0.104    -0.097 -0.4411  0.1397  0.8865
    56 C(13)  Bbb    -0.0016    -0.210    -0.075    -0.070 -0.1608  0.9595 -0.2312
              Bcc     0.0037     0.500     0.179     0.167  0.8830  0.2445  0.4008
 
              Baa    -0.0069    -0.921    -0.329    -0.307 -0.5385  0.7723 -0.3370
    57 C(13)  Bbb     0.0025     0.341     0.122     0.114 -0.6291 -0.1025  0.7705
              Bcc     0.0043     0.580     0.207     0.194  0.5605  0.6270  0.5411
 
              Baa    -0.0211    -2.836    -1.012    -0.946  0.7322  0.1645 -0.6610
    58 C(13)  Bbb    -0.0196    -2.635    -0.940    -0.879  0.5823  0.3522  0.7327
              Bcc     0.0408     5.471     1.952     1.825 -0.3533  0.9213 -0.1621
 
              Baa    -0.0160    -2.153    -0.768    -0.718 -0.4399  0.8729  0.2112
    59 C(13)  Bbb     0.0065     0.876     0.313     0.292  0.8161  0.4867 -0.3117
              Bcc     0.0095     1.277     0.456     0.426  0.3749 -0.0352  0.9264
 
              Baa    -0.0101    -1.351    -0.482    -0.451 -0.5399 -0.4284  0.7245
    60 C(13)  Bbb    -0.0093    -1.245    -0.444    -0.415  0.2011  0.7702  0.6053
              Bcc     0.0193     2.595     0.926     0.866  0.8173 -0.4725  0.3297
 
              Baa    -0.0033    -0.448    -0.160    -0.150  0.5129  0.8085  0.2884
    61 C(13)  Bbb    -0.0023    -0.313    -0.112    -0.104  0.4529 -0.5403  0.7092
              Bcc     0.0057     0.761     0.272     0.254  0.7292 -0.2331 -0.6434
 
              Baa    -0.0094    -1.261    -0.450    -0.421 -0.6233 -0.1624  0.7649
    62 C(13)  Bbb     0.0041     0.553     0.197     0.184  0.4125  0.7627  0.4981
              Bcc     0.0053     0.709     0.253     0.236  0.6643 -0.6260  0.4085
 
              Baa    -0.0011    -0.144    -0.052    -0.048 -0.1574 -0.5287  0.8341
    63 C(13)  Bbb    -0.0005    -0.062    -0.022    -0.021  0.2640  0.7913  0.5514
              Bcc     0.0015     0.207     0.074     0.069  0.9516 -0.3070 -0.0150
 
              Baa    -0.0016    -0.217    -0.078    -0.072  0.9656  0.2264 -0.1281
    64 C(13)  Bbb     0.0007     0.095     0.034     0.032 -0.0198  0.5551  0.8316
              Bcc     0.0009     0.122     0.044     0.041 -0.2594  0.8004 -0.5404
 
              Baa    -0.0033    -0.436    -0.156    -0.146  0.5016  0.8038 -0.3198
    65 C(13)  Bbb    -0.0026    -0.352    -0.126    -0.117  0.3193  0.1715  0.9320
              Bcc     0.0059     0.788     0.281     0.263  0.8040 -0.5696 -0.1706
 
              Baa    -0.0047    -0.634    -0.226    -0.211  0.8959 -0.4442  0.0004
    66 C(13)  Bbb     0.0021     0.282     0.101     0.094  0.4384  0.8843  0.1608
              Bcc     0.0026     0.352     0.126     0.117 -0.0718 -0.1439  0.9870
 
              Baa    -0.0321    -1.680    -0.599    -0.560  0.7728 -0.4948  0.3974
    67 Cl(35) Bbb    -0.0202    -1.058    -0.377    -0.353  0.1226  0.7307  0.6716
              Bcc     0.0523     2.738     0.977     0.913 -0.6227 -0.4703  0.6254
 
              Baa    -0.2560   -13.397    -4.781    -4.469 -0.0028  0.0118  0.9999
    68 Cl(35) Bbb    -0.2296   -12.017    -4.288    -4.008  0.3349  0.9422 -0.0102
              Bcc     0.4856    25.414     9.068     8.477  0.9422 -0.3349  0.0065
 
              Baa    -0.0194    -1.016    -0.362    -0.339 -0.0244 -0.6329  0.7739
    69 Cl(35) Bbb    -0.0119    -0.622    -0.222    -0.207  0.0558  0.7720  0.6331
              Bcc     0.0313     1.638     0.584     0.546  0.9981 -0.0586 -0.0165
 
              Baa    -0.0340    -1.778    -0.635    -0.593 -0.2050  0.7584  0.6187
    70 Cl(35) Bbb     0.0144     0.754     0.269     0.251  0.9061  0.3860 -0.1730
              Bcc     0.0196     1.024     0.365     0.342  0.3700 -0.5252  0.7663
 
              Baa    -0.0252    -1.317    -0.470    -0.439  0.1748  0.6155  0.7685
    71 Cl(35) Bbb    -0.0201    -1.054    -0.376    -0.352 -0.5088  0.7247 -0.4647
              Bcc     0.0453     2.371     0.846     0.791  0.8430  0.3097 -0.4399
 
              Baa    -0.0310    -1.620    -0.578    -0.540  0.1662  0.8334 -0.5270
    72 Cl(35) Bbb     0.0116     0.609     0.217     0.203 -0.3120  0.5514  0.7737
              Bcc     0.0193     1.011     0.361     0.337  0.9354  0.0358  0.3517
 
              Baa    -0.0710    -3.714    -1.325    -1.239 -0.5783  0.6194 -0.5310
    73 Cl(35) Bbb    -0.0602    -3.149    -1.124    -1.050 -0.5567  0.1762  0.8118
              Bcc     0.1311     6.863     2.449     2.289  0.5964  0.7651  0.2429
 
              Baa    -0.0382    -2.001    -0.714    -0.667  0.6668  0.4063 -0.6247
    74 Cl(35) Bbb     0.0157     0.823     0.294     0.274  0.6361  0.1265  0.7612
              Bcc     0.0225     1.178     0.420     0.393 -0.3883  0.9050  0.1741
 
              Baa    -0.1579    -8.264    -2.949    -2.757  0.9074 -0.3173 -0.2756
    75 Cl(35) Bbb    -0.1427    -7.468    -2.665    -2.491  0.3906  0.8788  0.2743
              Bcc     0.3006    15.733     5.614     5.248  0.1551 -0.3565  0.9213
 

 ---------------------------------------------------------------------------------

 No NMR shielding tensors so no spin-rotation constants.
 Leave Link  601 at Sat Jul 16 16:01:59 2022, MaxMem=  1342177280 cpu:             112.6 elap:               2.6
 (Enter /home/mkliu/g16/l9999.exe)
 1\1\GINC-NODE03\FOpt\UB3LYP\6-311G(d,p)\C66Cl9(2)\MKLIU\16-Jul-2022\0\
 \#P opt b3lyp/6-311G(d, p) empiricaldispersion=GD3\\force\\0,2\C,-1.34
 9180351,1.883225672,-3.9826224263\C,0.188262484,2.2554226671,-3.989733
 497\C,0.9702795435,0.8732351934,-4.3147679416\C,-1.3019773935,0.401925
 664,-3.8681012453\C,-0.0858618552,-0.1747571581,-4.1684784126\C,-2.172
 8582173,-0.131265098,-2.9245672655\C,-2.2308582456,2.2932946825,-2.694
 8038029\C,-2.7296968222,0.9296281834,-2.1481415631\C,-1.4747747015,2.9
 479103185,-1.5419883545\C,0.7065274606,2.6032761553,-2.640332216\C,-0.
 0555948203,3.1797071801,-1.5889561354\C,1.8848934572,0.6727772087,-3.1
 102361516\C,1.833955267,1.8008586901,-2.2825986957\C,2.2390790143,-0.5
 588742779,-2.5594406684\C,0.1979074652,-1.4190924251,-3.6416223592\C,1
 .6054678171,-1.8145724914,-3.1861194889\C,-1.946110648,-1.4208162817,-
 2.3927495244\C,-0.7675861926,-2.0842468271,-2.8614209387\C,-2.47743092
 73,-1.7261258436,-1.0832682038\C,-3.1361275031,0.7059054472,-0.8620452
 383\C,-3.0926244745,-0.6491096861,-0.3051746258\C,-2.101465021,2.91015
 15565,-0.3087551639\C,-3.2370676176,1.9292984432,0.0433735736\C,-1.405
 5533198,3.2357372806,0.8807364526\C,0.64011267,3.4288732687,-0.3928096
 534\C,-0.0305842932,3.5068898295,0.8331628998\C,2.4013298137,1.7938288
 163,-0.9987044573\C,2.0862404432,2.9991509265,-0.1498017192\C,2.829252
 9926,-0.5933778815,-1.2668443187\C,2.9565573319,0.6044764541,-0.508783
 7751\C,3.1385673269,-1.9498338075,-0.6219370483\C,1.3031347518,-2.8343
 293651,-2.1095546662\C,-0.1095836839,-3.0580004458,-2.0345509674\C,2.0
 488128032,-2.9541401759,-0.9754144091\C,-1.9399750036,-2.8499060086,-0
 .4051741489\C,-0.7152187469,-3.4855246644,-0.8716727362\C,-1.941191274
 5,-2.9271085479,1.016519215\C,-3.168297684,-0.8096474399,1.0962565579\
 C,-2.5548567969,-1.9151643429,1.7546142642\C,-2.9337775297,1.615620714
 9,1.492894912\C,-1.9406367179,2.5032290254,2.0043369738\C,-3.038604939
 4,0.3484060748,1.9954794554\C,-1.1152087499,2.1251301537,3.0646867337\
 C,0.8405912476,3.0783552471,1.9091182139\C,2.077902267,2.6584987648,1.
 3215557742\C,0.3087335394,2.4205954645,3.0128258349\C,3.4918070001,0.5
 858088658,0.9255732277\C,2.7288120639,1.5648211311,1.8131079029\C,3.01
 99650287,-1.8901298512,0.892324318\C,3.2017157628,-0.7393158891,1.6010
 855472\C,1.4568007087,-3.4801285645,0.218475665\C,0.0931960459,-3.7971
 300653,0.2699243116\C,-0.676231463,-3.4893427811,1.4549640252\C,2.0881
 092574,-2.872786326,1.3622930744\C,-0.0502866227,-2.9782583722,2.58457
 39604\C,1.3663935808,-2.672433097,2.5429973339\C,-1.9440183973,-1.4527
 869381,2.991949443\C,-2.2398938866,-0.0500838634,3.1307075404\C,-1.276
 8835337,0.8230746068,3.6548253496\C,-0.7027701205,-1.9544364058,3.3813
 723595\C,1.0166405064,1.3022635465,3.5688571716\C,2.2030283778,0.88136
 12293,2.9589383493\C,2.4910302092,-0.5253227708,2.8265741425\C,1.58486
 77385,-1.4751508739,3.306604372\C,0.0369506194,0.3151999178,3.99386727
 52\C,0.3170833494,-1.0413844319,3.8606565622\Cl,-2.1365074406,2.268702
 0796,-5.5704494161\Cl,0.6174178058,3.6531610589,-5.0597521746\Cl,1.867
 2243129,0.814433683,-5.8755105248\Cl,2.6479179055,-2.5185459184,-4.516
 7788176\Cl,-3.6105282957,3.4024687173,-3.1268066728\Cl,-4.9355766511,2
 .6684853733,-0.0297333199\Cl,4.8183887531,-2.5062346812,-1.1496260625\
 Cl,5.2982376875,0.9610882169,0.8802277181\Cl,3.28279226,4.3715229607,-
 0.5294224792\\Version=ES64L-G16RevA.03\State=2-A\HF=-6657.4618924\S2=0
 .782254\S2-1=0.\S2A=0.750943\RMSD=4.316e-09\RMSF=2.129e-05\Dipole=-0.8
 579994,-1.052481,1.4477053\Quadrupole=-9.5725574,4.5156787,5.0568787,4
 .9830234,0.6113474,1.1133974\PG=C01 [X(C66Cl9)]\\@


 ADVERTISING--  HE WHO HAS SOMETHING TO SELL AND GOES AND WHISPERS
                IN A WELL, IS NOT SO APT TO GET THE DOLLARS AS HE
                WHO CLIMBS A TREE AND HOLLERS.

                   -- FROM THE BACK OF A SUGAR PACKET
 Job cpu time:       5 days  7 hours  6 minutes  3.6 seconds.
 Elapsed time:       0 days  2 hours 39 minutes  8.9 seconds.
 File lengths (MBytes):  RWF=   2194 Int=      0 D2E=      0 Chk=    197 Scr=      1
 Normal termination of Gaussian 16 at Sat Jul 16 16:02:01 2022.
