 Entering Gaussian System, Link 0=g16
 Input=dqwuc437wwlc0_addon_7.gjf
 Output=dqwuc437wwlc0_addon_7.log
 Initial command:
 /home/mkliu/g16/l1.exe "/data/scratch/Gau-40835.inp" -scrdir="/data/scratch/"
 Entering Link 1 = /home/mkliu/g16/l1.exe PID=     40836.
  
 Copyright (c) 1988,1990,1992,1993,1995,1998,2003,2009,2016,
            Gaussian, Inc.  All Rights Reserved.
  
 This is part of the Gaussian(R) 16 program.  It is based on
 the Gaussian(R) 09 system (copyright 2009, Gaussian, Inc.),
 the Gaussian(R) 03 system (copyright 2003, Gaussian, Inc.),
 the Gaussian(R) 98 system (copyright 1998, Gaussian, Inc.),
 the Gaussian(R) 94 system (copyright 1995, Gaussian, Inc.),
 the Gaussian 92(TM) system (copyright 1992, Gaussian, Inc.),
 the Gaussian 90(TM) system (copyright 1990, Gaussian, Inc.),
 the Gaussian 88(TM) system (copyright 1988, Gaussian, Inc.),
 the Gaussian 86(TM) system (copyright 1986, Carnegie Mellon
 University), and the Gaussian 82(TM) system (copyright 1983,
 Carnegie Mellon University). Gaussian is a federally registered
 trademark of Gaussian, Inc.
  
 This software contains proprietary and confidential information,
 including trade secrets, belonging to Gaussian, Inc.
  
 This software is provided under written license and may be
 used, copied, transmitted, or stored only in accord with that
 written license.
  
 The following legend is applicable only to US Government
 contracts under FAR:
  
                    RESTRICTED RIGHTS LEGEND
  
 Use, reproduction and disclosure by the US Government is
 subject to restrictions as set forth in subparagraphs (a)
 and (c) of the Commercial Computer Software - Restricted
 Rights clause in FAR 52.227-19.
  
 Gaussian, Inc.
 340 Quinnipiac St., Bldg. 40, Wallingford CT 06492
  
  
 ---------------------------------------------------------------
 Warning -- This program may not be used in any manner that
 competes with the business of Gaussian, Inc. or will provide
 assistance to any competitor of Gaussian, Inc.  The licensee
 of this program is prohibited from giving any competitor of
 Gaussian, Inc. access to this program.  By using this program,
 the user acknowledges that Gaussian, Inc. is engaged in the
 business of creating and licensing software in the field of
 computational chemistry and represents and warrants to the
 licensee that it is not a competitor of Gaussian, Inc. and that
 it will not use this program in any manner prohibited above.
 ---------------------------------------------------------------
  

 Cite this work as:
 Gaussian 16, Revision A.03,
 M. J. Frisch, G. W. Trucks, H. B. Schlegel, G. E. Scuseria, 
 M. A. Robb, J. R. Cheeseman, G. Scalmani, V. Barone, 
 G. A. Petersson, H. Nakatsuji, X. Li, M. Caricato, A. V. Marenich, 
 J. Bloino, B. G. Janesko, R. Gomperts, B. Mennucci, H. P. Hratchian, 
 J. V. Ortiz, A. F. Izmaylov, J. L. Sonnenberg, D. Williams-Young, 
 F. Ding, F. Lipparini, F. Egidi, J. Goings, B. Peng, A. Petrone, 
 T. Henderson, D. Ranasinghe, V. G. Zakrzewski, J. Gao, N. Rega, 
 G. Zheng, W. Liang, M. Hada, M. Ehara, K. Toyota, R. Fukuda, 
 J. Hasegawa, M. Ishida, T. Nakajima, Y. Honda, O. Kitao, H. Nakai, 
 T. Vreven, K. Throssell, J. A. Montgomery, Jr., J. E. Peralta, 
 F. Ogliaro, M. J. Bearpark, J. J. Heyd, E. N. Brothers, K. N. Kudin, 
 V. N. Staroverov, T. A. Keith, R. Kobayashi, J. Normand, 
 K. Raghavachari, A. P. Rendell, J. C. Burant, S. S. Iyengar, 
 J. Tomasi, M. Cossi, J. M. Millam, M. Klene, C. Adamo, R. Cammi, 
 J. W. Ochterski, R. L. Martin, K. Morokuma, O. Farkas, 
 J. B. Foresman, and D. J. Fox, Gaussian, Inc., Wallingford CT, 2016.
 
 ******************************************
 Gaussian 16:  ES64L-G16RevA.03 25-Dec-2016
                16-Jul-2022 
 ******************************************
 %mem=10GB
 %chk=dqwuc437wwlc0_addon_7.chk
 %nprocshared=48
 Will use up to   48 processors via shared memory.
 -------------------------------------------------
 #P opt b3lyp/6-311G(d, p) empiricaldispersion=GD3
 -------------------------------------------------
 1/18=20,19=15,26=3,38=1/1,3;
 2/9=110,12=2,17=6,18=5,40=1/2;
 3/5=4,6=6,7=101,11=2,25=1,30=1,71=1,74=-5,124=31/1,2,3;
 4//1;
 5/5=2,38=5/2;
 6/7=2,8=2,9=2,10=2,28=1/1;
 7//1,2,3,16;
 1/18=20,19=15,26=3/3(2);
 2/9=110/2;
 99//99;
 2/9=110/2;
 3/5=4,6=6,7=101,11=2,25=1,30=1,71=1,74=-5,124=31/1,2,3;
 4/5=5,16=3,69=1/1;
 5/5=2,38=5/2;
 7//1,2,3,16;
 1/18=20,19=15,26=3/3(-5);
 2/9=110/2;
 6/7=2,8=2,9=2,10=2,19=2,28=1/1;
 99/9=1/99;
 Leave Link    1 at Sat Jul 16 06:15:43 2022, MaxMem=  1342177280 cpu:               2.0 elap:               0.0
 (Enter /home/mkliu/g16/l101.exe)
 -----
 force
 -----
 Symbolic Z-matrix:
 Charge =  0 Multiplicity = 2
 C                    -1.35109   1.87991  -3.95779 
 C                     0.17372   2.22093  -3.98659 
 C                     0.98122   0.91776  -4.30268 
 C                    -1.25289   0.41565  -3.80616 
 C                    -0.03971  -0.14193  -4.10964 
 C                    -2.10651  -0.10596  -2.85579 
 C                    -2.22276   2.28821  -2.72966 
 C                    -2.70522   0.95731  -2.12714 
 C                    -1.50369   2.91224  -1.56163 
 C                     0.64375   2.50355  -2.61518 
 C                    -0.07266   3.121    -1.60732 
 C                     1.88793   0.67973  -3.11306 
 C                     1.80407   1.7875   -2.26403 
 C                     2.24768  -0.55438  -2.57472 
 C                     0.24125  -1.37989  -3.58588 
 C                     1.64026  -1.80575  -3.18354 
 C                    -1.88897  -1.37833  -2.33249 
 C                    -0.72032  -2.03132  -2.79173 
 C                    -2.44821  -1.66997  -1.04374 
 C                    -3.11083   0.73641  -0.84761 
 C                    -3.06187  -0.61017  -0.28926 
 C                    -2.09805   2.87427  -0.33883 
 C                    -3.23879   1.94513   0.04433 
 C                    -1.38409   3.22654   0.86505 
 C                     0.62577   3.33889  -0.40562 
 C                    -0.04131   3.50799   0.83067 
 C                     2.38882   1.76518  -0.99393 
 C                     1.88216   2.73232  -0.1266 
 C                     2.88647  -0.60002  -1.30426 
 C                     3.01674   0.56811  -0.51635 
 C                     3.15693  -1.94246  -0.63513 
 C                     1.328    -2.80385  -2.10378 
 C                    -0.08096  -3.01295  -1.99879 
 C                     2.06222  -2.91932  -0.97384 
 C                    -1.91284  -2.7914   -0.3804 
 C                    -0.70146  -3.4231   -0.8449 
 C                    -1.92395  -2.87439   1.03877 
 C                    -3.13993  -0.76868   1.09854 
 C                    -2.54109  -1.87241   1.76389 
 C                    -2.92042   1.64749   1.4718 
 C                    -1.91895   2.52      1.98231 
 C                    -3.01635   0.38838   1.98486 
 C                    -1.08469   2.12159   3.02783 
 C                     0.8346    3.07219   1.88935 
 C                     2.03809   2.59311   1.27718 
 C                     0.31896   2.40416   2.97682 
 C                     3.25798   0.51009   0.90063 
 C                     2.73461   1.49621   1.76924 
 C                     3.04219  -1.91016   0.86609 
 C                     3.21194  -0.75916   1.58677 
 C                     1.46211  -3.45262   0.21183 
 C                     0.11243  -3.7455    0.27839 
 C                    -0.66187  -3.43553   1.44616 
 C                     2.10309  -2.8653    1.34611 
 C                    -0.03176  -2.92797   2.56199 
 C                     1.37242  -2.64494   2.51429 
 C                    -1.92619  -1.41512   2.98575 
 C                    -2.21056  -0.01453   3.10442 
 C                    -1.23804   0.83051   3.61534 
 C                    -0.69072  -1.9135    3.35239 
 C                     1.04935   1.28436   3.53002 
 C                     2.23444   0.85358   2.96345 
 C                     2.51896  -0.54591   2.83214 
 C                     1.59143  -1.46386   3.28391 
 C                     0.06687   0.32496   3.95779 
 C                     0.33329  -1.02697   3.83053 
 Cl                   -2.09381   2.32994  -5.52218 
 Cl                    0.49443   3.65114  -5.0141 
 Cl                    1.83879   0.8192   -5.84428 
 Cl                    2.6759   -2.44298  -4.49491 
 Cl                   -3.6043    3.34833  -3.14981 
 Cl                   -4.88179   2.66956  -0.15953 
 Cl                    4.78866  -2.48613  -1.22903 
 
 ITRead=  0  0  0  0  0  0  0  0  0  0  0  0  0  0  0  0  0  0  0  0
 ITRead=  0  0  0  0  0  0  0  0  0  0  0  0  0  0  0  0  0  0  0  0
 ITRead=  0  0  0  0  0  0  0  0  0  0  0  0  0  0  0  0  0  0  0  0
 ITRead=  0  0  0  0  0  0  0  0  0  0  0  0  0
 MicOpt= -1 -1 -1 -1 -1 -1 -1 -1 -1 -1 -1 -1 -1 -1 -1 -1 -1 -1 -1 -1
 MicOpt= -1 -1 -1 -1 -1 -1 -1 -1 -1 -1 -1 -1 -1 -1 -1 -1 -1 -1 -1 -1
 MicOpt= -1 -1 -1 -1 -1 -1 -1 -1 -1 -1 -1 -1 -1 -1 -1 -1 -1 -1 -1 -1
 MicOpt= -1 -1 -1 -1 -1 -1 -1 -1 -1 -1 -1 -1 -1
 NAtoms=     73 NQM=       73 NQMF=       0 NMMI=      0 NMMIF=      0
                NMic=       0 NMicF=      0.
                    Isotopes and Nuclear Properties:
 (Nuclear quadrupole moments (NQMom) in fm**2, nuclear magnetic moments (NMagM)
  in nuclear magnetons)

  Atom         1           2           3           4           5           6           7           8           9          10
 IAtWgt=          12          12          12          12          12          12          12          12          12          12
 AtmWgt=  12.0000000  12.0000000  12.0000000  12.0000000  12.0000000  12.0000000  12.0000000  12.0000000  12.0000000  12.0000000
 NucSpn=           0           0           0           0           0           0           0           0           0           0
 AtZEff=  -0.0000000  -0.0000000  -0.0000000  -0.0000000  -0.0000000  -0.0000000  -0.0000000  -0.0000000  -0.0000000  -0.0000000
 NQMom=    0.0000000   0.0000000   0.0000000   0.0000000   0.0000000   0.0000000   0.0000000   0.0000000   0.0000000   0.0000000
 NMagM=    0.0000000   0.0000000   0.0000000   0.0000000   0.0000000   0.0000000   0.0000000   0.0000000   0.0000000   0.0000000
 AtZNuc=   6.0000000   6.0000000   6.0000000   6.0000000   6.0000000   6.0000000   6.0000000   6.0000000   6.0000000   6.0000000

  Atom        11          12          13          14          15          16          17          18          19          20
 IAtWgt=          12          12          12          12          12          12          12          12          12          12
 AtmWgt=  12.0000000  12.0000000  12.0000000  12.0000000  12.0000000  12.0000000  12.0000000  12.0000000  12.0000000  12.0000000
 NucSpn=           0           0           0           0           0           0           0           0           0           0
 AtZEff=  -0.0000000  -0.0000000  -0.0000000  -0.0000000  -0.0000000  -0.0000000  -0.0000000  -0.0000000  -0.0000000  -0.0000000
 NQMom=    0.0000000   0.0000000   0.0000000   0.0000000   0.0000000   0.0000000   0.0000000   0.0000000   0.0000000   0.0000000
 NMagM=    0.0000000   0.0000000   0.0000000   0.0000000   0.0000000   0.0000000   0.0000000   0.0000000   0.0000000   0.0000000
 AtZNuc=   6.0000000   6.0000000   6.0000000   6.0000000   6.0000000   6.0000000   6.0000000   6.0000000   6.0000000   6.0000000

  Atom        21          22          23          24          25          26          27          28          29          30
 IAtWgt=          12          12          12          12          12          12          12          12          12          12
 AtmWgt=  12.0000000  12.0000000  12.0000000  12.0000000  12.0000000  12.0000000  12.0000000  12.0000000  12.0000000  12.0000000
 NucSpn=           0           0           0           0           0           0           0           0           0           0
 AtZEff=  -0.0000000  -0.0000000  -0.0000000  -0.0000000  -0.0000000  -0.0000000  -0.0000000  -0.0000000  -0.0000000  -0.0000000
 NQMom=    0.0000000   0.0000000   0.0000000   0.0000000   0.0000000   0.0000000   0.0000000   0.0000000   0.0000000   0.0000000
 NMagM=    0.0000000   0.0000000   0.0000000   0.0000000   0.0000000   0.0000000   0.0000000   0.0000000   0.0000000   0.0000000
 AtZNuc=   6.0000000   6.0000000   6.0000000   6.0000000   6.0000000   6.0000000   6.0000000   6.0000000   6.0000000   6.0000000

  Atom        31          32          33          34          35          36          37          38          39          40
 IAtWgt=          12          12          12          12          12          12          12          12          12          12
 AtmWgt=  12.0000000  12.0000000  12.0000000  12.0000000  12.0000000  12.0000000  12.0000000  12.0000000  12.0000000  12.0000000
 NucSpn=           0           0           0           0           0           0           0           0           0           0
 AtZEff=  -0.0000000  -0.0000000  -0.0000000  -0.0000000  -0.0000000  -0.0000000  -0.0000000  -0.0000000  -0.0000000  -0.0000000
 NQMom=    0.0000000   0.0000000   0.0000000   0.0000000   0.0000000   0.0000000   0.0000000   0.0000000   0.0000000   0.0000000
 NMagM=    0.0000000   0.0000000   0.0000000   0.0000000   0.0000000   0.0000000   0.0000000   0.0000000   0.0000000   0.0000000
 AtZNuc=   6.0000000   6.0000000   6.0000000   6.0000000   6.0000000   6.0000000   6.0000000   6.0000000   6.0000000   6.0000000

  Atom        41          42          43          44          45          46          47          48          49          50
 IAtWgt=          12          12          12          12          12          12          12          12          12          12
 AtmWgt=  12.0000000  12.0000000  12.0000000  12.0000000  12.0000000  12.0000000  12.0000000  12.0000000  12.0000000  12.0000000
 NucSpn=           0           0           0           0           0           0           0           0           0           0
 AtZEff=  -0.0000000  -0.0000000  -0.0000000  -0.0000000  -0.0000000  -0.0000000  -0.0000000  -0.0000000  -0.0000000  -0.0000000
 NQMom=    0.0000000   0.0000000   0.0000000   0.0000000   0.0000000   0.0000000   0.0000000   0.0000000   0.0000000   0.0000000
 NMagM=    0.0000000   0.0000000   0.0000000   0.0000000   0.0000000   0.0000000   0.0000000   0.0000000   0.0000000   0.0000000
 AtZNuc=   6.0000000   6.0000000   6.0000000   6.0000000   6.0000000   6.0000000   6.0000000   6.0000000   6.0000000   6.0000000

  Atom        51          52          53          54          55          56          57          58          59          60
 IAtWgt=          12          12          12          12          12          12          12          12          12          12
 AtmWgt=  12.0000000  12.0000000  12.0000000  12.0000000  12.0000000  12.0000000  12.0000000  12.0000000  12.0000000  12.0000000
 NucSpn=           0           0           0           0           0           0           0           0           0           0
 AtZEff=  -0.0000000  -0.0000000  -0.0000000  -0.0000000  -0.0000000  -0.0000000  -0.0000000  -0.0000000  -0.0000000  -0.0000000
 NQMom=    0.0000000   0.0000000   0.0000000   0.0000000   0.0000000   0.0000000   0.0000000   0.0000000   0.0000000   0.0000000
 NMagM=    0.0000000   0.0000000   0.0000000   0.0000000   0.0000000   0.0000000   0.0000000   0.0000000   0.0000000   0.0000000
 AtZNuc=   6.0000000   6.0000000   6.0000000   6.0000000   6.0000000   6.0000000   6.0000000   6.0000000   6.0000000   6.0000000

  Atom        61          62          63          64          65          66          67          68          69          70
 IAtWgt=          12          12          12          12          12          12          35          35          35          35
 AtmWgt=  12.0000000  12.0000000  12.0000000  12.0000000  12.0000000  12.0000000  34.9688527  34.9688527  34.9688527  34.9688527
 NucSpn=           0           0           0           0           0           0           3           3           3           3
 AtZEff=  -0.0000000  -0.0000000  -0.0000000  -0.0000000  -0.0000000  -0.0000000  -0.0000000  -0.0000000  -0.0000000  -0.0000000
 NQMom=    0.0000000   0.0000000   0.0000000   0.0000000   0.0000000   0.0000000  -8.1650000  -8.1650000  -8.1650000  -8.1650000
 NMagM=    0.0000000   0.0000000   0.0000000   0.0000000   0.0000000   0.0000000   0.8218740   0.8218740   0.8218740   0.8218740
 AtZNuc=   6.0000000   6.0000000   6.0000000   6.0000000   6.0000000   6.0000000  17.0000000  17.0000000  17.0000000  17.0000000

  Atom        71          72          73
 IAtWgt=          35          35          35
 AtmWgt=  34.9688527  34.9688527  34.9688527
 NucSpn=           3           3           3
 AtZEff=  -0.0000000  -0.0000000  -0.0000000
 NQMom=   -8.1650000  -8.1650000  -8.1650000
 NMagM=    0.8218740   0.8218740   0.8218740
 AtZNuc=  17.0000000  17.0000000  17.0000000
 Leave Link  101 at Sat Jul 16 06:15:44 2022, MaxMem=  1342177280 cpu:              28.7 elap:               0.6
 (Enter /home/mkliu/g16/l103.exe)

 GradGradGradGradGradGradGradGradGradGradGradGradGradGradGradGradGradGrad
 Berny optimization.
 Initialization pass.
                           ----------------------------
                           !    Initial Parameters    !
                           ! (Angstroms and Degrees)  !
 --------------------------                            --------------------------
 ! Name  Definition              Value          Derivative Info.                !
 --------------------------------------------------------------------------------
 ! R1    R(1,2)                  1.5627         estimate D2E/DX2                !
 ! R2    R(1,4)                  1.4754         estimate D2E/DX2                !
 ! R3    R(1,7)                  1.5604         estimate D2E/DX2                !
 ! R4    R(1,67)                 1.7893         estimate D2E/DX2                !
 ! R5    R(2,3)                  1.5653         estimate D2E/DX2                !
 ! R6    R(2,10)                 1.477          estimate D2E/DX2                !
 ! R7    R(2,68)                 1.79           estimate D2E/DX2                !
 ! R8    R(3,5)                  1.4841         estimate D2E/DX2                !
 ! R9    R(3,12)                 1.5146         estimate D2E/DX2                !
 ! R10   R(3,69)                 1.7668         estimate D2E/DX2                !
 ! R11   R(4,5)                  1.3692         estimate D2E/DX2                !
 ! R12   R(4,6)                  1.3798         estimate D2E/DX2                !
 ! R13   R(5,15)                 1.3732         estimate D2E/DX2                !
 ! R14   R(6,8)                  1.4212         estimate D2E/DX2                !
 ! R15   R(6,17)                 1.3929         estimate D2E/DX2                !
 ! R16   R(7,8)                  1.5385         estimate D2E/DX2                !
 ! R17   R(7,9)                  1.5069         estimate D2E/DX2                !
 ! R18   R(7,71)                 1.7914         estimate D2E/DX2                !
 ! R19   R(8,20)                 1.3603         estimate D2E/DX2                !
 ! R20   R(9,11)                 1.4469         estimate D2E/DX2                !
 ! R21   R(9,22)                 1.3601         estimate D2E/DX2                !
 ! R22   R(10,11)                1.3821         estimate D2E/DX2                !
 ! R23   R(10,13)                1.408          estimate D2E/DX2                !
 ! R24   R(11,25)                1.4069         estimate D2E/DX2                !
 ! R25   R(12,13)                1.3982         estimate D2E/DX2                !
 ! R26   R(12,14)                1.3937         estimate D2E/DX2                !
 ! R27   R(13,27)                1.3984         estimate D2E/DX2                !
 ! R28   R(14,16)                1.5184         estimate D2E/DX2                !
 ! R29   R(14,29)                1.4227         estimate D2E/DX2                !
 ! R30   R(15,16)                1.5167         estimate D2E/DX2                !
 ! R31   R(15,18)                1.407          estimate D2E/DX2                !
 ! R32   R(16,32)                1.5032         estimate D2E/DX2                !
 ! R33   R(16,70)                1.7884         estimate D2E/DX2                !
 ! R34   R(17,18)                1.4153         estimate D2E/DX2                !
 ! R35   R(17,19)                1.4348         estimate D2E/DX2                !
 ! R36   R(18,33)                1.4146         estimate D2E/DX2                !
 ! R37   R(19,21)                1.4384         estimate D2E/DX2                !
 ! R38   R(19,35)                1.4086         estimate D2E/DX2                !
 ! R39   R(20,21)                1.4586         estimate D2E/DX2                !
 ! R40   R(20,23)                1.5076         estimate D2E/DX2                !
 ! R41   R(21,38)                1.399          estimate D2E/DX2                !
 ! R42   R(22,23)                1.5203         estimate D2E/DX2                !
 ! R43   R(22,24)                1.4433         estimate D2E/DX2                !
 ! R44   R(23,40)                1.4925         estimate D2E/DX2                !
 ! R45   R(23,72)                1.8072         estimate D2E/DX2                !
 ! R46   R(24,26)                1.3724         estimate D2E/DX2                !
 ! R47   R(24,41)                1.426          estimate D2E/DX2                !
 ! R48   R(25,26)                1.4149         estimate D2E/DX2                !
 ! R49   R(25,28)                1.4228         estimate D2E/DX2                !
 ! R50   R(26,44)                1.4415         estimate D2E/DX2                !
 ! R51   R(27,28)                1.3944         estimate D2E/DX2                !
 ! R52   R(27,30)                1.4336         estimate D2E/DX2                !
 ! R53   R(28,45)                1.4193         estimate D2E/DX2                !
 ! R54   R(29,30)                1.415          estimate D2E/DX2                !
 ! R55   R(29,31)                1.5242         estimate D2E/DX2                !
 ! R56   R(30,47)                1.4385         estimate D2E/DX2                !
 ! R57   R(31,34)                1.5058         estimate D2E/DX2                !
 ! R58   R(31,49)                1.5059         estimate D2E/DX2                !
 ! R59   R(31,73)                1.8196         estimate D2E/DX2                !
 ! R60   R(32,33)                1.4282         estimate D2E/DX2                !
 ! R61   R(32,34)                1.3525         estimate D2E/DX2                !
 ! R62   R(33,36)                1.3728         estimate D2E/DX2                !
 ! R63   R(34,51)                1.4319         estimate D2E/DX2                !
 ! R64   R(35,36)                1.443          estimate D2E/DX2                !
 ! R65   R(35,37)                1.4216         estimate D2E/DX2                !
 ! R66   R(36,52)                1.4241         estimate D2E/DX2                !
 ! R67   R(37,39)                1.3823         estimate D2E/DX2                !
 ! R68   R(37,53)                1.44           estimate D2E/DX2                !
 ! R69   R(38,39)                1.4211         estimate D2E/DX2                !
 ! R70   R(38,42)                1.4627         estimate D2E/DX2                !
 ! R71   R(39,57)                1.4423         estimate D2E/DX2                !
 ! R72   R(40,41)                1.423          estimate D2E/DX2                !
 ! R73   R(40,42)                1.363          estimate D2E/DX2                !
 ! R74   R(41,43)                1.3956         estimate D2E/DX2                !
 ! R75   R(42,58)                1.437          estimate D2E/DX2                !
 ! R76   R(43,46)                1.4327         estimate D2E/DX2                !
 ! R77   R(43,59)                1.4267         estimate D2E/DX2                !
 ! R78   R(44,45)                1.4327         estimate D2E/DX2                !
 ! R79   R(44,46)                1.3765         estimate D2E/DX2                !
 ! R80   R(45,48)                1.3894         estimate D2E/DX2                !
 ! R81   R(46,61)                1.4469         estimate D2E/DX2                !
 ! R82   R(47,48)                1.4145         estimate D2E/DX2                !
 ! R83   R(47,50)                1.4436         estimate D2E/DX2                !
 ! R84   R(48,62)                1.4454         estimate D2E/DX2                !
 ! R85   R(49,50)                1.3686         estimate D2E/DX2                !
 ! R86   R(49,54)                1.4229         estimate D2E/DX2                !
 ! R87   R(50,63)                1.4411         estimate D2E/DX2                !
 ! R88   R(51,52)                1.3827         estimate D2E/DX2                !
 ! R89   R(51,54)                1.4291         estimate D2E/DX2                !
 ! R90   R(52,53)                1.435          estimate D2E/DX2                !
 ! R91   R(53,55)                1.3783         estimate D2E/DX2                !
 ! R92   R(54,56)                1.3954         estimate D2E/DX2                !
 ! R93   R(55,56)                1.4332         estimate D2E/DX2                !
 ! R94   R(55,60)                1.445          estimate D2E/DX2                !
 ! R95   R(56,64)                1.4266         estimate D2E/DX2                !
 ! R96   R(57,58)                1.4341         estimate D2E/DX2                !
 ! R97   R(57,60)                1.3817         estimate D2E/DX2                !
 ! R98   R(58,59)                1.386          estimate D2E/DX2                !
 ! R99   R(59,65)                1.4407         estimate D2E/DX2                !
 ! R100  R(60,66)                1.4364         estimate D2E/DX2                !
 ! R101  R(61,62)                1.3824         estimate D2E/DX2                !
 ! R102  R(61,65)                1.4383         estimate D2E/DX2                !
 ! R103  R(62,63)                1.4341         estimate D2E/DX2                !
 ! R104  R(63,64)                1.381          estimate D2E/DX2                !
 ! R105  R(64,66)                1.4396         estimate D2E/DX2                !
 ! R106  R(65,66)                1.3838         estimate D2E/DX2                !
 ! A1    A(2,1,4)               98.8313         estimate D2E/DX2                !
 ! A2    A(2,1,7)              120.1631         estimate D2E/DX2                !
 ! A3    A(2,1,67)             109.5134         estimate D2E/DX2                !
 ! A4    A(4,1,7)              102.4731         estimate D2E/DX2                !
 ! A5    A(4,1,67)             111.5379         estimate D2E/DX2                !
 ! A6    A(7,1,67)             112.9825         estimate D2E/DX2                !
 ! A7    A(1,2,3)              108.9895         estimate D2E/DX2                !
 ! A8    A(1,2,10)             109.5816         estimate D2E/DX2                !
 ! A9    A(1,2,68)             111.0845         estimate D2E/DX2                !
 ! A10   A(3,2,10)             100.5234         estimate D2E/DX2                !
 ! A11   A(3,2,68)             117.1838         estimate D2E/DX2                !
 ! A12   A(10,2,68)            108.8495         estimate D2E/DX2                !
 ! A13   A(2,3,5)              102.3169         estimate D2E/DX2                !
 ! A14   A(2,3,12)             106.3236         estimate D2E/DX2                !
 ! A15   A(2,3,69)             118.2307         estimate D2E/DX2                !
 ! A16   A(5,3,12)             101.387          estimate D2E/DX2                !
 ! A17   A(5,3,69)             114.0514         estimate D2E/DX2                !
 ! A18   A(12,3,69)            112.7045         estimate D2E/DX2                !
 ! A19   A(1,4,5)              116.1263         estimate D2E/DX2                !
 ! A20   A(1,4,6)              113.878          estimate D2E/DX2                !
 ! A21   A(5,4,6)              123.1512         estimate D2E/DX2                !
 ! A22   A(3,5,4)              110.3387         estimate D2E/DX2                !
 ! A23   A(3,5,15)             123.5432         estimate D2E/DX2                !
 ! A24   A(4,5,15)             117.6355         estimate D2E/DX2                !
 ! A25   A(4,6,8)              109.3243         estimate D2E/DX2                !
 ! A26   A(4,6,17)             120.4949         estimate D2E/DX2                !
 ! A27   A(8,6,17)             123.8196         estimate D2E/DX2                !
 ! A28   A(1,7,8)              104.8955         estimate D2E/DX2                !
 ! A29   A(1,7,9)              116.8636         estimate D2E/DX2                !
 ! A30   A(1,7,71)             113.6449         estimate D2E/DX2                !
 ! A31   A(8,7,9)              101.7892         estimate D2E/DX2                !
 ! A32   A(8,7,71)             111.219          estimate D2E/DX2                !
 ! A33   A(9,7,71)             107.7422         estimate D2E/DX2                !
 ! A34   A(6,8,7)              108.3175         estimate D2E/DX2                !
 ! A35   A(6,8,20)             119.1012         estimate D2E/DX2                !
 ! A36   A(7,8,20)             127.037          estimate D2E/DX2                !
 ! A37   A(7,9,11)             120.4786         estimate D2E/DX2                !
 ! A38   A(7,9,22)             118.4748         estimate D2E/DX2                !
 ! A39   A(11,9,22)            117.6854         estimate D2E/DX2                !
 ! A40   A(2,10,11)            126.6989         estimate D2E/DX2                !
 ! A41   A(2,10,13)            113.3601         estimate D2E/DX2                !
 ! A42   A(11,10,13)           118.1966         estimate D2E/DX2                !
 ! A43   A(9,11,10)            118.1138         estimate D2E/DX2                !
 ! A44   A(9,11,25)            119.1016         estimate D2E/DX2                !
 ! A45   A(10,11,25)           115.7677         estimate D2E/DX2                !
 ! A46   A(3,12,13)            108.4525         estimate D2E/DX2                !
 ! A47   A(3,12,14)            126.6631         estimate D2E/DX2                !
 ! A48   A(13,12,14)           118.8483         estimate D2E/DX2                !
 ! A49   A(10,13,12)           107.5118         estimate D2E/DX2                !
 ! A50   A(10,13,27)           125.3965         estimate D2E/DX2                !
 ! A51   A(12,13,27)           120.916          estimate D2E/DX2                !
 ! A52   A(12,14,16)           118.1409         estimate D2E/DX2                !
 ! A53   A(12,14,29)           119.2908         estimate D2E/DX2                !
 ! A54   A(16,14,29)           120.745          estimate D2E/DX2                !
 ! A55   A(5,15,16)            122.8882         estimate D2E/DX2                !
 ! A56   A(5,15,18)            119.5268         estimate D2E/DX2                !
 ! A57   A(16,15,18)           110.5272         estimate D2E/DX2                !
 ! A58   A(14,16,15)           104.1202         estimate D2E/DX2                !
 ! A59   A(14,16,32)           110.0174         estimate D2E/DX2                !
 ! A60   A(14,16,70)           110.8552         estimate D2E/DX2                !
 ! A61   A(15,16,32)           100.6823         estimate D2E/DX2                !
 ! A62   A(15,16,70)           116.0831         estimate D2E/DX2                !
 ! A63   A(32,16,70)           114.2316         estimate D2E/DX2                !
 ! A64   A(6,17,18)            115.3738         estimate D2E/DX2                !
 ! A65   A(6,17,19)            117.5328         estimate D2E/DX2                !
 ! A66   A(18,17,19)           121.2998         estimate D2E/DX2                !
 ! A67   A(15,18,17)           122.2663         estimate D2E/DX2                !
 ! A68   A(15,18,33)           109.1944         estimate D2E/DX2                !
 ! A69   A(17,18,33)           120.7628         estimate D2E/DX2                !
 ! A70   A(17,19,21)           119.1864         estimate D2E/DX2                !
 ! A71   A(17,19,35)           115.8909         estimate D2E/DX2                !
 ! A72   A(21,19,35)           120.1131         estimate D2E/DX2                !
 ! A73   A(8,20,21)            119.9985         estimate D2E/DX2                !
 ! A74   A(8,20,23)            116.846          estimate D2E/DX2                !
 ! A75   A(21,20,23)           121.1011         estimate D2E/DX2                !
 ! A76   A(19,21,20)           119.5873         estimate D2E/DX2                !
 ! A77   A(19,21,38)           117.4289         estimate D2E/DX2                !
 ! A78   A(20,21,38)           118.8469         estimate D2E/DX2                !
 ! A79   A(9,22,23)            124.8569         estimate D2E/DX2                !
 ! A80   A(9,22,24)            121.7968         estimate D2E/DX2                !
 ! A81   A(23,22,24)           108.0656         estimate D2E/DX2                !
 ! A82   A(20,23,22)           106.0922         estimate D2E/DX2                !
 ! A83   A(20,23,40)           112.8205         estimate D2E/DX2                !
 ! A84   A(20,23,72)           109.3791         estimate D2E/DX2                !
 ! A85   A(22,23,40)           101.7048         estimate D2E/DX2                !
 ! A86   A(22,23,72)           114.1262         estimate D2E/DX2                !
 ! A87   A(40,23,72)           112.4433         estimate D2E/DX2                !
 ! A88   A(22,24,26)           120.8744         estimate D2E/DX2                !
 ! A89   A(22,24,41)           110.3064         estimate D2E/DX2                !
 ! A90   A(26,24,41)           119.2231         estimate D2E/DX2                !
 ! A91   A(11,25,26)           122.0578         estimate D2E/DX2                !
 ! A92   A(11,25,28)           122.6741         estimate D2E/DX2                !
 ! A93   A(26,25,28)           107.2128         estimate D2E/DX2                !
 ! A94   A(24,26,25)           117.3009         estimate D2E/DX2                !
 ! A95   A(24,26,44)           120.9394         estimate D2E/DX2                !
 ! A96   A(25,26,44)           108.6084         estimate D2E/DX2                !
 ! A97   A(13,27,28)           113.699          estimate D2E/DX2                !
 ! A98   A(13,27,30)           119.9356         estimate D2E/DX2                !
 ! A99   A(28,27,30)           122.0782         estimate D2E/DX2                !
 ! A100  A(25,28,27)           119.6418         estimate D2E/DX2                !
 ! A101  A(25,28,45)           109.4396         estimate D2E/DX2                !
 ! A102  A(27,28,45)           120.4826         estimate D2E/DX2                !
 ! A103  A(14,29,30)           120.8017         estimate D2E/DX2                !
 ! A104  A(14,29,31)           119.9967         estimate D2E/DX2                !
 ! A105  A(30,29,31)           117.7954         estimate D2E/DX2                !
 ! A106  A(27,30,29)           117.6122         estimate D2E/DX2                !
 ! A107  A(27,30,47)           115.8019         estimate D2E/DX2                !
 ! A108  A(29,30,47)           122.0466         estimate D2E/DX2                !
 ! A109  A(29,31,34)           110.0987         estimate D2E/DX2                !
 ! A110  A(29,31,49)           113.9052         estimate D2E/DX2                !
 ! A111  A(29,31,73)           106.2008         estimate D2E/DX2                !
 ! A112  A(34,31,49)           100.5305         estimate D2E/DX2                !
 ! A113  A(34,31,73)           112.6252         estimate D2E/DX2                !
 ! A114  A(49,31,73)           113.5849         estimate D2E/DX2                !
 ! A115  A(16,32,33)           110.7898         estimate D2E/DX2                !
 ! A116  A(16,32,34)           122.9585         estimate D2E/DX2                !
 ! A117  A(33,32,34)           117.4923         estimate D2E/DX2                !
 ! A118  A(18,33,32)           107.6421         estimate D2E/DX2                !
 ! A119  A(18,33,36)           118.305          estimate D2E/DX2                !
 ! A120  A(32,33,36)           123.4632         estimate D2E/DX2                !
 ! A121  A(31,34,32)           121.8177         estimate D2E/DX2                !
 ! A122  A(31,34,51)           111.1026         estimate D2E/DX2                !
 ! A123  A(32,34,51)           119.7407         estimate D2E/DX2                !
 ! A124  A(19,35,36)           121.0632         estimate D2E/DX2                !
 ! A125  A(19,35,37)           120.9038         estimate D2E/DX2                !
 ! A126  A(36,35,37)           107.5989         estimate D2E/DX2                !
 ! A127  A(33,36,35)           121.2789         estimate D2E/DX2                !
 ! A128  A(33,36,52)           118.1823         estimate D2E/DX2                !
 ! A129  A(35,36,52)           108.9637         estimate D2E/DX2                !
 ! A130  A(35,37,39)           119.0034         estimate D2E/DX2                !
 ! A131  A(35,37,53)           107.3563         estimate D2E/DX2                !
 ! A132  A(39,37,53)           121.6921         estimate D2E/DX2                !
 ! A133  A(21,38,39)           121.9335         estimate D2E/DX2                !
 ! A134  A(21,38,42)           120.4469         estimate D2E/DX2                !
 ! A135  A(39,38,42)           107.1614         estimate D2E/DX2                !
 ! A136  A(37,39,38)           120.3662         estimate D2E/DX2                !
 ! A137  A(37,39,57)           118.9408         estimate D2E/DX2                !
 ! A138  A(38,39,57)           109.2723         estimate D2E/DX2                !
 ! A139  A(23,40,41)           111.7754         estimate D2E/DX2                !
 ! A140  A(23,40,42)           121.9528         estimate D2E/DX2                !
 ! A141  A(41,40,42)           118.7451         estimate D2E/DX2                !
 ! A142  A(24,41,40)           106.6599         estimate D2E/DX2                !
 ! A143  A(24,41,43)           120.2754         estimate D2E/DX2                !
 ! A144  A(40,41,43)           120.9589         estimate D2E/DX2                !
 ! A145  A(38,42,40)           120.5696         estimate D2E/DX2                !
 ! A146  A(38,42,58)           107.317          estimate D2E/DX2                !
 ! A147  A(40,42,58)           120.8503         estimate D2E/DX2                !
 ! A148  A(41,43,46)           120.1765         estimate D2E/DX2                !
 ! A149  A(41,43,59)           120.1688         estimate D2E/DX2                !
 ! A150  A(46,43,59)           107.3637         estimate D2E/DX2                !
 ! A151  A(26,44,45)           107.3199         estimate D2E/DX2                !
 ! A152  A(26,44,46)           119.955          estimate D2E/DX2                !
 ! A153  A(45,44,46)           119.3374         estimate D2E/DX2                !
 ! A154  A(28,45,44)           107.3092         estimate D2E/DX2                !
 ! A155  A(28,45,48)           118.8688         estimate D2E/DX2                !
 ! A156  A(44,45,48)           122.2602         estimate D2E/DX2                !
 ! A157  A(43,46,44)           119.3957         estimate D2E/DX2                !
 ! A158  A(43,46,61)           109.1663         estimate D2E/DX2                !
 ! A159  A(44,46,61)           119.2464         estimate D2E/DX2                !
 ! A160  A(30,47,48)           120.9772         estimate D2E/DX2                !
 ! A161  A(30,47,50)           119.8875         estimate D2E/DX2                !
 ! A162  A(48,47,50)           108.0167         estimate D2E/DX2                !
 ! A163  A(45,48,47)           121.2244         estimate D2E/DX2                !
 ! A164  A(45,48,62)           118.0426         estimate D2E/DX2                !
 ! A165  A(47,48,62)           108.9912         estimate D2E/DX2                !
 ! A166  A(31,49,50)           122.2444         estimate D2E/DX2                !
 ! A167  A(31,49,54)           111.8503         estimate D2E/DX2                !
 ! A168  A(50,49,54)           117.9542         estimate D2E/DX2                !
 ! A169  A(47,50,49)           119.5462         estimate D2E/DX2                !
 ! A170  A(47,50,63)           107.2165         estimate D2E/DX2                !
 ! A171  A(49,50,63)           121.3252         estimate D2E/DX2                !
 ! A172  A(34,51,52)           121.8593         estimate D2E/DX2                !
 ! A173  A(34,51,54)           108.4322         estimate D2E/DX2                !
 ! A174  A(52,51,54)           119.1205         estimate D2E/DX2                !
 ! A175  A(36,52,51)           118.1603         estimate D2E/DX2                !
 ! A176  A(36,52,53)           106.5345         estimate D2E/DX2                !
 ! A177  A(51,52,53)           121.3393         estimate D2E/DX2                !
 ! A178  A(37,53,52)           109.0773         estimate D2E/DX2                !
 ! A179  A(37,53,55)           119.0913         estimate D2E/DX2                !
 ! A180  A(52,53,55)           119.4498         estimate D2E/DX2                !
 ! A181  A(49,54,51)           107.7055         estimate D2E/DX2                !
 ! A182  A(49,54,56)           121.4674         estimate D2E/DX2                !
 ! A183  A(51,54,56)           119.6372         estimate D2E/DX2                !
 ! A184  A(53,55,56)           119.5829         estimate D2E/DX2                !
 ! A185  A(53,55,60)           119.5295         estimate D2E/DX2                !
 ! A186  A(56,55,60)           109.0467         estimate D2E/DX2                !
 ! A187  A(54,56,55)           120.6438         estimate D2E/DX2                !
 ! A188  A(54,56,64)           120.1316         estimate D2E/DX2                !
 ! A189  A(55,56,64)           107.2143         estimate D2E/DX2                !
 ! A190  A(39,57,58)           107.1702         estimate D2E/DX2                !
 ! A191  A(39,57,60)           119.4492         estimate D2E/DX2                !
 ! A192  A(58,57,60)           120.5046         estimate D2E/DX2                !
 ! A193  A(42,58,57)           108.6962         estimate D2E/DX2                !
 ! A194  A(42,58,59)           120.6445         estimate D2E/DX2                !
 ! A195  A(57,58,59)           119.1327         estimate D2E/DX2                !
 ! A196  A(43,59,58)           118.3828         estimate D2E/DX2                !
 ! A197  A(43,59,65)           108.5456         estimate D2E/DX2                !
 ! A198  A(58,59,65)           120.6119         estimate D2E/DX2                !
 ! A199  A(55,60,57)           121.0523         estimate D2E/DX2                !
 ! A200  A(55,60,66)           106.8749         estimate D2E/DX2                !
 ! A201  A(57,60,66)           120.2096         estimate D2E/DX2                !
 ! A202  A(46,61,62)           121.1468         estimate D2E/DX2                !
 ! A203  A(46,61,65)           106.5673         estimate D2E/DX2                !
 ! A204  A(62,61,65)           119.9748         estimate D2E/DX2                !
 ! A205  A(48,62,61)           119.7826         estimate D2E/DX2                !
 ! A206  A(48,62,63)           106.8313         estimate D2E/DX2                !
 ! A207  A(61,62,63)           120.777          estimate D2E/DX2                !
 ! A208  A(50,63,62)           108.5989         estimate D2E/DX2                !
 ! A209  A(50,63,64)           120.4869         estimate D2E/DX2                !
 ! A210  A(62,63,64)           119.0419         estimate D2E/DX2                !
 ! A211  A(56,64,63)           118.4858         estimate D2E/DX2                !
 ! A212  A(56,64,66)           108.7782         estimate D2E/DX2                !
 ! A213  A(63,64,66)           120.6285         estimate D2E/DX2                !
 ! A214  A(59,65,61)           108.2969         estimate D2E/DX2                !
 ! A215  A(59,65,66)           119.6922         estimate D2E/DX2                !
 ! A216  A(61,65,66)           119.5259         estimate D2E/DX2                !
 ! A217  A(60,66,64)           108.0197         estimate D2E/DX2                !
 ! A218  A(60,66,65)           119.7587         estimate D2E/DX2                !
 ! A219  A(64,66,65)           119.977          estimate D2E/DX2                !
 ! D1    D(4,1,2,3)             17.7676         estimate D2E/DX2                !
 ! D2    D(4,1,2,10)           -91.3445         estimate D2E/DX2                !
 ! D3    D(4,1,2,68)           148.3458         estimate D2E/DX2                !
 ! D4    D(7,1,2,3)            127.8332         estimate D2E/DX2                !
 ! D5    D(7,1,2,10)            18.7211         estimate D2E/DX2                !
 ! D6    D(7,1,2,68)          -101.5886         estimate D2E/DX2                !
 ! D7    D(67,1,2,3)           -98.9261         estimate D2E/DX2                !
 ! D8    D(67,1,2,10)          151.9618         estimate D2E/DX2                !
 ! D9    D(67,1,2,68)           31.6522         estimate D2E/DX2                !
 ! D10   D(2,1,4,5)            -17.2346         estimate D2E/DX2                !
 ! D11   D(2,1,4,6)            134.7977         estimate D2E/DX2                !
 ! D12   D(7,1,4,5)           -140.9558         estimate D2E/DX2                !
 ! D13   D(7,1,4,6)             11.0765         estimate D2E/DX2                !
 ! D14   D(67,1,4,5)            97.899          estimate D2E/DX2                !
 ! D15   D(67,1,4,6)          -110.0687         estimate D2E/DX2                !
 ! D16   D(2,1,7,8)           -116.4981         estimate D2E/DX2                !
 ! D17   D(2,1,7,9)             -4.676          estimate D2E/DX2                !
 ! D18   D(2,1,7,71)           121.8134         estimate D2E/DX2                !
 ! D19   D(4,1,7,8)             -8.414          estimate D2E/DX2                !
 ! D20   D(4,1,7,9)            103.4081         estimate D2E/DX2                !
 ! D21   D(4,1,7,71)          -130.1024         estimate D2E/DX2                !
 ! D22   D(67,1,7,8)           111.7333         estimate D2E/DX2                !
 ! D23   D(67,1,7,9)          -136.4446         estimate D2E/DX2                !
 ! D24   D(67,1,7,71)           -9.9552         estimate D2E/DX2                !
 ! D25   D(1,2,3,5)            -13.3521         estimate D2E/DX2                !
 ! D26   D(1,2,3,12)          -119.2856         estimate D2E/DX2                !
 ! D27   D(1,2,3,69)           112.8549         estimate D2E/DX2                !
 ! D28   D(10,2,3,5)           101.7623         estimate D2E/DX2                !
 ! D29   D(10,2,3,12)           -4.1712         estimate D2E/DX2                !
 ! D30   D(10,2,3,69)         -132.0307         estimate D2E/DX2                !
 ! D31   D(68,2,3,5)          -140.5394         estimate D2E/DX2                !
 ! D32   D(68,2,3,12)          113.5271         estimate D2E/DX2                !
 ! D33   D(68,2,3,69)          -14.3324         estimate D2E/DX2                !
 ! D34   D(1,2,10,11)          -34.5754         estimate D2E/DX2                !
 ! D35   D(1,2,10,13)          129.9717         estimate D2E/DX2                !
 ! D36   D(3,2,10,11)         -149.2433         estimate D2E/DX2                !
 ! D37   D(3,2,10,13)           15.3038         estimate D2E/DX2                !
 ! D38   D(68,2,10,11)          87.0865         estimate D2E/DX2                !
 ! D39   D(68,2,10,13)        -108.3664         estimate D2E/DX2                !
 ! D40   D(2,3,5,4)              2.7763         estimate D2E/DX2                !
 ! D41   D(2,3,5,15)          -144.2874         estimate D2E/DX2                !
 ! D42   D(12,3,5,4)           112.4969         estimate D2E/DX2                !
 ! D43   D(12,3,5,15)          -34.5668         estimate D2E/DX2                !
 ! D44   D(69,3,5,4)          -126.1005         estimate D2E/DX2                !
 ! D45   D(69,3,5,15)           86.8358         estimate D2E/DX2                !
 ! D46   D(2,3,12,13)           -7.7186         estimate D2E/DX2                !
 ! D47   D(2,3,12,14)          144.2232         estimate D2E/DX2                !
 ! D48   D(5,3,12,13)         -114.3208         estimate D2E/DX2                !
 ! D49   D(5,3,12,14)           37.621          estimate D2E/DX2                !
 ! D50   D(69,3,12,13)         123.3401         estimate D2E/DX2                !
 ! D51   D(69,3,12,14)         -84.7181         estimate D2E/DX2                !
 ! D52   D(1,4,5,3)              9.9053         estimate D2E/DX2                !
 ! D53   D(1,4,5,15)           159.1403         estimate D2E/DX2                !
 ! D54   D(6,4,5,3)           -139.2839         estimate D2E/DX2                !
 ! D55   D(6,4,5,15)             9.9511         estimate D2E/DX2                !
 ! D56   D(1,4,6,8)             -9.1997         estimate D2E/DX2                !
 ! D57   D(1,4,6,17)          -162.2001         estimate D2E/DX2                !
 ! D58   D(5,4,6,8)            140.6072         estimate D2E/DX2                !
 ! D59   D(5,4,6,17)           -12.3933         estimate D2E/DX2                !
 ! D60   D(3,5,15,16)           -1.7129         estimate D2E/DX2                !
 ! D61   D(3,5,15,18)          146.0829         estimate D2E/DX2                !
 ! D62   D(4,5,15,16)         -146.5811         estimate D2E/DX2                !
 ! D63   D(4,5,15,18)            1.2147         estimate D2E/DX2                !
 ! D64   D(4,6,8,7)              2.856          estimate D2E/DX2                !
 ! D65   D(4,6,8,20)          -152.7078         estimate D2E/DX2                !
 ! D66   D(17,6,8,7)           154.766          estimate D2E/DX2                !
 ! D67   D(17,6,8,20)           -0.7977         estimate D2E/DX2                !
 ! D68   D(4,6,17,18)            3.1552         estimate D2E/DX2                !
 ! D69   D(4,6,17,19)          156.7482         estimate D2E/DX2                !
 ! D70   D(8,6,17,18)         -145.8034         estimate D2E/DX2                !
 ! D71   D(8,6,17,19)            7.7897         estimate D2E/DX2                !
 ! D72   D(1,7,8,6)              3.8215         estimate D2E/DX2                !
 ! D73   D(1,7,8,20)           156.897          estimate D2E/DX2                !
 ! D74   D(9,7,8,6)           -118.3987         estimate D2E/DX2                !
 ! D75   D(9,7,8,20)            34.6769         estimate D2E/DX2                !
 ! D76   D(71,7,8,6)           127.0835         estimate D2E/DX2                !
 ! D77   D(71,7,8,20)          -79.8409         estimate D2E/DX2                !
 ! D78   D(1,7,9,11)             0.4577         estimate D2E/DX2                !
 ! D79   D(1,7,9,22)          -158.3739         estimate D2E/DX2                !
 ! D80   D(8,7,9,11)           114.0411         estimate D2E/DX2                !
 ! D81   D(8,7,9,22)           -44.7905         estimate D2E/DX2                !
 ! D82   D(71,7,9,11)         -128.8956         estimate D2E/DX2                !
 ! D83   D(71,7,9,22)           72.2728         estimate D2E/DX2                !
 ! D84   D(6,8,20,21)           -6.578          estimate D2E/DX2                !
 ! D85   D(6,8,20,23)          157.3068         estimate D2E/DX2                !
 ! D86   D(7,8,20,21)         -157.1073         estimate D2E/DX2                !
 ! D87   D(7,8,20,23)            6.7774         estimate D2E/DX2                !
 ! D88   D(7,9,11,10)          -12.575          estimate D2E/DX2                !
 ! D89   D(7,9,11,25)         -162.0572         estimate D2E/DX2                !
 ! D90   D(22,9,11,10)         146.419          estimate D2E/DX2                !
 ! D91   D(22,9,11,25)          -3.0632         estimate D2E/DX2                !
 ! D92   D(7,9,22,23)           17.4123         estimate D2E/DX2                !
 ! D93   D(7,9,22,24)          168.627          estimate D2E/DX2                !
 ! D94   D(11,9,22,23)        -142.0118         estimate D2E/DX2                !
 ! D95   D(11,9,22,24)           9.2029         estimate D2E/DX2                !
 ! D96   D(2,10,11,9)           32.7709         estimate D2E/DX2                !
 ! D97   D(2,10,11,25)        -176.7466         estimate D2E/DX2                !
 ! D98   D(13,10,11,9)        -131.1155         estimate D2E/DX2                !
 ! D99   D(13,10,11,25)         19.3669         estimate D2E/DX2                !
 ! D100  D(2,10,13,12)         -21.3089         estimate D2E/DX2                !
 ! D101  D(2,10,13,27)        -173.5742         estimate D2E/DX2                !
 ! D102  D(11,10,13,12)        144.6629         estimate D2E/DX2                !
 ! D103  D(11,10,13,27)         -7.6024         estimate D2E/DX2                !
 ! D104  D(9,11,25,26)          -7.1358         estimate D2E/DX2                !
 ! D105  D(9,11,25,28)         137.5969         estimate D2E/DX2                !
 ! D106  D(10,11,25,26)       -157.3113         estimate D2E/DX2                !
 ! D107  D(10,11,25,28)        -12.5786         estimate D2E/DX2                !
 ! D108  D(3,12,13,10)          17.1471         estimate D2E/DX2                !
 ! D109  D(3,12,13,27)         170.9038         estimate D2E/DX2                !
 ! D110  D(14,12,13,10)       -137.3365         estimate D2E/DX2                !
 ! D111  D(14,12,13,27)         16.4202         estimate D2E/DX2                !
 ! D112  D(3,12,14,16)          -2.7693         estimate D2E/DX2                !
 ! D113  D(3,12,14,29)        -167.5174         estimate D2E/DX2                !
 ! D114  D(13,12,14,16)        146.6067         estimate D2E/DX2                !
 ! D115  D(13,12,14,29)        -18.1413         estimate D2E/DX2                !
 ! D116  D(10,13,27,28)        -12.0898         estimate D2E/DX2                !
 ! D117  D(10,13,27,30)        145.1374         estimate D2E/DX2                !
 ! D118  D(12,13,27,28)       -160.9379         estimate D2E/DX2                !
 ! D119  D(12,13,27,30)         -3.7108         estimate D2E/DX2                !
 ! D120  D(12,14,16,15)        -34.5573         estimate D2E/DX2                !
 ! D121  D(12,14,16,32)       -141.7192         estimate D2E/DX2                !
 ! D122  D(12,14,16,70)         90.9632         estimate D2E/DX2                !
 ! D123  D(29,14,16,15)        129.9599         estimate D2E/DX2                !
 ! D124  D(29,14,16,32)         22.7979         estimate D2E/DX2                !
 ! D125  D(29,14,16,70)       -104.5196         estimate D2E/DX2                !
 ! D126  D(12,14,29,30)          7.5171         estimate D2E/DX2                !
 ! D127  D(12,14,29,31)        173.6863         estimate D2E/DX2                !
 ! D128  D(16,14,29,30)       -156.8245         estimate D2E/DX2                !
 ! D129  D(16,14,29,31)          9.3447         estimate D2E/DX2                !
 ! D130  D(5,15,16,14)          38.1234         estimate D2E/DX2                !
 ! D131  D(5,15,16,32)         152.1178         estimate D2E/DX2                !
 ! D132  D(5,15,16,70)         -84.0085         estimate D2E/DX2                !
 ! D133  D(18,15,16,14)       -112.1961         estimate D2E/DX2                !
 ! D134  D(18,15,16,32)          1.7983         estimate D2E/DX2                !
 ! D135  D(18,15,16,70)        125.672          estimate D2E/DX2                !
 ! D136  D(5,15,18,17)         -10.1651         estimate D2E/DX2                !
 ! D137  D(5,15,18,33)        -159.5145         estimate D2E/DX2                !
 ! D138  D(16,15,18,17)        141.2887         estimate D2E/DX2                !
 ! D139  D(16,15,18,33)         -8.0607         estimate D2E/DX2                !
 ! D140  D(14,16,32,33)        114.5031         estimate D2E/DX2                !
 ! D141  D(14,16,32,34)        -32.0764         estimate D2E/DX2                !
 ! D142  D(15,16,32,33)          5.0557         estimate D2E/DX2                !
 ! D143  D(15,16,32,34)       -141.5239         estimate D2E/DX2                !
 ! D144  D(70,16,32,33)       -120.0831         estimate D2E/DX2                !
 ! D145  D(70,16,32,34)         93.3374         estimate D2E/DX2                !
 ! D146  D(6,17,18,15)           7.7527         estimate D2E/DX2                !
 ! D147  D(6,17,18,33)         153.6761         estimate D2E/DX2                !
 ! D148  D(19,17,18,15)       -144.7603         estimate D2E/DX2                !
 ! D149  D(19,17,18,33)          1.1632         estimate D2E/DX2                !
 ! D150  D(6,17,19,21)          -7.2121         estimate D2E/DX2                !
 ! D151  D(6,17,19,35)        -162.7042         estimate D2E/DX2                !
 ! D152  D(18,17,19,21)        144.7351         estimate D2E/DX2                !
 ! D153  D(18,17,19,35)        -10.757          estimate D2E/DX2                !
 ! D154  D(15,18,33,32)         11.1183         estimate D2E/DX2                !
 ! D155  D(15,18,33,36)        157.0599         estimate D2E/DX2                !
 ! D156  D(17,18,33,32)       -138.7715         estimate D2E/DX2                !
 ! D157  D(17,18,33,36)          7.1701         estimate D2E/DX2                !
 ! D158  D(17,19,21,20)          0.2933         estimate D2E/DX2                !
 ! D159  D(17,19,21,38)       -156.598          estimate D2E/DX2                !
 ! D160  D(35,19,21,20)        154.7365         estimate D2E/DX2                !
 ! D161  D(35,19,21,38)         -2.1548         estimate D2E/DX2                !
 ! D162  D(17,19,35,36)         12.3929         estimate D2E/DX2                !
 ! D163  D(17,19,35,37)        152.9204         estimate D2E/DX2                !
 ! D164  D(21,19,35,36)       -142.8574         estimate D2E/DX2                !
 ! D165  D(21,19,35,37)         -2.3299         estimate D2E/DX2                !
 ! D166  D(8,20,21,19)           6.8135         estimate D2E/DX2                !
 ! D167  D(8,20,21,38)         163.3786         estimate D2E/DX2                !
 ! D168  D(23,20,21,19)       -156.3747         estimate D2E/DX2                !
 ! D169  D(23,20,21,38)          0.1905         estimate D2E/DX2                !
 ! D170  D(8,20,23,22)         -36.9379         estimate D2E/DX2                !
 ! D171  D(8,20,23,40)        -147.4536         estimate D2E/DX2                !
 ! D172  D(8,20,23,72)          86.5968         estimate D2E/DX2                !
 ! D173  D(21,20,23,22)        126.7576         estimate D2E/DX2                !
 ! D174  D(21,20,23,40)         16.2419         estimate D2E/DX2                !
 ! D175  D(21,20,23,72)       -109.7077         estimate D2E/DX2                !
 ! D176  D(19,21,38,39)          5.252          estimate D2E/DX2                !
 ! D177  D(19,21,38,42)        145.574          estimate D2E/DX2                !
 ! D178  D(20,21,38,39)       -151.8152         estimate D2E/DX2                !
 ! D179  D(20,21,38,42)        -11.4932         estimate D2E/DX2                !
 ! D180  D(9,22,23,20)          26.5943         estimate D2E/DX2                !
 ! D181  D(9,22,23,40)         144.7586         estimate D2E/DX2                !
 ! D182  D(9,22,23,72)         -93.9104         estimate D2E/DX2                !
 ! D183  D(24,22,23,20)       -127.9074         estimate D2E/DX2                !
 ! D184  D(24,22,23,40)         -9.7431         estimate D2E/DX2                !
 ! D185  D(24,22,23,72)        111.5879         estimate D2E/DX2                !
 ! D186  D(9,22,24,26)          -5.4433         estimate D2E/DX2                !
 ! D187  D(9,22,24,41)        -151.3115         estimate D2E/DX2                !
 ! D188  D(23,22,24,26)        149.9982         estimate D2E/DX2                !
 ! D189  D(23,22,24,41)          4.1299         estimate D2E/DX2                !
 ! D190  D(20,23,40,41)        125.7615         estimate D2E/DX2                !
 ! D191  D(20,23,40,42)        -23.4994         estimate D2E/DX2                !
 ! D192  D(22,23,40,41)         12.54           estimate D2E/DX2                !
 ! D193  D(22,23,40,42)       -136.7208         estimate D2E/DX2                !
 ! D194  D(72,23,40,41)       -109.954          estimate D2E/DX2                !
 ! D195  D(72,23,40,42)        100.7851         estimate D2E/DX2                !
 ! D196  D(22,24,26,25)         -4.7024         estimate D2E/DX2                !
 ! D197  D(22,24,26,44)       -141.4271         estimate D2E/DX2                !
 ! D198  D(41,24,26,25)        138.2148         estimate D2E/DX2                !
 ! D199  D(41,24,26,44)          1.4902         estimate D2E/DX2                !
 ! D200  D(22,24,41,40)          3.7725         estimate D2E/DX2                !
 ! D201  D(22,24,41,43)        146.566          estimate D2E/DX2                !
 ! D202  D(26,24,41,40)       -142.7356         estimate D2E/DX2                !
 ! D203  D(26,24,41,43)          0.0579         estimate D2E/DX2                !
 ! D204  D(11,25,26,24)         10.894          estimate D2E/DX2                !
 ! D205  D(11,25,26,44)        152.5487         estimate D2E/DX2                !
 ! D206  D(28,25,26,24)       -138.5214         estimate D2E/DX2                !
 ! D207  D(28,25,26,44)          3.1333         estimate D2E/DX2                !
 ! D208  D(11,25,28,27)         -7.5055         estimate D2E/DX2                !
 ! D209  D(11,25,28,45)       -152.5678         estimate D2E/DX2                !
 ! D210  D(26,25,28,27)        141.6779         estimate D2E/DX2                !
 ! D211  D(26,25,28,45)         -3.3843         estimate D2E/DX2                !
 ! D212  D(24,26,44,45)        138.2572         estimate D2E/DX2                !
 ! D213  D(24,26,44,46)         -2.2828         estimate D2E/DX2                !
 ! D214  D(25,26,44,45)         -1.7457         estimate D2E/DX2                !
 ! D215  D(25,26,44,46)       -142.2857         estimate D2E/DX2                !
 ! D216  D(13,27,28,25)         18.8955         estimate D2E/DX2                !
 ! D217  D(13,27,28,45)        160.092          estimate D2E/DX2                !
 ! D218  D(30,27,28,25)       -137.7837         estimate D2E/DX2                !
 ! D219  D(30,27,28,45)          3.4128         estimate D2E/DX2                !
 ! D220  D(13,27,30,29)         -6.8969         estimate D2E/DX2                !
 ! D221  D(13,27,30,47)       -163.532          estimate D2E/DX2                !
 ! D222  D(28,27,30,29)        148.3758         estimate D2E/DX2                !
 ! D223  D(28,27,30,47)         -8.2594         estimate D2E/DX2                !
 ! D224  D(25,28,45,44)          2.305          estimate D2E/DX2                !
 ! D225  D(25,28,45,48)        146.424          estimate D2E/DX2                !
 ! D226  D(27,28,45,44)       -142.4151         estimate D2E/DX2                !
 ! D227  D(27,28,45,48)          1.7039         estimate D2E/DX2                !
 ! D228  D(14,29,30,27)          4.9845         estimate D2E/DX2                !
 ! D229  D(14,29,30,47)        160.0718         estimate D2E/DX2                !
 ! D230  D(31,29,30,27)       -161.4805         estimate D2E/DX2                !
 ! D231  D(31,29,30,47)         -6.3933         estimate D2E/DX2                !
 ! D232  D(14,29,31,34)        -33.4921         estimate D2E/DX2                !
 ! D233  D(14,29,31,49)       -145.5205         estimate D2E/DX2                !
 ! D234  D(14,29,31,73)         88.7097         estimate D2E/DX2                !
 ! D235  D(30,29,31,34)        133.0861         estimate D2E/DX2                !
 ! D236  D(30,29,31,49)         21.0577         estimate D2E/DX2                !
 ! D237  D(30,29,31,73)       -104.7121         estimate D2E/DX2                !
 ! D238  D(27,30,47,48)          8.3922         estimate D2E/DX2                !
 ! D239  D(27,30,47,50)        147.9541         estimate D2E/DX2                !
 ! D240  D(29,30,47,48)       -147.1141         estimate D2E/DX2                !
 ! D241  D(29,30,47,50)         -7.5522         estimate D2E/DX2                !
 ! D242  D(29,31,34,32)         25.6271         estimate D2E/DX2                !
 ! D243  D(29,31,34,51)       -124.2802         estimate D2E/DX2                !
 ! D244  D(49,31,34,32)        146.0857         estimate D2E/DX2                !
 ! D245  D(49,31,34,51)         -3.8216         estimate D2E/DX2                !
 ! D246  D(73,31,34,32)        -92.6916         estimate D2E/DX2                !
 ! D247  D(73,31,34,51)        117.4011         estimate D2E/DX2                !
 ! D248  D(29,31,49,50)        -24.4722         estimate D2E/DX2                !
 ! D249  D(29,31,49,54)        123.7492         estimate D2E/DX2                !
 ! D250  D(34,31,49,50)       -142.1641         estimate D2E/DX2                !
 ! D251  D(34,31,49,54)          6.0573         estimate D2E/DX2                !
 ! D252  D(73,31,49,50)         97.2978         estimate D2E/DX2                !
 ! D253  D(73,31,49,54)       -114.4808         estimate D2E/DX2                !
 ! D254  D(16,32,33,18)        -10.1156         estimate D2E/DX2                !
 ! D255  D(16,32,33,36)       -153.8841         estimate D2E/DX2                !
 ! D256  D(34,32,33,18)        138.487          estimate D2E/DX2                !
 ! D257  D(34,32,33,36)         -5.2815         estimate D2E/DX2                !
 ! D258  D(16,32,34,31)          7.4081         estimate D2E/DX2                !
 ! D259  D(16,32,34,51)        154.8104         estimate D2E/DX2                !
 ! D260  D(33,32,34,31)       -137.1085         estimate D2E/DX2                !
 ! D261  D(33,32,34,51)         10.2938         estimate D2E/DX2                !
 ! D262  D(18,33,36,35)         -5.5368         estimate D2E/DX2                !
 ! D263  D(18,33,36,52)       -144.7263         estimate D2E/DX2                !
 ! D264  D(32,33,36,35)        134.6907         estimate D2E/DX2                !
 ! D265  D(32,33,36,52)         -4.4988         estimate D2E/DX2                !
 ! D266  D(31,34,51,52)        144.6372         estimate D2E/DX2                !
 ! D267  D(31,34,51,54)          0.4365         estimate D2E/DX2                !
 ! D268  D(32,34,51,52)         -5.977          estimate D2E/DX2                !
 ! D269  D(32,34,51,54)       -150.1776         estimate D2E/DX2                !
 ! D270  D(19,35,36,33)         -4.5612         estimate D2E/DX2                !
 ! D271  D(19,35,36,52)        137.9114         estimate D2E/DX2                !
 ! D272  D(37,35,36,33)       -149.6547         estimate D2E/DX2                !
 ! D273  D(37,35,36,52)         -7.1821         estimate D2E/DX2                !
 ! D274  D(19,35,37,39)          3.8168         estimate D2E/DX2                !
 ! D275  D(19,35,37,53)       -139.5632         estimate D2E/DX2                !
 ! D276  D(36,35,37,39)        148.977          estimate D2E/DX2                !
 ! D277  D(36,35,37,53)          5.597          estimate D2E/DX2                !
 ! D278  D(33,36,52,51)          8.8699         estimate D2E/DX2                !
 ! D279  D(33,36,52,53)        149.6113         estimate D2E/DX2                !
 ! D280  D(35,36,52,51)       -134.929          estimate D2E/DX2                !
 ! D281  D(35,36,52,53)          5.8124         estimate D2E/DX2                !
 ! D282  D(35,37,39,38)         -0.7805         estimate D2E/DX2                !
 ! D283  D(35,37,39,57)       -140.3422         estimate D2E/DX2                !
 ! D284  D(53,37,39,38)        137.2202         estimate D2E/DX2                !
 ! D285  D(53,37,39,57)         -2.3416         estimate D2E/DX2                !
 ! D286  D(35,37,53,52)         -2.0704         estimate D2E/DX2                !
 ! D287  D(35,37,53,55)        139.9063         estimate D2E/DX2                !
 ! D288  D(39,37,53,52)       -144.2546         estimate D2E/DX2                !
 ! D289  D(39,37,53,55)         -2.2779         estimate D2E/DX2                !
 ! D290  D(21,38,39,37)         -3.8713         estimate D2E/DX2                !
 ! D291  D(21,38,39,57)        139.1638         estimate D2E/DX2                !
 ! D292  D(42,38,39,37)       -148.6964         estimate D2E/DX2                !
 ! D293  D(42,38,39,57)         -5.6613         estimate D2E/DX2                !
 ! D294  D(21,38,42,40)          4.7606         estimate D2E/DX2                !
 ! D295  D(21,38,42,58)       -139.1425         estimate D2E/DX2                !
 ! D296  D(39,38,42,40)        150.2127         estimate D2E/DX2                !
 ! D297  D(39,38,42,58)          6.3096         estimate D2E/DX2                !
 ! D298  D(37,39,57,58)        146.4773         estimate D2E/DX2                !
 ! D299  D(37,39,57,60)          4.7964         estimate D2E/DX2                !
 ! D300  D(38,39,57,58)          2.8381         estimate D2E/DX2                !
 ! D301  D(38,39,57,60)       -138.8428         estimate D2E/DX2                !
 ! D302  D(23,40,41,24)        -10.599          estimate D2E/DX2                !
 ! D303  D(23,40,41,43)       -153.0837         estimate D2E/DX2                !
 ! D304  D(42,40,41,24)        139.7549         estimate D2E/DX2                !
 ! D305  D(42,40,41,43)         -2.7298         estimate D2E/DX2                !
 ! D306  D(23,40,42,38)         13.9696         estimate D2E/DX2                !
 ! D307  D(23,40,42,58)        153.039          estimate D2E/DX2                !
 ! D308  D(41,40,42,38)       -133.2533         estimate D2E/DX2                !
 ! D309  D(41,40,42,58)          5.8162         estimate D2E/DX2                !
 ! D310  D(24,41,43,46)         -0.8514         estimate D2E/DX2                !
 ! D311  D(24,41,43,59)       -138.3537         estimate D2E/DX2                !
 ! D312  D(40,41,43,46)        136.6519         estimate D2E/DX2                !
 ! D313  D(40,41,43,59)         -0.8505         estimate D2E/DX2                !
 ! D314  D(38,42,58,57)         -4.6301         estimate D2E/DX2                !
 ! D315  D(38,42,58,59)        138.2971         estimate D2E/DX2                !
 ! D316  D(40,42,58,57)       -148.4114         estimate D2E/DX2                !
 ! D317  D(40,42,58,59)         -5.4842         estimate D2E/DX2                !
 ! D318  D(41,43,46,44)          0.0676         estimate D2E/DX2                !
 ! D319  D(41,43,46,61)       -142.07           estimate D2E/DX2                !
 ! D320  D(59,43,46,44)        142.3376         estimate D2E/DX2                !
 ! D321  D(59,43,46,61)          0.2            estimate D2E/DX2                !
 ! D322  D(41,43,59,58)          1.2583         estimate D2E/DX2                !
 ! D323  D(41,43,59,65)        143.6088         estimate D2E/DX2                !
 ! D324  D(46,43,59,58)       -141.0152         estimate D2E/DX2                !
 ! D325  D(46,43,59,65)          1.3353         estimate D2E/DX2                !
 ! D326  D(26,44,45,28)         -0.3405         estimate D2E/DX2                !
 ! D327  D(26,44,45,48)       -142.9703         estimate D2E/DX2                !
 ! D328  D(46,44,45,28)        140.4874         estimate D2E/DX2                !
 ! D329  D(46,44,45,48)         -2.1425         estimate D2E/DX2                !
 ! D330  D(26,44,46,43)          1.4582         estimate D2E/DX2                !
 ! D331  D(26,44,46,61)        139.8184         estimate D2E/DX2                !
 ! D332  D(45,44,46,43)       -134.4363         estimate D2E/DX2                !
 ! D333  D(45,44,46,61)          3.924          estimate D2E/DX2                !
 ! D334  D(28,45,48,47)         -1.4847         estimate D2E/DX2                !
 ! D335  D(28,45,48,62)       -140.4289         estimate D2E/DX2                !
 ! D336  D(44,45,48,47)        137.0851         estimate D2E/DX2                !
 ! D337  D(44,45,48,62)         -1.859          estimate D2E/DX2                !
 ! D338  D(43,46,61,62)        140.4348         estimate D2E/DX2                !
 ! D339  D(43,46,61,65)         -1.6432         estimate D2E/DX2                !
 ! D340  D(44,46,61,62)         -1.768          estimate D2E/DX2                !
 ! D341  D(44,46,61,65)       -143.846          estimate D2E/DX2                !
 ! D342  D(30,47,48,45)         -3.7917         estimate D2E/DX2                !
 ! D343  D(30,47,48,62)        138.3976         estimate D2E/DX2                !
 ! D344  D(50,47,48,45)       -147.5382         estimate D2E/DX2                !
 ! D345  D(50,47,48,62)         -5.3489         estimate D2E/DX2                !
 ! D346  D(30,47,50,49)          5.0758         estimate D2E/DX2                !
 ! D347  D(30,47,50,63)       -138.1775         estimate D2E/DX2                !
 ! D348  D(48,47,50,49)        149.2878         estimate D2E/DX2                !
 ! D349  D(48,47,50,63)          6.0345         estimate D2E/DX2                !
 ! D350  D(45,48,62,61)          4.0137         estimate D2E/DX2                !
 ! D351  D(45,48,62,63)        146.114          estimate D2E/DX2                !
 ! D352  D(47,48,62,61)       -139.5461         estimate D2E/DX2                !
 ! D353  D(47,48,62,63)          2.5542         estimate D2E/DX2                !
 ! D354  D(31,49,50,47)         11.7102         estimate D2E/DX2                !
 ! D355  D(31,49,50,63)        149.721          estimate D2E/DX2                !
 ! D356  D(54,49,50,47)       -134.6913         estimate D2E/DX2                !
 ! D357  D(54,49,50,63)          3.3195         estimate D2E/DX2                !
 ! D358  D(31,49,54,51)         -6.193          estimate D2E/DX2                !
 ! D359  D(31,49,54,56)       -149.705          estimate D2E/DX2                !
 ! D360  D(50,49,54,51)        143.525          estimate D2E/DX2                !
 ! D361  D(50,49,54,56)          0.0131         estimate D2E/DX2                !
 ! D362  D(47,50,63,62)         -4.4719         estimate D2E/DX2                !
 ! D363  D(47,50,63,64)        137.9472         estimate D2E/DX2                !
 ! D364  D(49,50,63,62)       -146.9334         estimate D2E/DX2                !
 ! D365  D(49,50,63,64)         -4.5143         estimate D2E/DX2                !
 ! D366  D(34,51,52,36)         -3.957          estimate D2E/DX2                !
 ! D367  D(34,51,52,53)       -138.6991         estimate D2E/DX2                !
 ! D368  D(54,51,52,36)        136.6056         estimate D2E/DX2                !
 ! D369  D(54,51,52,53)          1.8635         estimate D2E/DX2                !
 ! D370  D(34,51,54,49)          3.4668         estimate D2E/DX2                !
 ! D371  D(34,51,54,56)        147.7664         estimate D2E/DX2                !
 ! D372  D(52,51,54,49)       -141.8729         estimate D2E/DX2                !
 ! D373  D(52,51,54,56)          2.4267         estimate D2E/DX2                !
 ! D374  D(36,52,53,37)         -2.3191         estimate D2E/DX2                !
 ! D375  D(36,52,53,55)       -144.1382         estimate D2E/DX2                !
 ! D376  D(51,52,53,37)        136.8962         estimate D2E/DX2                !
 ! D377  D(51,52,53,55)         -4.9229         estimate D2E/DX2                !
 ! D378  D(37,53,55,56)       -134.4608         estimate D2E/DX2                !
 ! D379  D(37,53,55,60)          4.3767         estimate D2E/DX2                !
 ! D380  D(52,53,55,56)          3.5851         estimate D2E/DX2                !
 ! D381  D(52,53,55,60)        142.4226         estimate D2E/DX2                !
 ! D382  D(49,54,56,55)        135.6045         estimate D2E/DX2                !
 ! D383  D(49,54,56,64)         -2.262          estimate D2E/DX2                !
 ! D384  D(51,54,56,55)         -3.7215         estimate D2E/DX2                !
 ! D385  D(51,54,56,64)       -141.588          estimate D2E/DX2                !
 ! D386  D(53,55,56,54)          0.6643         estimate D2E/DX2                !
 ! D387  D(53,55,56,64)        143.2611         estimate D2E/DX2                !
 ! D388  D(60,55,56,54)       -142.0444         estimate D2E/DX2                !
 ! D389  D(60,55,56,64)          0.5525         estimate D2E/DX2                !
 ! D390  D(53,55,60,57)         -1.9209         estimate D2E/DX2                !
 ! D391  D(53,55,60,66)       -144.7089         estimate D2E/DX2                !
 ! D392  D(56,55,60,57)        140.8108         estimate D2E/DX2                !
 ! D393  D(56,55,60,66)         -1.9772         estimate D2E/DX2                !
 ! D394  D(54,56,64,63)          1.1049         estimate D2E/DX2                !
 ! D395  D(54,56,64,66)        143.9239         estimate D2E/DX2                !
 ! D396  D(55,56,64,63)       -141.7206         estimate D2E/DX2                !
 ! D397  D(55,56,64,66)          1.0983         estimate D2E/DX2                !
 ! D398  D(39,57,58,42)          1.1946         estimate D2E/DX2                !
 ! D399  D(39,57,58,59)       -142.3815         estimate D2E/DX2                !
 ! D400  D(60,57,58,42)        142.3902         estimate D2E/DX2                !
 ! D401  D(60,57,58,59)         -1.1858         estimate D2E/DX2                !
 ! D402  D(39,57,60,55)         -2.7269         estimate D2E/DX2                !
 ! D403  D(39,57,60,66)        135.2312         estimate D2E/DX2                !
 ! D404  D(58,57,60,55)       -139.2885         estimate D2E/DX2                !
 ! D405  D(58,57,60,66)         -1.3304         estimate D2E/DX2                !
 ! D406  D(42,58,59,43)          1.7919         estimate D2E/DX2                !
 ! D407  D(42,58,59,65)       -135.918          estimate D2E/DX2                !
 ! D408  D(57,58,59,43)        140.9694         estimate D2E/DX2                !
 ! D409  D(57,58,59,65)          3.2595         estimate D2E/DX2                !
 ! D410  D(43,59,65,61)         -2.3799         estimate D2E/DX2                !
 ! D411  D(43,59,65,66)       -144.1985         estimate D2E/DX2                !
 ! D412  D(58,59,65,61)        138.9801         estimate D2E/DX2                !
 ! D413  D(58,59,65,66)         -2.8384         estimate D2E/DX2                !
 ! D414  D(55,60,66,64)          2.6258         estimate D2E/DX2                !
 ! D415  D(55,60,66,65)        144.9265         estimate D2E/DX2                !
 ! D416  D(57,60,66,64)       -140.5385         estimate D2E/DX2                !
 ! D417  D(57,60,66,65)          1.7622         estimate D2E/DX2                !
 ! D418  D(46,61,62,48)         -2.276          estimate D2E/DX2                !
 ! D419  D(46,61,62,63)       -139.0918         estimate D2E/DX2                !
 ! D420  D(65,61,62,48)        134.878          estimate D2E/DX2                !
 ! D421  D(65,61,62,63)         -1.9378         estimate D2E/DX2                !
 ! D422  D(46,61,65,59)          2.4474         estimate D2E/DX2                !
 ! D423  D(46,61,65,66)        144.3401         estimate D2E/DX2                !
 ! D424  D(62,61,65,59)       -140.1647         estimate D2E/DX2                !
 ! D425  D(62,61,65,66)          1.7281         estimate D2E/DX2                !
 ! D426  D(48,62,63,50)          1.2419         estimate D2E/DX2                !
 ! D427  D(48,62,63,64)       -141.806          estimate D2E/DX2                !
 ! D428  D(61,62,63,50)        142.8865         estimate D2E/DX2                !
 ! D429  D(61,62,63,64)         -0.1615         estimate D2E/DX2                !
 ! D430  D(50,63,64,56)          2.1657         estimate D2E/DX2                !
 ! D431  D(50,63,64,66)       -136.157          estimate D2E/DX2                !
 ! D432  D(62,63,64,56)        140.7773         estimate D2E/DX2                !
 ! D433  D(62,63,64,66)          2.4545         estimate D2E/DX2                !
 ! D434  D(56,64,66,60)         -2.341          estimate D2E/DX2                !
 ! D435  D(56,64,66,65)       -144.5446         estimate D2E/DX2                !
 ! D436  D(63,64,66,60)        139.5404         estimate D2E/DX2                !
 ! D437  D(63,64,66,65)         -2.6632         estimate D2E/DX2                !
[...]
    11 C(13)  Bbb     0.0294     3.952     1.410     1.318  0.5114  0.4251  0.7468
              Bcc     0.0366     4.909     1.752     1.638 -0.4870  0.8594 -0.1557
 
              Baa    -0.1591   -21.354    -7.620    -7.123 -0.3299 -0.6349  0.6986
    12 C(13)  Bbb    -0.1538   -20.642    -7.366    -6.886  0.8820  0.0566  0.4678
              Bcc     0.3130    41.997    14.985    14.009 -0.3366  0.7705  0.5413
 
              Baa    -0.0890   -11.946    -4.263    -3.985 -0.5302  0.3854  0.7553
    13 C(13)  Bbb     0.0402     5.390     1.923     1.798  0.7793 -0.1296  0.6131
              Bcc     0.0489     6.556     2.339     2.187  0.3341  0.9136 -0.2316
 
              Baa    -0.1240   -16.636    -5.936    -5.549 -0.2498  0.8953  0.3688
    14 C(13)  Bbb     0.0536     7.198     2.568     2.401  0.0733 -0.3623  0.9292
              Bcc     0.0703     9.438     3.368     3.148  0.9655  0.2592  0.0249
 
              Baa    -0.0074    -0.992    -0.354    -0.331  0.4556  0.8129  0.3629
    15 C(13)  Bbb    -0.0045    -0.609    -0.217    -0.203  0.7727 -0.1587 -0.6146
              Bcc     0.0119     1.601     0.571     0.534  0.4420 -0.5604  0.7004
 
              Baa    -0.0018    -0.245    -0.087    -0.082 -0.0135  0.7871  0.6167
    16 C(13)  Bbb    -0.0007    -0.097    -0.035    -0.032  0.9982  0.0471 -0.0383
              Bcc     0.0025     0.342     0.122     0.114  0.0592 -0.6150  0.7863
 
              Baa    -0.0036    -0.481    -0.171    -0.160  0.0930  0.9872 -0.1292
    17 C(13)  Bbb    -0.0026    -0.352    -0.126    -0.118  0.9219 -0.1345 -0.3634
              Bcc     0.0062     0.833     0.297     0.278  0.3761  0.0853  0.9226
 
              Baa    -0.0058    -0.784    -0.280    -0.262  0.4879 -0.5267  0.6961
    18 C(13)  Bbb     0.0025     0.337     0.120     0.112  0.7416  0.6707 -0.0122
              Bcc     0.0033     0.447     0.160     0.149 -0.4604  0.5222  0.7178
 
              Baa    -0.0085    -1.145    -0.409    -0.382  0.2702  0.3073  0.9124
    19 C(13)  Bbb     0.0038     0.512     0.183     0.171  0.8166 -0.5752 -0.0482
              Bcc     0.0047     0.633     0.226     0.211  0.5100  0.7581 -0.4063
 
              Baa    -0.0090    -1.202    -0.429    -0.401  0.3723  0.6449  0.6674
    20 C(13)  Bbb     0.0030     0.408     0.146     0.136 -0.1056  0.7439 -0.6599
              Bcc     0.0059     0.794     0.283     0.265  0.9221 -0.1752 -0.3451
 
              Baa    -0.0195    -2.619    -0.935    -0.874 -0.3502  0.8496 -0.3945
    21 C(13)  Bbb    -0.0194    -2.599    -0.927    -0.867  0.8925  0.1748 -0.4158
              Bcc     0.0389     5.218     1.862     1.740  0.2843  0.4977  0.8194
 
              Baa    -0.0509    -6.831    -2.438    -2.279  0.5313  0.8132 -0.2376
    22 C(13)  Bbb     0.0239     3.212     1.146     1.072 -0.0043  0.2831  0.9591
              Bcc     0.0270     3.619     1.291     1.207  0.8472 -0.5085  0.1539
 
              Baa    -0.0008    -0.111    -0.039    -0.037  0.0698 -0.4124  0.9083
    23 C(13)  Bbb    -0.0003    -0.043    -0.015    -0.014  0.9779 -0.1515 -0.1439
              Bcc     0.0011     0.154     0.055     0.051  0.1970  0.8983  0.3927
 
              Baa    -0.0269    -3.616    -1.290    -1.206  0.5638  0.1941  0.8028
    24 C(13)  Bbb    -0.0227    -3.049    -1.088    -1.017  0.7542 -0.5170 -0.4047
              Bcc     0.0497     6.664     2.378     2.223  0.3365  0.8337 -0.4379
 
              Baa    -0.0750   -10.067    -3.592    -3.358  0.4385  0.7422  0.5068
    25 C(13)  Bbb    -0.0691    -9.274    -3.309    -3.094  0.6746 -0.6444  0.3600
              Bcc     0.1441    19.341     6.901     6.451 -0.5938 -0.1840  0.7833
 
              Baa    -0.0277    -3.722    -1.328    -1.241 -0.3860 -0.4866  0.7837
    26 C(13)  Bbb     0.0094     1.264     0.451     0.422  0.7150  0.3790  0.5875
              Bcc     0.0183     2.457     0.877     0.820 -0.5829  0.7871  0.2017
 
              Baa    -0.0239    -3.201    -1.142    -1.068 -0.0309  0.8560 -0.5161
    27 C(13)  Bbb    -0.0207    -2.782    -0.993    -0.928  0.9685  0.1533  0.1963
              Bcc     0.0446     5.983     2.135     1.996 -0.2471  0.4937  0.8338
 
              Baa    -0.0868   -11.644    -4.155    -3.884 -0.3625  0.1658  0.9171
    28 C(13)  Bbb     0.0407     5.463     1.949     1.822 -0.2306  0.9375 -0.2606
              Bcc     0.0461     6.181     2.205     2.062  0.9030  0.3059  0.3017
 
              Baa    -0.1681   -22.554    -8.048    -7.523  0.4521 -0.3888  0.8028
    29 C(13)  Bbb    -0.1601   -21.485    -7.666    -7.167  0.8808  0.3367 -0.3330
              Bcc     0.3282    44.039    15.714    14.690 -0.1408  0.8576  0.4947
 
              Baa    -0.1010   -13.558    -4.838    -4.522 -0.1082  0.7331  0.6715
    30 C(13)  Bbb     0.0443     5.949     2.123     1.984  0.7627  0.4944 -0.4170
              Bcc     0.0567     7.609     2.715     2.538  0.6377 -0.4670  0.6126
 
              Baa    -0.0069    -0.927    -0.331    -0.309  0.2374  0.7039  0.6694
    31 C(13)  Bbb     0.0021     0.282     0.101     0.094  0.7615 -0.5627  0.3217
              Bcc     0.0048     0.645     0.230     0.215 -0.6031 -0.4334  0.6696
 
              Baa    -0.0028    -0.381    -0.136    -0.127  0.7897 -0.3884 -0.4749
    32 C(13)  Bbb    -0.0009    -0.115    -0.041    -0.038  0.5957  0.6706  0.4421
              Bcc     0.0037     0.495     0.177     0.165  0.1467 -0.6320  0.7609
 
              Baa    -0.0030    -0.405    -0.145    -0.135  0.9791  0.1699 -0.1116
    33 C(13)  Bbb    -0.0023    -0.302    -0.108    -0.101 -0.0821  0.8329  0.5474
              Bcc     0.0053     0.707     0.252     0.236  0.1859 -0.5268  0.8294
 
              Baa    -0.0066    -0.891    -0.318    -0.297  0.8197  0.4177  0.3919
    34 C(13)  Bbb    -0.0049    -0.662    -0.236    -0.221 -0.5607  0.7248  0.4002
              Bcc     0.0116     1.553     0.554     0.518 -0.1169 -0.5478  0.8284
 
              Baa    -0.0115    -1.547    -0.552    -0.516  0.8632 -0.5046  0.0152
    35 C(13)  Bbb    -0.0111    -1.493    -0.533    -0.498  0.5024  0.8557 -0.1241
              Bcc     0.0227     3.040     1.085     1.014  0.0496  0.1147  0.9922
 
              Baa    -0.0032    -0.426    -0.152    -0.142  0.0486 -0.3775  0.9247
    36 C(13)  Bbb     0.0009     0.123     0.044     0.041  0.9858  0.1669  0.0163
              Bcc     0.0023     0.303     0.108     0.101 -0.1605  0.9108  0.3803
 
              Baa    -0.0132    -1.765    -0.630    -0.589 -0.3099  0.1291  0.9420
    37 C(13)  Bbb     0.0062     0.825     0.294     0.275 -0.6335  0.7107 -0.3059
              Bcc     0.0070     0.940     0.335     0.314  0.7089  0.6916  0.1384
 
              Baa    -0.0188    -2.522    -0.900    -0.841  0.0566  0.6373  0.7685
    38 C(13)  Bbb     0.0086     1.147     0.409     0.383  0.4672  0.6634 -0.5845
              Bcc     0.0102     1.374     0.490     0.458  0.8823 -0.3922  0.2602
 
              Baa    -0.0065    -0.878    -0.313    -0.293  0.7932  0.6087 -0.0152
    39 C(13)  Bbb    -0.0064    -0.855    -0.305    -0.285  0.4775 -0.6064  0.6359
              Bcc     0.0129     1.733     0.618     0.578 -0.3779  0.5116  0.7717
 
              Baa    -0.0044    -0.585    -0.209    -0.195 -0.0785  0.8942  0.4407
    40 C(13)  Bbb     0.0007     0.089     0.032     0.030  0.9465 -0.0719  0.3145
              Bcc     0.0037     0.496     0.177     0.166 -0.3130 -0.4418  0.8408
 
              Baa    -0.0064    -0.854    -0.305    -0.285  0.4642  0.1263  0.8767
    41 C(13)  Bbb    -0.0050    -0.671    -0.239    -0.224  0.8836  0.0020 -0.4682
              Bcc     0.0114     1.525     0.544     0.509 -0.0609  0.9920 -0.1107
 
              Baa    -0.0128    -1.712    -0.611    -0.571 -0.4608 -0.5206  0.7188
    42 C(13)  Bbb    -0.0121    -1.629    -0.581    -0.544  0.8574 -0.0520  0.5119
              Bcc     0.0249     3.341     1.192     1.115 -0.2291  0.8522  0.4704
 
              Baa    -0.0050    -0.675    -0.241    -0.225 -0.5267 -0.2194  0.8212
    43 C(13)  Bbb    -0.0036    -0.478    -0.171    -0.160  0.7760  0.2703  0.5699
              Bcc     0.0086     1.154     0.412     0.385 -0.3470  0.9375  0.0279
 
              Baa    -0.0161    -2.164    -0.772    -0.722  0.0586 -0.1198  0.9911
    44 C(13)  Bbb     0.0037     0.494     0.176     0.165  0.9405  0.3396 -0.0145
              Bcc     0.0124     1.670     0.596     0.557 -0.3348  0.9329  0.1326
 
              Baa    -0.0745    -9.996    -3.567    -3.334  0.9995 -0.0240 -0.0192
    45 C(13)  Bbb    -0.0695    -9.327    -3.328    -3.111  0.0228  0.9979 -0.0603
              Bcc     0.1440    19.323     6.895     6.445  0.0206  0.0598  0.9980
 
              Baa    -0.0326    -4.380    -1.563    -1.461  0.9178  0.3087 -0.2495
    46 C(13)  Bbb    -0.0301    -4.042    -1.442    -1.348 -0.0884  0.7716  0.6299
              Bcc     0.0628     8.422     3.005     2.809  0.3870 -0.5561  0.7355
 
              Baa    -0.1522   -20.429    -7.289    -6.814  0.9756 -0.2149  0.0443
    47 C(13)  Bbb    -0.1479   -19.842    -7.080    -6.619  0.1951  0.7569 -0.6237
              Bcc     0.3001    40.271    14.370    13.433  0.1005  0.6171  0.7804
 
              Baa    -0.0755   -10.133    -3.616    -3.380  0.2532  0.3173  0.9139
    48 C(13)  Bbb     0.0308     4.136     1.476     1.380  0.9658 -0.1373 -0.2200
              Bcc     0.0447     5.996     2.140     2.000  0.0556  0.9383 -0.3412
 
              Baa    -0.0504    -6.765    -2.414    -2.256  0.2656 -0.4176  0.8690
    49 C(13)  Bbb    -0.0445    -5.971    -2.131    -1.992  0.8425 -0.3377 -0.4198
              Bcc     0.0949    12.736     4.544     4.248  0.4687  0.8436  0.2621
 
              Baa    -0.0470    -6.311    -2.252    -2.105  0.3730  0.6639  0.6482
    50 C(13)  Bbb     0.0182     2.446     0.873     0.816 -0.5725  0.7144 -0.4023
              Bcc     0.0288     3.865     1.379     1.289  0.7302  0.2210 -0.6465
 
              Baa    -0.0137    -1.841    -0.657    -0.614  0.8212 -0.2284  0.5230
    51 C(13)  Bbb    -0.0116    -1.554    -0.555    -0.518 -0.3048  0.5991  0.7403
              Bcc     0.0253     3.396     1.212     1.133  0.4825  0.7674 -0.4224
 
              Baa    -0.0082    -1.099    -0.392    -0.367 -0.4906 -0.4722  0.7324
    52 C(13)  Bbb     0.0025     0.333     0.119     0.111  0.8431 -0.0450  0.5358
              Bcc     0.0057     0.766     0.273     0.256 -0.2201  0.8804  0.4202
 
              Baa    -0.0209    -2.810    -1.003    -0.937  0.7643 -0.2992  0.5713
    53 C(13)  Bbb    -0.0201    -2.699    -0.963    -0.900  0.1813  0.9498  0.2549
              Bcc     0.0411     5.509     1.966     1.837 -0.6189 -0.0912  0.7802
 
              Baa    -0.0215    -2.885    -1.029    -0.962  0.6495  0.7600 -0.0245
    54 C(13)  Bbb     0.0079     1.058     0.377     0.353  0.5203 -0.4207  0.7432
              Bcc     0.0136     1.827     0.652     0.609 -0.5545  0.4954  0.6686
 
              Baa    -0.0172    -2.304    -0.822    -0.768  0.8425  0.1753 -0.5094
    55 C(13)  Bbb     0.0078     1.047     0.373     0.349 -0.1984  0.9801  0.0092
              Bcc     0.0094     1.257     0.449     0.419  0.5008  0.0933  0.8605
 
              Baa    -0.0184    -2.475    -0.883    -0.826 -0.3875  0.7340 -0.5577
    56 C(13)  Bbb    -0.0173    -2.327    -0.830    -0.776 -0.0800  0.5759  0.8136
              Bcc     0.0358     4.802     1.714     1.602  0.9184  0.3599 -0.1645
 
              Baa    -0.0115    -1.546    -0.552    -0.516  0.6634 -0.5329 -0.5252
    57 C(13)  Bbb     0.0055     0.744     0.266     0.248  0.6893  0.1621  0.7062
              Bcc     0.0060     0.802     0.286     0.267  0.2912  0.8305 -0.4748
 
              Baa    -0.0036    -0.488    -0.174    -0.163 -0.2931 -0.5582  0.7762
    58 C(13)  Bbb    -0.0029    -0.390    -0.139    -0.130  0.8682  0.1846  0.4606
              Bcc     0.0065     0.878     0.313     0.293 -0.4004  0.8089  0.4306
 
              Baa    -0.0054    -0.719    -0.257    -0.240  0.8544  0.5192  0.0202
    59 C(13)  Bbb    -0.0040    -0.536    -0.191    -0.179 -0.1114  0.1451  0.9831
              Bcc     0.0094     1.255     0.448     0.419 -0.5075  0.8423 -0.1819
 
              Baa    -0.0045    -0.608    -0.217    -0.203  0.4772  0.4892  0.7301
    60 C(13)  Bbb    -0.0042    -0.560    -0.200    -0.187 -0.0029  0.8316 -0.5553
              Bcc     0.0087     1.168     0.417     0.390  0.8788 -0.2629 -0.3983
 
              Baa    -0.0228    -3.053    -1.089    -1.018  0.5884 -0.3329  0.7369
    61 C(13)  Bbb     0.0105     1.409     0.503     0.470 -0.5760  0.4671  0.6709
              Bcc     0.0123     1.644     0.587     0.549  0.5675  0.8192 -0.0831
 
              Baa    -0.0174    -2.337    -0.834    -0.779  0.6824 -0.4017 -0.6107
    62 C(13)  Bbb    -0.0157    -2.110    -0.753    -0.704  0.3648  0.9111 -0.1917
              Bcc     0.0331     4.447     1.587     1.483  0.6334 -0.0920  0.7683
 
              Baa    -0.0133    -1.779    -0.635    -0.593 -0.0502 -0.7004  0.7120
    63 C(13)  Bbb    -0.0127    -1.706    -0.609    -0.569 -0.4875  0.6393  0.5946
              Bcc     0.0260     3.485     1.243     1.162  0.8717  0.3173  0.3736
 
              Baa    -0.0142    -1.906    -0.680    -0.636  0.9211  0.3198  0.2220
    64 C(13)  Bbb     0.0067     0.897     0.320     0.299 -0.2990  0.9464 -0.1224
              Bcc     0.0075     1.009     0.360     0.337 -0.2492  0.0464  0.9673
 
              Baa    -0.0026    -0.345    -0.123    -0.115 -0.1565 -0.3573  0.9208
    65 C(13)  Bbb    -0.0014    -0.182    -0.065    -0.061  0.2225  0.8956  0.3853
              Bcc     0.0039     0.528     0.188     0.176  0.9623 -0.2652  0.0607
 
              Baa    -0.0090    -1.206    -0.430    -0.402  0.9782 -0.1934  0.0761
    66 C(13)  Bbb     0.0044     0.594     0.212     0.198  0.1457  0.8991  0.4127
              Bcc     0.0046     0.612     0.218     0.204 -0.1483 -0.3926  0.9077
 
              Baa    -0.0270    -1.414    -0.505    -0.472 -0.5361  0.8428  0.0469
    67 Cl(35) Bbb    -0.0205    -1.071    -0.382    -0.357 -0.2581 -0.2165  0.9415
              Bcc     0.0475     2.485     0.887     0.829  0.8037  0.4927  0.3336
 
              Baa    -0.1058    -5.535    -1.975    -1.846  0.0094 -0.2644  0.9644
    68 Cl(35) Bbb    -0.0953    -4.988    -1.780    -1.664  0.2295  0.9392  0.2553
              Bcc     0.2011    10.524     3.755     3.510  0.9733 -0.2189 -0.0695
 
              Baa    -0.0525    -2.747    -0.980    -0.916  0.0267  0.8050  0.5927
    69 Cl(35) Bbb    -0.0436    -2.281    -0.814    -0.761 -0.2144 -0.5745  0.7899
              Bcc     0.0961     5.028     1.794     1.677  0.9764 -0.1482  0.1573
 
              Baa    -0.0558    -2.921    -1.042    -0.974 -0.3694  0.7513 -0.5469
    70 Cl(35) Bbb     0.0252     1.320     0.471     0.440  0.9152  0.3961 -0.0741
              Bcc     0.0306     1.600     0.571     0.534 -0.1609  0.5279  0.8339
 
              Baa    -0.0162    -0.850    -0.303    -0.283 -0.3039  0.9108 -0.2794
    71 Cl(35) Bbb    -0.0103    -0.539    -0.192    -0.180 -0.3751  0.1552  0.9139
              Bcc     0.0265     1.388     0.495     0.463  0.8758  0.3825  0.2945
 
              Baa    -0.0303    -1.587    -0.566    -0.529  0.2763  0.8210  0.4997
    72 Cl(35) Bbb     0.0147     0.772     0.275     0.257 -0.3175 -0.4128  0.8537
              Bcc     0.0156     0.815     0.291     0.272  0.9071 -0.3945  0.1466
 
              Baa    -0.1631    -8.535    -3.046    -2.847 -0.1843  0.0670  0.9806
    73 Cl(35) Bbb    -0.1503    -7.867    -2.807    -2.624  0.9504 -0.2422  0.1952
              Bcc     0.3134    16.402     5.853     5.471  0.2505  0.9679 -0.0191
 

 ---------------------------------------------------------------------------------

 No NMR shielding tensors so no spin-rotation constants.
 Leave Link  601 at Sat Jul 16 08:31:46 2022, MaxMem=  1342177280 cpu:             104.1 elap:               2.4
 (Enter /home/mkliu/g16/l9999.exe)
 1\1\GINC-NODE01\FOpt\UB3LYP\6-311G(d,p)\C66Cl7(2)\MKLIU\16-Jul-2022\0\
 \#P opt b3lyp/6-311G(d, p) empiricaldispersion=GD3\\force\\0,2\C,-1.34
 73512444,1.8841894261,-3.9893151647\C,0.1872792952,2.2495578225,-3.989
 9669257\C,0.9762127212,0.8762327854,-4.3268103643\C,-1.2988191695,0.40
 39910839,-3.8730039261\C,-0.0787535601,-0.169724481,-4.1682288721\C,-2
 .1677757213,-0.1264410716,-2.9261521981\C,-2.2327423528,2.298681585,-2
 .7012583699\C,-2.7242605842,0.9358355392,-2.1509868631\C,-1.4809932381
 ,2.9664116214,-1.5512623151\C,0.697855344,2.571988865,-2.6276397943\C,
 -0.0524844499,3.1818037435,-1.6028670952\C,1.9183623649,0.6845854358,-
 3.1409116172\C,1.8480511358,1.8225601327,-2.306865083\C,2.2700972845,-
 0.5471521113,-2.5753436393\C,0.2073679052,-1.4104362396,-3.6378144737\
 C,1.6157118077,-1.8034826206,-3.1860419305\C,-1.9385602714,-1.41400689
 9,-2.3917734534\C,-0.7585940212,-2.0761163496,-2.85942404\C,-2.4677129
 382,-1.7170804518,-1.0811982662\C,-3.1227607821,0.7154890223,-0.862068
 2441\C,-3.0780437736,-0.6379110335,-0.3042184651\C,-2.0918010343,2.929
 4466658,-0.3164018422\C,-3.2185340922,1.941670165,0.0420479072\C,-1.38
 80251803,3.26584444,0.8824303081\C,0.651410842,3.4285450899,-0.3995204
 541\C,-0.0297302219,3.5714551144,0.8482225988\C,2.4228902607,1.8316163
 892,-1.0094266118\C,1.9250810662,2.8092013998,-0.1276426377\C,2.877147
 7724,-0.5893343484,-1.2904552157\C,3.025829662,0.6148654433,-0.5088624
 201\C,3.1451253852,-1.9455387194,-0.625475077\C,1.3127069013,-2.823425
 5981,-2.109069052\C,-0.1002703499,-3.0482741028,-2.032533324\C,2.05883
 65916,-2.949787997,-0.9775623588\C,-1.9298605693,-2.8415642405,-0.4024
 977635\C,-0.7053149366,-3.4777718786,-0.8705257266\C,-1.9276243403,-2.
 9175420197,1.0179407328\C,-3.1466179714,-0.7957541619,1.099759455\C,-2
 .53636545,-1.9024299438,1.7565766403\C,-2.9070534305,1.6296474609,1.48
 94742734\C,-1.9204951393,2.5224376014,2.0014459769\C,-3.0134560279,0.3
 62748389,1.9946855269\C,-1.0904497166,2.1406904618,3.0620139451\C,0.84
 35638959,3.1221526096,1.9127200465\C,2.0604918165,2.6564822068,1.28818
 42335\C,0.3251217079,2.4402686108,3.0083872755\C,3.2605329553,0.544206
 5036,0.8968644632\C,2.7304281791,1.5392919144,1.7828286379\C,3.0322758
 238,-1.8980549824,0.8902976444\C,3.2000394577,-0.7332900694,1.59288516
 08\C,1.4688679505,-3.4810404809,0.2169872418\C,0.1037730914,-3.7918309
 223,0.27010034\C,-0.6629720027,-3.482922877,1.4556422064\C,2.103655241
 ,-2.8783230324,1.3628754013\C,-0.0332478175,-2.9709751163,2.5847805389
 \C,1.382648302,-2.6729412473,2.5464917837\C,-1.9205774857,-1.441422546
 ,2.9924485027\C,-2.2130121955,-0.035589514,3.1291132935\C,-1.250323585
 7,0.8339785973,3.650167401\C,-0.6835886567,-1.9456573743,3.3821238572\
 C,1.0430146683,1.3079317311,3.5651817946\C,2.2344756403,0.880867306,2.
 9811374177\C,2.5224531615,-0.528144513,2.8549502553\C,1.6078702189,-1.
 4744629895,3.3184580463\C,0.0623752294,0.3237504156,3.9932231919\C,0.3
 402688056,-1.035321522,3.8666254602\Cl,-2.1268370663,2.2741015375,-5.5
 80506914\Cl,0.6221975177,3.6635982677,-5.0312750871\Cl,1.8399571017,0.
 8234854422,-5.9095537494\Cl,2.6440729983,-2.5197724478,-4.5250013305\C
 l,-3.6194378775,3.3963276379,-3.1419995534\Cl,-4.9210937003,2.67554866
 36,-0.022487709\Cl,4.8383627115,-2.5309959072,-1.1364045311\\Version=E
 S64L-G16RevA.03\State=2-A\HF=-5736.9974297\S2=0.800042\S2-1=0.\S2A=0.7
 5218\RMSD=4.370e-09\RMSF=4.886e-05\Dipole=-0.090812,-0.4054559,1.55598
 08\Quadrupole=-5.8207021,4.6439877,1.1767144,10.2900064,3.2362244,1.91
 5506\PG=C01 [X(C66Cl7)]\\@


 SCIENCE AND PEACE WILL TRIUMPH OVER IGNORANCE AND WAR

                          -- PASTEUR
 Job cpu time:       4 days 12 hours 33 minutes  9.6 seconds.
 Elapsed time:       0 days  2 hours 15 minutes 54.7 seconds.
 File lengths (MBytes):  RWF=   2038 Int=      0 D2E=      0 Chk=    183 Scr=      1
 Normal termination of Gaussian 16 at Sat Jul 16 08:31:47 2022.
