 Entering Gaussian System, Link 0=g16
 Input=dr1gmkopjq1a8_addon_7.gjf
 Output=dr1gmkopjq1a8_addon_7.log
 Initial command:
 /home/mkliu/g16/l1.exe "/data/scratch/Gau-23203.inp" -scrdir="/data/scratch/"
 Entering Link 1 = /home/mkliu/g16/l1.exe PID=     23204.
  
 Copyright (c) 1988,1990,1992,1993,1995,1998,2003,2009,2016,
            Gaussian, Inc.  All Rights Reserved.
  
 This is part of the Gaussian(R) 16 program.  It is based on
 the Gaussian(R) 09 system (copyright 2009, Gaussian, Inc.),
 the Gaussian(R) 03 system (copyright 2003, Gaussian, Inc.),
 the Gaussian(R) 98 system (copyright 1998, Gaussian, Inc.),
 the Gaussian(R) 94 system (copyright 1995, Gaussian, Inc.),
 the Gaussian 92(TM) system (copyright 1992, Gaussian, Inc.),
 the Gaussian 90(TM) system (copyright 1990, Gaussian, Inc.),
 the Gaussian 88(TM) system (copyright 1988, Gaussian, Inc.),
 the Gaussian 86(TM) system (copyright 1986, Carnegie Mellon
 University), and the Gaussian 82(TM) system (copyright 1983,
 Carnegie Mellon University). Gaussian is a federally registered
 trademark of Gaussian, Inc.
  
 This software contains proprietary and confidential information,
 including trade secrets, belonging to Gaussian, Inc.
  
 This software is provided under written license and may be
 used, copied, transmitted, or stored only in accord with that
 written license.
  
 The following legend is applicable only to US Government
 contracts under FAR:
  
                    RESTRICTED RIGHTS LEGEND
  
 Use, reproduction and disclosure by the US Government is
 subject to restrictions as set forth in subparagraphs (a)
 and (c) of the Commercial Computer Software - Restricted
 Rights clause in FAR 52.227-19.
  
 Gaussian, Inc.
 340 Quinnipiac St., Bldg. 40, Wallingford CT 06492
  
  
 ---------------------------------------------------------------
 Warning -- This program may not be used in any manner that
 competes with the business of Gaussian, Inc. or will provide
 assistance to any competitor of Gaussian, Inc.  The licensee
 of this program is prohibited from giving any competitor of
 Gaussian, Inc. access to this program.  By using this program,
 the user acknowledges that Gaussian, Inc. is engaged in the
 business of creating and licensing software in the field of
 computational chemistry and represents and warrants to the
 licensee that it is not a competitor of Gaussian, Inc. and that
 it will not use this program in any manner prohibited above.
 ---------------------------------------------------------------
  

 Cite this work as:
 Gaussian 16, Revision A.03,
 M. J. Frisch, G. W. Trucks, H. B. Schlegel, G. E. Scuseria, 
 M. A. Robb, J. R. Cheeseman, G. Scalmani, V. Barone, 
 G. A. Petersson, H. Nakatsuji, X. Li, M. Caricato, A. V. Marenich, 
 J. Bloino, B. G. Janesko, R. Gomperts, B. Mennucci, H. P. Hratchian, 
 J. V. Ortiz, A. F. Izmaylov, J. L. Sonnenberg, D. Williams-Young, 
 F. Ding, F. Lipparini, F. Egidi, J. Goings, B. Peng, A. Petrone, 
 T. Henderson, D. Ranasinghe, V. G. Zakrzewski, J. Gao, N. Rega, 
 G. Zheng, W. Liang, M. Hada, M. Ehara, K. Toyota, R. Fukuda, 
 J. Hasegawa, M. Ishida, T. Nakajima, Y. Honda, O. Kitao, H. Nakai, 
 T. Vreven, K. Throssell, J. A. Montgomery, Jr., J. E. Peralta, 
 F. Ogliaro, M. J. Bearpark, J. J. Heyd, E. N. Brothers, K. N. Kudin, 
 V. N. Staroverov, T. A. Keith, R. Kobayashi, J. Normand, 
 K. Raghavachari, A. P. Rendell, J. C. Burant, S. S. Iyengar, 
 J. Tomasi, M. Cossi, J. M. Millam, M. Klene, C. Adamo, R. Cammi, 
 J. W. Ochterski, R. L. Martin, K. Morokuma, O. Farkas, 
 J. B. Foresman, and D. J. Fox, Gaussian, Inc., Wallingford CT, 2016.
 
 ******************************************
 Gaussian 16:  ES64L-G16RevA.03 25-Dec-2016
                15-Jul-2022 
 ******************************************
 %mem=10GB
 %chk=dr1gmkopjq1a8_addon_7.chk
 %nprocshared=48
 Will use up to   48 processors via shared memory.
 -------------------------------------------------
 #P opt b3lyp/6-311G(d, p) empiricaldispersion=GD3
 -------------------------------------------------
 1/18=20,19=15,26=3,38=1/1,3;
 2/9=110,12=2,17=6,18=5,40=1/2;
 3/5=4,6=6,7=101,11=2,25=1,30=1,71=1,74=-5,124=31/1,2,3;
 4//1;
 5/5=2,38=5/2;
 6/7=2,8=2,9=2,10=2,28=1/1;
 7//1,2,3,16;
 1/18=20,19=15,26=3/3(2);
 2/9=110/2;
 99//99;
 2/9=110/2;
 3/5=4,6=6,7=101,11=2,25=1,30=1,71=1,74=-5,124=31/1,2,3;
 4/5=5,16=3,69=1/1;
 5/5=2,38=5/2;
 7//1,2,3,16;
 1/18=20,19=15,26=3/3(-5);
 2/9=110/2;
 6/7=2,8=2,9=2,10=2,19=2,28=1/1;
 99/9=1/99;
 Leave Link    1 at Fri Jul 15 01:43:36 2022, MaxMem=  1342177280 cpu:               2.2 elap:               0.1
 (Enter /home/mkliu/g16/l101.exe)
 -----
 force
 -----
 Symbolic Z-matrix:
 Charge =  0 Multiplicity = 2
 C                    -1.32387   1.88924  -3.96945 
 C                     0.20334   2.21631  -3.96194 
 C                     1.00624   0.91303  -4.34606 
 C                    -1.26354   0.4177   -3.86459 
 C                    -0.03062  -0.11917  -4.09067 
 C                    -2.11625  -0.11225  -2.88768 
 C                    -2.1986    2.26915  -2.73566 
 C                    -2.67441   0.93539  -2.14743 
 C                    -1.49194   2.87444  -1.55463 
 C                     0.67939   2.42935  -2.58656 
 C                    -0.07697   3.06281  -1.57483 
 C                     2.19154   0.75198  -3.30776 
 C                     1.84273   1.7842   -2.29459 
 C                     2.32058  -0.58564  -2.60599 
 C                     0.22303  -1.35073  -3.54353 
 C                     1.51978  -1.64758  -2.95295 
 C                    -1.91835  -1.3859   -2.33813 
 C                    -0.76809  -2.0464   -2.81346 
 C                    -2.45458  -1.66862  -1.04147 
 C                    -3.09782   0.71366  -0.84092 
 C                    -3.04874  -0.59642  -0.31581 
 C                    -2.104     2.83554  -0.32733 
 C                    -3.25586   1.92254   0.04916 
 C                    -1.39474   3.19593   0.86709 
 C                     0.62478   3.3013   -0.40838 
 C                    -0.04677   3.47426   0.82948 
 C                     2.44388   1.79259  -1.0166 
 C                     1.8969    2.7143   -0.139 
 C                     2.97466  -0.62097  -1.30094 
 C                     3.09873   0.60105  -0.53113 
 C                     2.91619  -1.82084  -0.57452 
 C                     1.30544  -2.76386  -2.07778 
 C                    -0.10609  -3.01501  -2.01077 
 C                     2.05238  -2.89887  -0.94112 
 C                    -1.90568  -2.81314  -0.37405 
 C                    -0.70951  -3.42813  -0.83725 
 C                    -1.90719  -2.88835   1.0615 
 C                    -3.3738   -0.84393   1.14389 
 C                    -2.52985  -1.90713   1.78687 
 C                    -2.92957   1.60659   1.47915 
 C                    -1.92552   2.4841    1.98582 
 C                    -3.01929   0.35181   1.98522 
 C                    -1.07728   2.1048    3.01493 
 C                     0.83248   3.06775   1.8837 
 C                     2.0443    2.59628   1.2657 
 C                     0.32954   2.40401   2.9775 
 C                     3.26217   0.52275   0.86172 
 C                     2.73715   1.51713   1.75861 
 C                     3.02023  -1.87749   0.85568 
 C                     3.21634  -0.72103   1.56762 
 C                     1.47864  -3.48702   0.24531 
 C                     0.12237  -3.75684   0.29746 
 C                    -0.63872  -3.43706   1.46678 
 C                     2.13314  -2.89112   1.3724 
 C                     0.01014  -2.93289   2.57725 
 C                     1.4225   -2.65086   2.53457 
 C                    -1.88281  -1.43374   2.95828 
 C                    -2.17424  -0.03743   3.07216 
 C                    -1.21645   0.81117   3.5911 
 C                    -0.6357   -1.91895   3.34631 
 C                     1.07164   1.29737   3.52714 
 C                     2.26465   0.88143   2.95553 
 C                     2.56039  -0.51485   2.8353 
 C                     1.65117  -1.45046   3.28758 
 C                     0.09625   0.32615   3.9349 
 C                     0.37862  -1.02129   3.816 
 Cl                   -2.02727   2.38847  -5.53355 
 Cl                    0.5968    3.64647  -4.9501 
 Cl                    1.54081   0.88386  -6.03495 
 Cl                    3.78451   1.14582  -4.06949 
 Cl                   -3.59988   3.3035   -3.15611 
 Cl                   -4.90548   2.60712  -0.14705 
 Cl                   -5.16105  -1.20372   1.19793 
 
 ITRead=  0  0  0  0  0  0  0  0  0  0  0  0  0  0  0  0  0  0  0  0
 ITRead=  0  0  0  0  0  0  0  0  0  0  0  0  0  0  0  0  0  0  0  0
 ITRead=  0  0  0  0  0  0  0  0  0  0  0  0  0  0  0  0  0  0  0  0
 ITRead=  0  0  0  0  0  0  0  0  0  0  0  0  0
 MicOpt= -1 -1 -1 -1 -1 -1 -1 -1 -1 -1 -1 -1 -1 -1 -1 -1 -1 -1 -1 -1
 MicOpt= -1 -1 -1 -1 -1 -1 -1 -1 -1 -1 -1 -1 -1 -1 -1 -1 -1 -1 -1 -1
 MicOpt= -1 -1 -1 -1 -1 -1 -1 -1 -1 -1 -1 -1 -1 -1 -1 -1 -1 -1 -1 -1
 MicOpt= -1 -1 -1 -1 -1 -1 -1 -1 -1 -1 -1 -1 -1
 NAtoms=     73 NQM=       73 NQMF=       0 NMMI=      0 NMMIF=      0
                NMic=       0 NMicF=      0.
                    Isotopes and Nuclear Properties:
 (Nuclear quadrupole moments (NQMom) in fm**2, nuclear magnetic moments (NMagM)
  in nuclear magnetons)

  Atom         1           2           3           4           5           6           7           8           9          10
 IAtWgt=          12          12          12          12          12          12          12          12          12          12
 AtmWgt=  12.0000000  12.0000000  12.0000000  12.0000000  12.0000000  12.0000000  12.0000000  12.0000000  12.0000000  12.0000000
 NucSpn=           0           0           0           0           0           0           0           0           0           0
 AtZEff=  -0.0000000  -0.0000000  -0.0000000  -0.0000000  -0.0000000  -0.0000000  -0.0000000  -0.0000000  -0.0000000  -0.0000000
 NQMom=    0.0000000   0.0000000   0.0000000   0.0000000   0.0000000   0.0000000   0.0000000   0.0000000   0.0000000   0.0000000
 NMagM=    0.0000000   0.0000000   0.0000000   0.0000000   0.0000000   0.0000000   0.0000000   0.0000000   0.0000000   0.0000000
 AtZNuc=   6.0000000   6.0000000   6.0000000   6.0000000   6.0000000   6.0000000   6.0000000   6.0000000   6.0000000   6.0000000

  Atom        11          12          13          14          15          16          17          18          19          20
 IAtWgt=          12          12          12          12          12          12          12          12          12          12
 AtmWgt=  12.0000000  12.0000000  12.0000000  12.0000000  12.0000000  12.0000000  12.0000000  12.0000000  12.0000000  12.0000000
 NucSpn=           0           0           0           0           0           0           0           0           0           0
 AtZEff=  -0.0000000  -0.0000000  -0.0000000  -0.0000000  -0.0000000  -0.0000000  -0.0000000  -0.0000000  -0.0000000  -0.0000000
 NQMom=    0.0000000   0.0000000   0.0000000   0.0000000   0.0000000   0.0000000   0.0000000   0.0000000   0.0000000   0.0000000
 NMagM=    0.0000000   0.0000000   0.0000000   0.0000000   0.0000000   0.0000000   0.0000000   0.0000000   0.0000000   0.0000000
 AtZNuc=   6.0000000   6.0000000   6.0000000   6.0000000   6.0000000   6.0000000   6.0000000   6.0000000   6.0000000   6.0000000

  Atom        21          22          23          24          25          26          27          28          29          30
 IAtWgt=          12          12          12          12          12          12          12          12          12          12
 AtmWgt=  12.0000000  12.0000000  12.0000000  12.0000000  12.0000000  12.0000000  12.0000000  12.0000000  12.0000000  12.0000000
 NucSpn=           0           0           0           0           0           0           0           0           0           0
 AtZEff=  -0.0000000  -0.0000000  -0.0000000  -0.0000000  -0.0000000  -0.0000000  -0.0000000  -0.0000000  -0.0000000  -0.0000000
 NQMom=    0.0000000   0.0000000   0.0000000   0.0000000   0.0000000   0.0000000   0.0000000   0.0000000   0.0000000   0.0000000
 NMagM=    0.0000000   0.0000000   0.0000000   0.0000000   0.0000000   0.0000000   0.0000000   0.0000000   0.0000000   0.0000000
 AtZNuc=   6.0000000   6.0000000   6.0000000   6.0000000   6.0000000   6.0000000   6.0000000   6.0000000   6.0000000   6.0000000

  Atom        31          32          33          34          35          36          37          38          39          40
 IAtWgt=          12          12          12          12          12          12          12          12          12          12
 AtmWgt=  12.0000000  12.0000000  12.0000000  12.0000000  12.0000000  12.0000000  12.0000000  12.0000000  12.0000000  12.0000000
 NucSpn=           0           0           0           0           0           0           0           0           0           0
 AtZEff=  -0.0000000  -0.0000000  -0.0000000  -0.0000000  -0.0000000  -0.0000000  -0.0000000  -0.0000000  -0.0000000  -0.0000000
 NQMom=    0.0000000   0.0000000   0.0000000   0.0000000   0.0000000   0.0000000   0.0000000   0.0000000   0.0000000   0.0000000
 NMagM=    0.0000000   0.0000000   0.0000000   0.0000000   0.0000000   0.0000000   0.0000000   0.0000000   0.0000000   0.0000000
 AtZNuc=   6.0000000   6.0000000   6.0000000   6.0000000   6.0000000   6.0000000   6.0000000   6.0000000   6.0000000   6.0000000

  Atom        41          42          43          44          45          46          47          48          49          50
 IAtWgt=          12          12          12          12          12          12          12          12          12          12
 AtmWgt=  12.0000000  12.0000000  12.0000000  12.0000000  12.0000000  12.0000000  12.0000000  12.0000000  12.0000000  12.0000000
 NucSpn=           0           0           0           0           0           0           0           0           0           0
 AtZEff=  -0.0000000  -0.0000000  -0.0000000  -0.0000000  -0.0000000  -0.0000000  -0.0000000  -0.0000000  -0.0000000  -0.0000000
 NQMom=    0.0000000   0.0000000   0.0000000   0.0000000   0.0000000   0.0000000   0.0000000   0.0000000   0.0000000   0.0000000
 NMagM=    0.0000000   0.0000000   0.0000000   0.0000000   0.0000000   0.0000000   0.0000000   0.0000000   0.0000000   0.0000000
 AtZNuc=   6.0000000   6.0000000   6.0000000   6.0000000   6.0000000   6.0000000   6.0000000   6.0000000   6.0000000   6.0000000

  Atom        51          52          53          54          55          56          57          58          59          60
 IAtWgt=          12          12          12          12          12          12          12          12          12          12
 AtmWgt=  12.0000000  12.0000000  12.0000000  12.0000000  12.0000000  12.0000000  12.0000000  12.0000000  12.0000000  12.0000000
 NucSpn=           0           0           0           0           0           0           0           0           0           0
 AtZEff=  -0.0000000  -0.0000000  -0.0000000  -0.0000000  -0.0000000  -0.0000000  -0.0000000  -0.0000000  -0.0000000  -0.0000000
 NQMom=    0.0000000   0.0000000   0.0000000   0.0000000   0.0000000   0.0000000   0.0000000   0.0000000   0.0000000   0.0000000
 NMagM=    0.0000000   0.0000000   0.0000000   0.0000000   0.0000000   0.0000000   0.0000000   0.0000000   0.0000000   0.0000000
 AtZNuc=   6.0000000   6.0000000   6.0000000   6.0000000   6.0000000   6.0000000   6.0000000   6.0000000   6.0000000   6.0000000

  Atom        61          62          63          64          65          66          67          68          69          70
 IAtWgt=          12          12          12          12          12          12          35          35          35          35
 AtmWgt=  12.0000000  12.0000000  12.0000000  12.0000000  12.0000000  12.0000000  34.9688527  34.9688527  34.9688527  34.9688527
 NucSpn=           0           0           0           0           0           0           3           3           3           3
 AtZEff=  -0.0000000  -0.0000000  -0.0000000  -0.0000000  -0.0000000  -0.0000000  -0.0000000  -0.0000000  -0.0000000  -0.0000000
 NQMom=    0.0000000   0.0000000   0.0000000   0.0000000   0.0000000   0.0000000  -8.1650000  -8.1650000  -8.1650000  -8.1650000
 NMagM=    0.0000000   0.0000000   0.0000000   0.0000000   0.0000000   0.0000000   0.8218740   0.8218740   0.8218740   0.8218740
 AtZNuc=   6.0000000   6.0000000   6.0000000   6.0000000   6.0000000   6.0000000  17.0000000  17.0000000  17.0000000  17.0000000

  Atom        71          72          73
 IAtWgt=          35          35          35
 AtmWgt=  34.9688527  34.9688527  34.9688527
 NucSpn=           3           3           3
 AtZEff=  -0.0000000  -0.0000000  -0.0000000
 NQMom=   -8.1650000  -8.1650000  -8.1650000
 NMagM=    0.8218740   0.8218740   0.8218740
 AtZNuc=  17.0000000  17.0000000  17.0000000
 Leave Link  101 at Fri Jul 15 01:43:36 2022, MaxMem=  1342177280 cpu:              12.9 elap:               0.3
 (Enter /home/mkliu/g16/l103.exe)

 GradGradGradGradGradGradGradGradGradGradGradGradGradGradGradGradGradGrad
 Berny optimization.
 Initialization pass.
                           ----------------------------
                           !    Initial Parameters    !
                           ! (Angstroms and Degrees)  !
 --------------------------                            --------------------------
 ! Name  Definition              Value          Derivative Info.                !
 --------------------------------------------------------------------------------
 ! R1    R(1,2)                  1.5619         estimate D2E/DX2                !
 ! R2    R(1,4)                  1.4765         estimate D2E/DX2                !
 ! R3    R(1,7)                  1.5594         estimate D2E/DX2                !
 ! R4    R(1,67)                 1.7862         estimate D2E/DX2                !
 ! R5    R(2,3)                  1.5782         estimate D2E/DX2                !
 ! R6    R(2,10)                 1.4709         estimate D2E/DX2                !
 ! R7    R(2,68)                 1.7823         estimate D2E/DX2                !
 ! R8    R(3,5)                  1.4852         estimate D2E/DX2                !
 ! R9    R(3,12)                 1.584          estimate D2E/DX2                !
 ! R10   R(3,69)                 1.7717         estimate D2E/DX2                !
 ! R11   R(4,5)                  1.3636         estimate D2E/DX2                !
 ! R12   R(4,6)                  1.4008         estimate D2E/DX2                !
 ! R13   R(5,15)                 1.3713         estimate D2E/DX2                !
 ! R14   R(6,8)                  1.3989         estimate D2E/DX2                !
 ! R15   R(6,17)                 1.4012         estimate D2E/DX2                !
 ! R16   R(7,8)                  1.5334         estimate D2E/DX2                !
 ! R17   R(7,9)                  1.5035         estimate D2E/DX2                !
 ! R18   R(7,71)                 1.7917         estimate D2E/DX2                !
 ! R19   R(8,20)                 1.3912         estimate D2E/DX2                !
 ! R20   R(9,11)                 1.4276         estimate D2E/DX2                !
 ! R21   R(9,22)                 1.372          estimate D2E/DX2                !
 ! R22   R(10,11)                1.4131         estimate D2E/DX2                !
 ! R23   R(10,13)                1.3619         estimate D2E/DX2                !
 ! R24   R(11,25)                1.382          estimate D2E/DX2                !
 ! R25   R(12,13)                1.4878         estimate D2E/DX2                !
 ! R26   R(12,14)                1.516          estimate D2E/DX2                !
 ! R27   R(12,70)                1.8091         estimate D2E/DX2                !
 ! R28   R(13,27)                1.4123         estimate D2E/DX2                !
 ! R29   R(14,16)                1.3745         estimate D2E/DX2                !
 ! R30   R(14,29)                1.4602         estimate D2E/DX2                !
 ! R31   R(15,16)                1.4555         estimate D2E/DX2                !
 ! R32   R(15,18)                1.414          estimate D2E/DX2                !
 ! R33   R(16,32)                1.4346         estimate D2E/DX2                !
 ! R34   R(17,18)                1.409          estimate D2E/DX2                !
 ! R35   R(17,19)                1.4314         estimate D2E/DX2                !
 ! R36   R(18,33)                1.4215         estimate D2E/DX2                !
 ! R37   R(19,21)                1.4245         estimate D2E/DX2                !
 ! R38   R(19,35)                1.4341         estimate D2E/DX2                !
 ! R39   R(20,21)                1.4123         estimate D2E/DX2                !
 ! R40   R(20,23)                1.5095         estimate D2E/DX2                !
 ! R41   R(21,38)                1.5158         estimate D2E/DX2                !
 ! R42   R(22,23)                1.5173         estimate D2E/DX2                !
 ! R43   R(22,24)                1.4351         estimate D2E/DX2                !
 ! R44   R(23,40)                1.5004         estimate D2E/DX2                !
 ! R45   R(23,72)                1.7968         estimate D2E/DX2                !
 ! R46   R(24,26)                1.3769         estimate D2E/DX2                !
 ! R47   R(24,41)                1.4283         estimate D2E/DX2                !
 ! R48   R(25,26)                1.4189         estimate D2E/DX2                !
 ! R49   R(25,28)                1.4267         estimate D2E/DX2                !
 ! R50   R(26,44)                1.4317         estimate D2E/DX2                !
 ! R51   R(27,28)                1.3853         estimate D2E/DX2                !
 ! R52   R(27,30)                1.4437         estimate D2E/DX2                !
 ! R53   R(28,45)                1.4173         estimate D2E/DX2                !
 ! R54   R(29,30)                1.4496         estimate D2E/DX2                !
 ! R55   R(29,31)                1.4039         estimate D2E/DX2                !
 ! R56   R(30,47)                1.4046         estimate D2E/DX2                !
 ! R57   R(31,34)                1.4292         estimate D2E/DX2                !
 ! R58   R(31,49)                1.4351         estimate D2E/DX2                !
 ! R59   R(32,33)                1.4353         estimate D2E/DX2                !
 ! R60   R(32,34)                1.3668         estimate D2E/DX2                !
 ! R61   R(33,36)                1.3827         estimate D2E/DX2                !
 ! R62   R(34,51)                1.4432         estimate D2E/DX2                !
 ! R63   R(35,36)                1.4225         estimate D2E/DX2                !
 ! R64   R(35,37)                1.4375         estimate D2E/DX2                !
 ! R65   R(36,52)                1.4449         estimate D2E/DX2                !
 ! R66   R(37,39)                1.3699         estimate D2E/DX2                !
 ! R67   R(37,53)                1.4403         estimate D2E/DX2                !
 ! R68   R(38,39)                1.502          estimate D2E/DX2                !
 ! R69   R(38,42)                1.5044         estimate D2E/DX2                !
 ! R70   R(38,73)                1.8239         estimate D2E/DX2                !
 ! R71   R(39,57)                1.4195         estimate D2E/DX2                !
 ! R72   R(40,41)                1.4265         estimate D2E/DX2                !
 ! R73   R(40,42)                1.356          estimate D2E/DX2                !
 ! R74   R(41,43)                1.3865         estimate D2E/DX2                !
 ! R75   R(42,58)                1.4308         estimate D2E/DX2                !
 ! R76   R(43,46)                1.4388         estimate D2E/DX2                !
 ! R77   R(43,59)                1.423          estimate D2E/DX2                !
 ! R78   R(44,45)                1.4397         estimate D2E/DX2                !
 ! R79   R(44,46)                1.3747         estimate D2E/DX2                !
 ! R80   R(45,48)                1.3739         estimate D2E/DX2                !
 ! R81   R(46,61)                1.4413         estimate D2E/DX2                !
 ! R82   R(47,48)                1.4383         estimate D2E/DX2                !
 ! R83   R(47,50)                1.4309         estimate D2E/DX2                !
 ! R84   R(48,62)                1.4353         estimate D2E/DX2                !
 ! R85   R(49,50)                1.3721         estimate D2E/DX2                !
 ! R86   R(49,54)                1.4427         estimate D2E/DX2                !
 ! R87   R(50,63)                1.4421         estimate D2E/DX2                !
 ! R88   R(51,52)                1.3838         estimate D2E/DX2                !
 ! R89   R(51,54)                1.4331         estimate D2E/DX2                !
 ! R90   R(52,53)                1.4314         estimate D2E/DX2                !
 ! R91   R(53,55)                1.3814         estimate D2E/DX2                !
 ! R92   R(54,56)                1.3832         estimate D2E/DX2                !
 ! R93   R(55,56)                1.4409         estimate D2E/DX2                !
 ! R94   R(55,60)                1.4271         estimate D2E/DX2                !
 ! R95   R(56,64)                1.4354         estimate D2E/DX2                !
 ! R96   R(57,58)                1.4309         estimate D2E/DX2                !
 ! R97   R(57,60)                1.3933         estimate D2E/DX2                !
 ! R98   R(58,59)                1.3809         estimate D2E/DX2                !
 ! R99   R(59,65)                1.441          estimate D2E/DX2                !
 ! R100  R(60,66)                1.4336         estimate D2E/DX2                !
 ! R101  R(61,62)                1.3867         estimate D2E/DX2                !
 ! R102  R(61,65)                1.4356         estimate D2E/DX2                !
 ! R103  R(62,63)                1.4323         estimate D2E/DX2                !
 ! R104  R(63,64)                1.3808         estimate D2E/DX2                !
 ! R105  R(64,66)                1.4432         estimate D2E/DX2                !
 ! R106  R(65,66)                1.3818         estimate D2E/DX2                !
 ! A1    A(2,1,4)               99.6954         estimate D2E/DX2                !
 ! A2    A(2,1,7)              119.582          estimate D2E/DX2                !
 ! A3    A(2,1,67)             109.3146         estimate D2E/DX2                !
 ! A4    A(4,1,7)              102.095          estimate D2E/DX2                !
 ! A5    A(4,1,67)             110.9064         estimate D2E/DX2                !
 ! A6    A(7,1,67)             113.8181         estimate D2E/DX2                !
 ! A7    A(1,2,3)              108.8656         estimate D2E/DX2                !
 ! A8    A(1,2,10)             110.5658         estimate D2E/DX2                !
 ! A9    A(1,2,68)             112.4096         estimate D2E/DX2                !
 ! A10   A(3,2,10)             100.5179         estimate D2E/DX2                !
 ! A11   A(3,2,68)             114.5437         estimate D2E/DX2                !
 ! A12   A(10,2,68)            109.314          estimate D2E/DX2                !
 ! A13   A(2,3,5)              100.1898         estimate D2E/DX2                !
 ! A14   A(2,3,12)             107.7648         estimate D2E/DX2                !
 ! A15   A(2,3,69)             113.5224         estimate D2E/DX2                !
 ! A16   A(5,3,12)             109.8186         estimate D2E/DX2                !
 ! A17   A(5,3,69)             111.2925         estimate D2E/DX2                !
 ! A18   A(12,3,69)            113.416          estimate D2E/DX2                !
 ! A19   A(1,4,5)              114.6806         estimate D2E/DX2                !
 ! A20   A(1,4,6)              113.6843         estimate D2E/DX2                !
 ! A21   A(5,4,6)              121.1351         estimate D2E/DX2                !
 ! A22   A(3,5,4)              112.7125         estimate D2E/DX2                !
 ! A23   A(3,5,15)             124.309          estimate D2E/DX2                !
 ! A24   A(4,5,15)             117.0449         estimate D2E/DX2                !
 ! A25   A(4,6,8)              109.1825         estimate D2E/DX2                !
 ! A26   A(4,6,17)             122.1009         estimate D2E/DX2                !
 ! A27   A(8,6,17)             121.9736         estimate D2E/DX2                !
 ! A28   A(1,7,8)              105.4065         estimate D2E/DX2                !
 ! A29   A(1,7,9)              117.1251         estimate D2E/DX2                !
 ! A30   A(1,7,71)             113.1841         estimate D2E/DX2                !
 ! A31   A(8,7,9)              101.2257         estimate D2E/DX2                !
 ! A32   A(8,7,71)             110.4549         estimate D2E/DX2                !
 ! A33   A(9,7,71)             108.6328         estimate D2E/DX2                !
 ! A34   A(6,8,7)              108.9403         estimate D2E/DX2                !
 ! A35   A(6,8,20)             119.935          estimate D2E/DX2                !
 ! A36   A(7,8,20)             126.3935         estimate D2E/DX2                !
 ! A37   A(7,9,11)             120.5206         estimate D2E/DX2                !
 ! A38   A(7,9,22)             118.7887         estimate D2E/DX2                !
 ! A39   A(11,9,22)            117.2942         estimate D2E/DX2                !
 ! A40   A(2,10,11)            124.1346         estimate D2E/DX2                !
 ! A41   A(2,10,13)            114.097          estimate D2E/DX2                !
 ! A42   A(11,10,13)           121.0683         estimate D2E/DX2                !
 ! A43   A(9,11,10)            118.7823         estimate D2E/DX2                !
 ! A44   A(9,11,25)            120.9382         estimate D2E/DX2                !
 ! A45   A(10,11,25)           114.1958         estimate D2E/DX2                !
 ! A46   A(3,12,13)            101.5608         estimate D2E/DX2                !
 ! A47   A(3,12,14)            117.1831         estimate D2E/DX2                !
 ! A48   A(3,12,70)            111.1474         estimate D2E/DX2                !
 ! A49   A(13,12,14)           108.4737         estimate D2E/DX2                !
 ! A50   A(13,12,70)           110.0061         estimate D2E/DX2                !
 ! A51   A(14,12,70)           108.1816         estimate D2E/DX2                !
 ! A52   A(10,13,12)           112.5145         estimate D2E/DX2                !
 ! A53   A(10,13,27)           123.6934         estimate D2E/DX2                !
 ! A54   A(12,13,27)           121.3673         estimate D2E/DX2                !
 ! A55   A(12,14,16)           121.0124         estimate D2E/DX2                !
 ! A56   A(12,14,29)           118.2411         estimate D2E/DX2                !
 ! A57   A(16,14,29)           117.8958         estimate D2E/DX2                !
 ! A58   A(5,15,16)            120.6549         estimate D2E/DX2                !
 ! A59   A(5,15,18)            121.2129         estimate D2E/DX2                !
 ! A60   A(16,15,18)           108.3403         estimate D2E/DX2                !
 ! A61   A(14,16,15)           117.6393         estimate D2E/DX2                !
 ! A62   A(14,16,32)           122.2912         estimate D2E/DX2                !
 ! A63   A(15,16,32)           105.8503         estimate D2E/DX2                !
 ! A64   A(6,17,18)            114.148          estimate D2E/DX2                !
 ! A65   A(6,17,19)            118.8106         estimate D2E/DX2                !
 ! A66   A(18,17,19)           121.255          estimate D2E/DX2                !
 ! A67   A(15,18,17)           121.0497         estimate D2E/DX2                !
 ! A68   A(15,18,33)           107.4789         estimate D2E/DX2                !
 ! A69   A(17,18,33)           120.6038         estimate D2E/DX2                !
 ! A70   A(17,19,21)           117.9736         estimate D2E/DX2                !
 ! A71   A(17,19,35)           115.8387         estimate D2E/DX2                !
 ! A72   A(21,19,35)           121.551          estimate D2E/DX2                !
 ! A73   A(8,20,21)            119.1081         estimate D2E/DX2                !
 ! A74   A(8,20,23)            117.2574         estimate D2E/DX2                !
 ! A75   A(21,20,23)           121.8232         estimate D2E/DX2                !
 ! A76   A(19,21,20)           121.5544         estimate D2E/DX2                !
 ! A77   A(19,21,38)           117.2005         estimate D2E/DX2                !
 ! A78   A(20,21,38)           120.1377         estimate D2E/DX2                !
 ! A79   A(9,22,23)            125.2886         estimate D2E/DX2                !
 ! A80   A(9,22,24)            121.1247         estimate D2E/DX2                !
 ! A81   A(23,22,24)           108.6502         estimate D2E/DX2                !
 ! A82   A(20,23,22)           104.8391         estimate D2E/DX2                !
 ! A83   A(20,23,40)           111.7513         estimate D2E/DX2                !
 ! A84   A(20,23,72)           109.6857         estimate D2E/DX2                !
 ! A85   A(22,23,40)           101.4262         estimate D2E/DX2                !
 ! A86   A(22,23,72)           116.1441         estimate D2E/DX2                !
 ! A87   A(40,23,72)           112.5797         estimate D2E/DX2                !
 ! A88   A(22,24,26)           120.788          estimate D2E/DX2                !
 ! A89   A(22,24,41)           110.0649         estimate D2E/DX2                !
 ! A90   A(26,24,41)           119.0739         estimate D2E/DX2                !
 ! A91   A(11,25,26)           121.1352         estimate D2E/DX2                !
 ! A92   A(11,25,28)           122.7604         estimate D2E/DX2                !
 ! A93   A(26,25,28)           107.9053         estimate D2E/DX2                !
 ! A94   A(24,26,25)           117.5507         estimate D2E/DX2                !
 ! A95   A(24,26,44)           121.5826         estimate D2E/DX2                !
 ! A96   A(25,26,44)           108.4895         estimate D2E/DX2                !
 ! A97   A(13,27,28)           114.1516         estimate D2E/DX2                !
 ! A98   A(13,27,30)           119.5015         estimate D2E/DX2                !
 ! A99   A(28,27,30)           121.0123         estimate D2E/DX2                !
 ! A100  A(25,28,27)           120.4127         estimate D2E/DX2                !
 ! A101  A(25,28,45)           108.3079         estimate D2E/DX2                !
 ! A102  A(27,28,45)           122.1014         estimate D2E/DX2                !
 ! A103  A(14,29,30)           119.5097         estimate D2E/DX2                !
 ! A104  A(14,29,31)           117.6774         estimate D2E/DX2                !
 ! A105  A(30,29,31)           116.6977         estimate D2E/DX2                !
 ! A106  A(27,30,29)           118.5781         estimate D2E/DX2                !
 ! A107  A(27,30,47)           115.61           estimate D2E/DX2                !
 ! A108  A(29,30,47)           119.3133         estimate D2E/DX2                !
 ! A109  A(29,31,34)           122.4874         estimate D2E/DX2                !
 ! A110  A(29,31,49)           123.1209         estimate D2E/DX2                !
 ! A111  A(34,31,49)           105.6443         estimate D2E/DX2                !
 ! A112  A(16,32,33)           108.1547         estimate D2E/DX2                !
 ! A113  A(16,32,34)           120.1693         estimate D2E/DX2                !
 ! A114  A(33,32,34)           118.7728         estimate D2E/DX2                !
 ! A115  A(18,33,32)           108.2043         estimate D2E/DX2                !
 ! A116  A(18,33,36)           118.6577         estimate D2E/DX2                !
 ! A117  A(32,33,36)           121.4054         estimate D2E/DX2                !
 ! A118  A(31,34,32)           117.9757         estimate D2E/DX2                !
 ! A119  A(31,34,51)           109.6824         estimate D2E/DX2                !
 ! A120  A(32,34,51)           120.4427         estimate D2E/DX2                !
 ! A121  A(19,35,36)           121.0193         estimate D2E/DX2                !
 ! A122  A(19,35,37)           120.4049         estimate D2E/DX2                !
 ! A123  A(36,35,37)           107.664          estimate D2E/DX2                !
 ! A124  A(33,36,35)           120.9402         estimate D2E/DX2                !
 ! A125  A(33,36,52)           118.8962         estimate D2E/DX2                !
 ! A126  A(35,36,52)           109.0729         estimate D2E/DX2                !
 ! A127  A(35,37,39)           119.4572         estimate D2E/DX2                !
 ! A128  A(35,37,53)           107.4588         estimate D2E/DX2                !
 ! A129  A(39,37,53)           121.6143         estimate D2E/DX2                !
 ! A130  A(21,38,39)           114.0367         estimate D2E/DX2                !
 ! A131  A(21,38,42)           110.9912         estimate D2E/DX2                !
 ! A132  A(21,38,73)           105.7165         estimate D2E/DX2                !
 ! A133  A(39,38,42)           101.0002         estimate D2E/DX2                !
 ! A134  A(39,38,73)           113.4699         estimate D2E/DX2                !
 ! A135  A(42,38,73)           111.7848         estimate D2E/DX2                !
 ! A136  A(37,39,38)           122.3934         estimate D2E/DX2                !
 ! A137  A(37,39,57)           117.946          estimate D2E/DX2                !
 ! A138  A(38,39,57)           111.9205         estimate D2E/DX2                !
 ! A139  A(23,40,41)           111.2268         estimate D2E/DX2                !
 ! A140  A(23,40,42)           122.4237         estimate D2E/DX2                !
 ! A141  A(41,40,42)           118.899          estimate D2E/DX2                !
 ! A142  A(24,41,40)           106.8542         estimate D2E/DX2                !
 ! A143  A(24,41,43)           119.364          estimate D2E/DX2                !
 ! A144  A(40,41,43)           121.7322         estimate D2E/DX2                !
 ! A145  A(38,42,40)           122.8461         estimate D2E/DX2                !
 ! A146  A(38,42,58)           110.3525         estimate D2E/DX2                !
 ! A147  A(40,42,58)           119.7488         estimate D2E/DX2                !
 ! A148  A(41,43,46)           121.4658         estimate D2E/DX2                !
 ! A149  A(41,43,59)           119.3015         estimate D2E/DX2                !
 ! A150  A(46,43,59)           107.1706         estimate D2E/DX2                !
 ! A151  A(26,44,45)           107.0876         estimate D2E/DX2                !
 ! A152  A(26,44,46)           119.8862         estimate D2E/DX2                !
 ! A153  A(45,44,46)           119.43           estimate D2E/DX2                !
 ! A154  A(28,45,44)           108.0971         estimate D2E/DX2                !
 ! A155  A(28,45,48)           118.2564         estimate D2E/DX2                !
 ! A156  A(44,45,48)           121.8505         estimate D2E/DX2                !
 ! A157  A(43,46,44)           118.6085         estimate D2E/DX2                !
 ! A158  A(43,46,61)           109.5022         estimate D2E/DX2                !
 ! A159  A(44,46,61)           119.0617         estimate D2E/DX2                !
 ! A160  A(30,47,48)           122.5024         estimate D2E/DX2                !
 ! A161  A(30,47,50)           122.2722         estimate D2E/DX2                !
 ! A162  A(48,47,50)           106.3572         estimate D2E/DX2                !
 ! A163  A(45,48,47)           120.2247         estimate D2E/DX2                !
 ! A164  A(45,48,62)           118.7551         estimate D2E/DX2                !
 ! A165  A(47,48,62)           109.51           estimate D2E/DX2                !
 ! A166  A(31,49,50)           119.616          estimate D2E/DX2                !
 ! A167  A(31,49,54)           109.8832         estimate D2E/DX2                !
 ! A168  A(50,49,54)           119.6173         estimate D2E/DX2                !
 ! A169  A(47,50,49)           118.7655         estimate D2E/DX2                !
 ! A170  A(47,50,63)           108.9018         estimate D2E/DX2                !
 ! A171  A(49,50,63)           120.7694         estimate D2E/DX2                !
 ! A172  A(34,51,52)           120.0055         estimate D2E/DX2                !
 ! A173  A(34,51,54)           107.1892         estimate D2E/DX2                !
 ! A174  A(52,51,54)           119.9374         estimate D2E/DX2                !
 ! A175  A(36,52,51)           119.3625         estimate D2E/DX2                !
 ! A176  A(36,52,53)           106.5345         estimate D2E/DX2                !
 ! A177  A(51,52,53)           120.554          estimate D2E/DX2                !
 ! A178  A(37,53,52)           108.8767         estimate D2E/DX2                !
 ! A179  A(37,53,55)           120.0551         estimate D2E/DX2                !
 ! A180  A(52,53,55)           119.2403         estimate D2E/DX2                !
 ! A181  A(49,54,51)           106.9346         estimate D2E/DX2                !
 ! A182  A(49,54,56)           119.6553         estimate D2E/DX2                !
 ! A183  A(51,54,56)           119.8912         estimate D2E/DX2                !
 ! A184  A(53,55,56)           120.5326         estimate D2E/DX2                !
 ! A185  A(53,55,60)           118.6808         estimate D2E/DX2                !
 ! A186  A(56,55,60)           108.6926         estimate D2E/DX2                !
 ! A187  A(54,56,55)           119.635          estimate D2E/DX2                !
 ! A188  A(54,56,64)           120.2766         estimate D2E/DX2                !
 ! A189  A(55,56,64)           107.717          estimate D2E/DX2                !
 ! A190  A(39,57,58)           107.3531         estimate D2E/DX2                !
 ! A191  A(39,57,60)           121.4457         estimate D2E/DX2                !
 ! A192  A(58,57,60)           119.9967         estimate D2E/DX2                !
 ! A193  A(42,58,57)           108.9836         estimate D2E/DX2                !
 ! A194  A(42,58,59)           121.8698         estimate D2E/DX2                !
 ! A195  A(57,58,59)           119.2297         estimate D2E/DX2                !
 ! A196  A(43,59,58)           118.3171         estimate D2E/DX2                !
 ! A197  A(43,59,65)           108.2699         estimate D2E/DX2                !
 ! A198  A(58,59,65)           120.975          estimate D2E/DX2                !
 ! A199  A(55,60,57)           120.1596         estimate D2E/DX2                !
 ! A200  A(55,60,66)           107.5316         estimate D2E/DX2                !
 ! A201  A(57,60,66)           120.4298         estimate D2E/DX2                !
 ! A202  A(46,61,62)           121.0672         estimate D2E/DX2                !
 ! A203  A(46,61,65)           106.1365         estimate D2E/DX2                !
 ! A204  A(62,61,65)           119.9121         estimate D2E/DX2                !
 ! A205  A(48,62,61)           119.6117         estimate D2E/DX2                !
 ! A206  A(48,62,63)           107.0855         estimate D2E/DX2                !
 ! A207  A(61,62,63)           120.3073         estimate D2E/DX2                !
 ! A208  A(50,63,62)           107.8829         estimate D2E/DX2                !
 ! A209  A(50,63,64)           119.3766         estimate D2E/DX2                !
 ! A210  A(62,63,64)           119.8074         estimate D2E/DX2                !
 ! A211  A(56,64,63)           119.9827         estimate D2E/DX2                !
 ! A212  A(56,64,66)           107.4758         estimate D2E/DX2                !
 ! A213  A(63,64,66)           119.9372         estimate D2E/DX2                !
 ! A214  A(59,65,61)           108.8721         estimate D2E/DX2                !
 ! A215  A(59,65,66)           119.5914         estimate D2E/DX2                !
 ! A216  A(61,65,66)           119.7632         estimate D2E/DX2                !
 ! A217  A(60,66,64)           108.5247         estimate D2E/DX2                !
 ! A218  A(60,66,65)           119.6153         estimate D2E/DX2                !
 ! A219  A(64,66,65)           120.1099         estimate D2E/DX2                !
 ! D1    D(4,1,2,3)             19.1814         estimate D2E/DX2                !
 ! D2    D(4,1,2,10)           -90.345          estimate D2E/DX2                !
 ! D3    D(4,1,2,68)           147.1868         estimate D2E/DX2                !
 ! D4    D(7,1,2,3)            129.1447         estimate D2E/DX2                !
 ! D5    D(7,1,2,10)            19.6182         estimate D2E/DX2                !
 ! D6    D(7,1,2,68)          -102.85           estimate D2E/DX2                !
 ! D7    D(67,1,2,3)           -97.1449         estimate D2E/DX2                !
 ! D8    D(67,1,2,10)          153.3287         estimate D2E/DX2                !
 ! D9    D(67,1,2,68)           30.8604         estimate D2E/DX2                !
 ! D10   D(2,1,4,5)            -13.4312         estimate D2E/DX2                !
 ! D11   D(2,1,4,6)            131.95           estimate D2E/DX2                !
 ! D12   D(7,1,4,5)           -136.7161         estimate D2E/DX2                !
 ! D13   D(7,1,4,6)              8.665          estimate D2E/DX2                !
 ! D14   D(67,1,4,5)           101.6853         estimate D2E/DX2                !
 ! D15   D(67,1,4,6)          -112.9336         estimate D2E/DX2                !
 ! D16   D(2,1,7,8)           -114.8675         estimate D2E/DX2                !
 ! D17   D(2,1,7,9)             -3.272          estimate D2E/DX2                !
 ! D18   D(2,1,7,71)           124.3114         estimate D2E/DX2                !
 ! D19   D(4,1,7,8)             -6.2231         estimate D2E/DX2                !
 ! D20   D(4,1,7,9)            105.3725         estimate D2E/DX2                !
 ! D21   D(4,1,7,71)          -127.0442         estimate D2E/DX2                !
 ! D22   D(67,1,7,8)           113.3486         estimate D2E/DX2                !
 ! D23   D(67,1,7,9)          -135.0558         estimate D2E/DX2                !
 ! D24   D(67,1,7,71)           -7.4725         estimate D2E/DX2                !
 ! D25   D(1,2,3,5)            -18.2374         estimate D2E/DX2                !
 ! D26   D(1,2,3,12)          -133.0286         estimate D2E/DX2                !
 ! D27   D(1,2,3,69)           100.4888         estimate D2E/DX2                !
 ! D28   D(10,2,3,5)            97.931          estimate D2E/DX2                !
 ! D29   D(10,2,3,12)          -16.8603         estimate D2E/DX2                !
 ! D30   D(10,2,3,69)         -143.3429         estimate D2E/DX2                !
 ! D31   D(68,2,3,5)          -145.0302         estimate D2E/DX2                !
 ! D32   D(68,2,3,12)          100.1785         estimate D2E/DX2                !
 ! D33   D(68,2,3,69)          -26.3041         estimate D2E/DX2                !
 ! D34   D(1,2,10,11)          -36.4753         estimate D2E/DX2                !
 ! D35   D(1,2,10,13)          133.9947         estimate D2E/DX2                !
 ! D36   D(3,2,10,11)         -151.368          estimate D2E/DX2                !
 ! D37   D(3,2,10,13)           19.102          estimate D2E/DX2                !
 ! D38   D(68,2,10,11)          87.7848         estimate D2E/DX2                !
 ! D39   D(68,2,10,13)        -101.7452         estimate D2E/DX2                !
 ! D40   D(2,3,5,4)             10.1238         estimate D2E/DX2                !
 ! D41   D(2,3,5,15)          -141.8046         estimate D2E/DX2                !
 ! D42   D(12,3,5,4)           123.3459         estimate D2E/DX2                !
 ! D43   D(12,3,5,15)          -28.5825         estimate D2E/DX2                !
 ! D44   D(69,3,5,4)          -110.2251         estimate D2E/DX2                !
 ! D45   D(69,3,5,15)           97.8465         estimate D2E/DX2                !
 ! D46   D(2,3,12,13)            9.9101         estimate D2E/DX2                !
 ! D47   D(2,3,12,14)          127.8562         estimate D2E/DX2                !
 ! D48   D(2,3,12,70)         -107.0614         estimate D2E/DX2                !
 ! D49   D(5,3,12,13)          -98.3257         estimate D2E/DX2                !
 ! D50   D(5,3,12,14)           19.6204         estimate D2E/DX2                !
 ! D51   D(5,3,12,70)          144.7028         estimate D2E/DX2                !
 ! D52   D(69,3,12,13)         136.4551         estimate D2E/DX2                !
 ! D53   D(69,3,12,14)        -105.5988         estimate D2E/DX2                !
 ! D54   D(69,3,12,70)          19.4836         estimate D2E/DX2                !
 ! D55   D(1,4,5,3)              2.1903         estimate D2E/DX2                !
 ! D56   D(1,4,5,15)           156.3145         estimate D2E/DX2                !
 ! D57   D(6,4,5,3)           -140.3776         estimate D2E/DX2                !
 ! D58   D(6,4,5,15)            13.7466         estimate D2E/DX2                !
 ! D59   D(1,4,6,8)             -7.7293         estimate D2E/DX2                !
 ! D60   D(1,4,6,17)          -159.3822         estimate D2E/DX2                !
 ! D61   D(5,4,6,8)            135.1789         estimate D2E/DX2                !
 ! D62   D(5,4,6,17)           -16.4739         estimate D2E/DX2                !
 ! D63   D(3,5,15,16)           10.854          estimate D2E/DX2                !
 ! D64   D(3,5,15,18)          152.7428         estimate D2E/DX2                !
 ! D65   D(4,5,15,16)         -139.9776         estimate D2E/DX2                !
 ! D66   D(4,5,15,18)            1.9112         estimate D2E/DX2                !
 ! D67   D(4,6,8,7)              2.9998         estimate D2E/DX2                !
 ! D68   D(4,6,8,20)          -154.1413         estimate D2E/DX2                !
 ! D69   D(17,6,8,7)           154.6956         estimate D2E/DX2                !
 ! D70   D(17,6,8,20)           -2.4456         estimate D2E/DX2                !
 ! D71   D(4,6,17,18)            2.4903         estimate D2E/DX2                !
 ! D72   D(4,6,17,19)          156.0643         estimate D2E/DX2                !
 ! D73   D(8,6,17,18)         -145.5954         estimate D2E/DX2                !
 ! D74   D(8,6,17,19)            7.9786         estimate D2E/DX2                !
 ! D75   D(1,7,8,6)              2.2877         estimate D2E/DX2                !
 ! D76   D(1,7,8,20)           157.5664         estimate D2E/DX2                !
 ! D77   D(9,7,8,6)           -120.1815         estimate D2E/DX2                !
 ! D78   D(9,7,8,20)            35.0973         estimate D2E/DX2                !
 ! D79   D(71,7,8,6)           124.8777         estimate D2E/DX2                !
 ! D80   D(71,7,8,20)          -79.8435         estimate D2E/DX2                !
 ! D81   D(1,7,9,11)            -1.0462         estimate D2E/DX2                !
 ! D82   D(1,7,9,22)          -159.6894         estimate D2E/DX2                !
 ! D83   D(8,7,9,11)           112.907          estimate D2E/DX2                !
 ! D84   D(8,7,9,22)           -45.7362         estimate D2E/DX2                !
 ! D85   D(71,7,9,11)         -130.803          estimate D2E/DX2                !
 ! D86   D(71,7,9,22)           70.5537         estimate D2E/DX2                !
 ! D87   D(6,8,20,21)           -4.7301         estimate D2E/DX2                !
 ! D88   D(6,8,20,23)          160.2334         estimate D2E/DX2                !
 ! D89   D(7,8,20,21)         -157.5714         estimate D2E/DX2                !
 ! D90   D(7,8,20,23)            7.392          estimate D2E/DX2                !
 ! D91   D(7,9,11,10)          -12.9528         estimate D2E/DX2                !
 ! D92   D(7,9,11,25)         -163.9359         estimate D2E/DX2                !
 ! D93   D(22,9,11,10)         145.9993         estimate D2E/DX2                !
 ! D94   D(22,9,11,25)          -4.9837         estimate D2E/DX2                !
 ! D95   D(7,9,22,23)           17.4744         estimate D2E/DX2                !
 ! D96   D(7,9,22,24)          169.7277         estimate D2E/DX2                !
 ! D97   D(11,9,22,23)        -141.8535         estimate D2E/DX2                !
 ! D98   D(11,9,22,24)          10.3998         estimate D2E/DX2                !
 ! D99   D(2,10,11,9)           34.6451         estimate D2E/DX2                !
 ! D100  D(2,10,11,25)        -172.4922         estimate D2E/DX2                !
 ! D101  D(13,10,11,9)        -135.192          estimate D2E/DX2                !
 ! D102  D(13,10,11,25)         17.6707         estimate D2E/DX2                !
 ! D103  D(2,10,13,12)         -14.1549         estimate D2E/DX2                !
 ! D104  D(2,10,13,27)        -176.6338         estimate D2E/DX2                !
 ! D105  D(11,10,13,12)        156.6387         estimate D2E/DX2                !
 ! D106  D(11,10,13,27)         -5.8402         estimate D2E/DX2                !
 ! D107  D(9,11,25,26)          -5.1536         estimate D2E/DX2                !
 ! D108  D(9,11,25,28)         139.5163         estimate D2E/DX2                !
 ! D109  D(10,11,25,26)       -157.373          estimate D2E/DX2                !
 ! D110  D(10,11,25,28)        -12.7032         estimate D2E/DX2                !
 ! D111  D(3,12,13,10)           1.7243         estimate D2E/DX2                !
 ! D112  D(3,12,13,27)         164.6651         estimate D2E/DX2                !
 ! D113  D(14,12,13,10)       -122.3294         estimate D2E/DX2                !
 ! D114  D(14,12,13,27)         40.6114         estimate D2E/DX2                !
 ! D115  D(70,12,13,10)        119.5229         estimate D2E/DX2                !
 ! D116  D(70,12,13,27)        -77.5363         estimate D2E/DX2                !
 ! D117  D(3,12,14,16)           5.9814         estimate D2E/DX2                !
 ! D118  D(3,12,14,29)        -154.503          estimate D2E/DX2                !
 ! D119  D(13,12,14,16)        120.13           estimate D2E/DX2                !
 ! D120  D(13,12,14,29)        -40.3545         estimate D2E/DX2                !
 ! D121  D(70,12,14,16)       -120.5698         estimate D2E/DX2                !
 ! D122  D(70,12,14,29)         78.9458         estimate D2E/DX2                !
 ! D123  D(10,13,27,28)        -11.6163         estimate D2E/DX2                !
 ! D124  D(10,13,27,30)        142.869          estimate D2E/DX2                !
 ! D125  D(12,13,27,28)       -172.6074         estimate D2E/DX2                !
 ! D126  D(12,13,27,30)        -18.1221         estimate D2E/DX2                !
 ! D127  D(12,14,16,15)        -25.9638         estimate D2E/DX2                !
 ! D128  D(12,14,16,32)       -160.0423         estimate D2E/DX2                !
 ! D129  D(29,14,16,15)        134.5858         estimate D2E/DX2                !
 ! D130  D(29,14,16,32)          0.5072         estimate D2E/DX2                !
 ! D131  D(12,14,29,30)         19.2613         estimate D2E/DX2                !
 ! D132  D(12,14,29,31)        170.883          estimate D2E/DX2                !
 ! D133  D(16,14,29,30)       -141.8364         estimate D2E/DX2                !
 ! D134  D(16,14,29,31)          9.7852         estimate D2E/DX2                !
 ! D135  D(5,15,16,14)          18.6897         estimate D2E/DX2                !
 ! D136  D(5,15,16,32)         159.5446         estimate D2E/DX2                !
 ! D137  D(18,15,16,14)       -127.5239         estimate D2E/DX2                !
 ! D138  D(18,15,16,32)         13.331          estimate D2E/DX2                !
 ! D139  D(5,15,18,17)         -15.8938         estimate D2E/DX2                !
 ! D140  D(5,15,18,33)        -160.2432         estimate D2E/DX2                !
 ! D141  D(16,15,18,17)        130.0951         estimate D2E/DX2                !
 ! D142  D(16,15,18,33)        -14.2542         estimate D2E/DX2                !
 ! D143  D(14,16,32,33)        131.2764         estimate D2E/DX2                !
 ! D144  D(14,16,32,34)         -9.6678         estimate D2E/DX2                !
 ! D145  D(15,16,32,33)         -7.3044         estimate D2E/DX2                !
 ! D146  D(15,16,32,34)       -148.2486         estimate D2E/DX2                !
 ! D147  D(6,17,18,15)          12.9986         estimate D2E/DX2                !
 ! D148  D(6,17,18,33)         152.7655         estimate D2E/DX2                !
 ! D149  D(19,17,18,15)       -139.862          estimate D2E/DX2                !
 ! D150  D(19,17,18,33)         -0.0951         estimate D2E/DX2                !
 ! D151  D(6,17,19,21)          -6.1893         estimate D2E/DX2                !
 ! D152  D(6,17,19,35)        -162.4647         estimate D2E/DX2                !
 ! D153  D(18,17,19,21)        145.4486         estimate D2E/DX2                !
 ! D154  D(18,17,19,35)        -10.8268         estimate D2E/DX2                !
 ! D155  D(15,18,33,32)          9.6004         estimate D2E/DX2                !
 ! D156  D(15,18,33,36)        153.1967         estimate D2E/DX2                !
 ! D157  D(17,18,33,32)       -134.9392         estimate D2E/DX2                !
 ! D158  D(17,18,33,36)          8.6572         estimate D2E/DX2                !
 ! D159  D(17,19,21,20)         -0.823          estimate D2E/DX2                !
 ! D160  D(17,19,21,38)       -168.802          estimate D2E/DX2                !
 ! D161  D(35,19,21,20)        154.0306         estimate D2E/DX2                !
 ! D162  D(35,19,21,38)        -13.9484         estimate D2E/DX2                !
 ! D163  D(17,19,35,36)         13.754          estimate D2E/DX2                !
 ! D164  D(17,19,35,37)        153.518          estimate D2E/DX2                !
 ! D165  D(21,19,35,36)       -141.6025         estimate D2E/DX2                !
 ! D166  D(21,19,35,37)         -1.8384         estimate D2E/DX2                !
 ! D167  D(8,20,21,19)           6.3443         estimate D2E/DX2                !
 ! D168  D(8,20,21,38)         173.9761         estimate D2E/DX2                !
 ! D169  D(23,20,21,19)       -157.9064         estimate D2E/DX2                !
 ! D170  D(23,20,21,38)          9.7254         estimate D2E/DX2                !
 ! D171  D(8,20,23,22)         -37.9853         estimate D2E/DX2                !
 ! D172  D(8,20,23,40)        -147.0332         estimate D2E/DX2                !
 ! D173  D(8,20,23,72)          87.389          estimate D2E/DX2                !
 ! D174  D(21,20,23,22)        126.5425         estimate D2E/DX2                !
 ! D175  D(21,20,23,40)         17.4946         estimate D2E/DX2                !
 ! D176  D(21,20,23,72)       -108.0832         estimate D2E/DX2                !
 ! D177  D(19,21,38,39)         25.1532         estimate D2E/DX2                !
 ! D178  D(19,21,38,42)        138.4132         estimate D2E/DX2                !
 ! D179  D(19,21,38,73)       -100.1935         estimate D2E/DX2                !
 ! D180  D(20,21,38,39)       -143.0046         estimate D2E/DX2                !
 ! D181  D(20,21,38,42)        -29.7446         estimate D2E/DX2                !
 ! D182  D(20,21,38,73)         91.6487         estimate D2E/DX2                !
 ! D183  D(9,22,23,20)          27.5734         estimate D2E/DX2                !
 ! D184  D(9,22,23,40)         143.9752         estimate D2E/DX2                !
 ! D185  D(9,22,23,72)         -93.6413         estimate D2E/DX2                !
 ! D186  D(24,22,23,20)       -127.5522         estimate D2E/DX2                !
 ! D187  D(24,22,23,40)        -11.1504         estimate D2E/DX2                !
 ! D188  D(24,22,23,72)        111.2331         estimate D2E/DX2                !
 ! D189  D(9,22,24,26)          -5.926          estimate D2E/DX2                !
 ! D190  D(9,22,24,41)        -150.9947         estimate D2E/DX2                !
 ! D191  D(23,22,24,26)        150.4284         estimate D2E/DX2                !
 ! D192  D(23,22,24,41)          5.3597         estimate D2E/DX2                !
 ! D193  D(20,23,40,41)        124.8082         estimate D2E/DX2                !
 ! D194  D(20,23,40,42)        -24.6106         estimate D2E/DX2                !
 ! D195  D(22,23,40,41)         13.588          estimate D2E/DX2                !
 ! D196  D(22,23,40,42)       -135.8308         estimate D2E/DX2                !
 ! D197  D(72,23,40,41)       -111.2254         estimate D2E/DX2                !
 ! D198  D(72,23,40,42)         99.3558         estimate D2E/DX2                !
 ! D199  D(22,24,26,25)         -4.2546         estimate D2E/DX2                !
 ! D200  D(22,24,26,44)       -142.0382         estimate D2E/DX2                !
 ! D201  D(41,24,26,25)        137.7656         estimate D2E/DX2                !
 ! D202  D(41,24,26,44)         -0.0179         estimate D2E/DX2                !
 ! D203  D(22,24,41,40)          3.3371         estimate D2E/DX2                !
 ! D204  D(22,24,41,43)        146.565          estimate D2E/DX2                !
 ! D205  D(26,24,41,40)       -142.4122         estimate D2E/DX2                !
 ! D206  D(26,24,41,43)          0.8157         estimate D2E/DX2                !
 ! D207  D(11,25,26,24)          9.6756         estimate D2E/DX2                !
 ! D208  D(11,25,26,44)        152.55           estimate D2E/DX2                !
 ! D209  D(28,25,26,24)       -139.5901         estimate D2E/DX2                !
 ! D210  D(28,25,26,44)          3.2842         estimate D2E/DX2                !
 ! D211  D(11,25,28,27)         -4.5174         estimate D2E/DX2                !
 ! D212  D(11,25,28,45)       -152.0058         estimate D2E/DX2                !
 ! D213  D(26,25,28,27)        144.1383         estimate D2E/DX2                !
 ! D214  D(26,25,28,45)         -3.3501         estimate D2E/DX2                !
 ! D215  D(24,26,44,45)        139.1197         estimate D2E/DX2                !
 ! D216  D(24,26,44,46)         -1.195          estimate D2E/DX2                !
 ! D217  D(25,26,44,45)         -1.9657         estimate D2E/DX2                !
 ! D218  D(25,26,44,46)       -142.2804         estimate D2E/DX2                !
 ! D219  D(13,27,28,25)         16.3575         estimate D2E/DX2                !
 ! D220  D(13,27,28,45)        159.3183         estimate D2E/DX2                !
 ! D221  D(30,27,28,25)       -137.7032         estimate D2E/DX2                !
 ! D222  D(30,27,28,45)          5.2577         estimate D2E/DX2                !
 ! D223  D(13,27,30,29)         -7.6282         estimate D2E/DX2                !
 ! D224  D(13,27,30,47)       -159.1922         estimate D2E/DX2                !
 ! D225  D(28,27,30,29)        145.0757         estimate D2E/DX2                !
 ! D226  D(28,27,30,47)         -6.4884         estimate D2E/DX2                !
 ! D227  D(25,28,45,44)          2.1293         estimate D2E/DX2                !
 ! D228  D(25,28,45,48)        145.8277         estimate D2E/DX2                !
 ! D229  D(27,28,45,44)       -144.6974         estimate D2E/DX2                !
 ! D230  D(27,28,45,48)         -0.999          estimate D2E/DX2                !
 ! D231  D(14,29,30,27)          6.515          estimate D2E/DX2                !
 ! D232  D(14,29,30,47)        157.0133         estimate D2E/DX2                !
 ! D233  D(31,29,30,27)       -145.377          estimate D2E/DX2                !
 ! D234  D(31,29,30,47)          5.1213         estimate D2E/DX2                !
 ! D235  D(14,29,31,34)        -11.7998         estimate D2E/DX2                !
 ! D236  D(14,29,31,49)       -154.6581         estimate D2E/DX2                !
 ! D237  D(30,29,31,34)        140.6198         estimate D2E/DX2                !
 ! D238  D(30,29,31,49)         -2.2385         estimate D2E/DX2                !
 ! D239  D(27,30,47,48)          3.9285         estimate D2E/DX2                !
 ! D240  D(27,30,47,50)        146.7997         estimate D2E/DX2                !
 ! D241  D(29,30,47,48)       -147.4144         estimate D2E/DX2                !
 ! D242  D(29,30,47,50)         -4.5432         estimate D2E/DX2                !
 ! D243  D(29,31,34,32)          2.9566         estimate D2E/DX2                !
 ! D244  D(29,31,34,51)       -140.1084         estimate D2E/DX2                !
 ! D245  D(49,31,34,32)        151.2791         estimate D2E/DX2                !
 ! D246  D(49,31,34,51)          8.2141         estimate D2E/DX2                !
 ! D247  D(29,31,49,50)         -1.5129         estimate D2E/DX2                !
 ! D248  D(29,31,49,54)        142.5922         estimate D2E/DX2                !
 ! D249  D(34,31,49,50)       -149.5822         estimate D2E/DX2                !
 ! D250  D(34,31,49,54)         -5.477          estimate D2E/DX2                !
 ! D251  D(16,32,33,18)         -1.2377         estimate D2E/DX2                !
 ! D252  D(16,32,33,36)       -143.6368         estimate D2E/DX2                !
 ! D253  D(34,32,33,18)        140.3396         estimate D2E/DX2                !
 ! D254  D(34,32,33,36)         -2.0595         estimate D2E/DX2                !
 ! D255  D(16,32,34,31)          7.7802         estimate D2E/DX2                !
 ! D256  D(16,32,34,51)        146.7637         estimate D2E/DX2                !
 ! D257  D(33,32,34,31)       -129.1379         estimate D2E/DX2                !
 ! D258  D(33,32,34,51)          9.8456         estimate D2E/DX2                !
 ! D259  D(18,33,36,35)         -5.7292         estimate D2E/DX2                !
 ! D260  D(18,33,36,52)       -145.727          estimate D2E/DX2                !
 ! D261  D(32,33,36,35)        132.9302         estimate D2E/DX2                !
 ! D262  D(32,33,36,52)         -7.0676         estimate D2E/DX2                !
 ! D263  D(31,34,51,52)        133.5053         estimate D2E/DX2                !
 ! D264  D(31,34,51,54)         -7.927          estimate D2E/DX2                !
 ! D265  D(32,34,51,52)         -8.5026         estimate D2E/DX2                !
 ! D266  D(32,34,51,54)       -149.9349         estimate D2E/DX2                !
 ! D267  D(19,35,36,33)         -5.7575         estimate D2E/DX2                !
 ! D268  D(19,35,36,52)        137.6961         estimate D2E/DX2                !
 ! D269  D(37,35,36,33)       -149.978          estimate D2E/DX2                !
 ! D270  D(37,35,36,52)         -6.5244         estimate D2E/DX2                !
 ! D271  D(19,35,37,39)          5.0429         estimate D2E/DX2                !
 ! D272  D(19,35,37,53)       -138.9291         estimate D2E/DX2                !
 ! D273  D(36,35,37,39)        149.5251         estimate D2E/DX2                !
 ! D274  D(36,35,37,53)          5.5532         estimate D2E/DX2                !
 ! D275  D(33,36,52,51)          8.3764         estimate D2E/DX2                !
 ! D276  D(33,36,52,53)        149.2233         estimate D2E/DX2                !
 ! D277  D(35,36,52,51)       -135.9355         estimate D2E/DX2                !
 ! D278  D(35,36,52,53)          4.9113         estimate D2E/DX2                !
 ! D279  D(35,37,39,38)          8.3734         estimate D2E/DX2                !
 ! D280  D(35,37,39,57)       -138.4575         estimate D2E/DX2                !
 ! D281  D(53,37,39,38)        147.1602         estimate D2E/DX2                !
 ! D282  D(53,37,39,57)          0.3293         estimate D2E/DX2                !
 ! D283  D(35,37,53,52)         -2.5435         estimate D2E/DX2                !
 ! D284  D(35,37,53,55)        140.0438         estimate D2E/DX2                !
 ! D285  D(39,37,53,52)       -145.5739         estimate D2E/DX2                !
 ! D286  D(39,37,53,55)         -2.9866         estimate D2E/DX2                !
 ! D287  D(21,38,39,37)        -23.2332         estimate D2E/DX2                !
 ! D288  D(21,38,39,57)        125.369          estimate D2E/DX2                !
 ! D289  D(42,38,39,37)       -142.3291         estimate D2E/DX2                !
 ! D290  D(42,38,39,57)          6.273          estimate D2E/DX2                !
 ! D291  D(73,38,39,37)         97.8977         estimate D2E/DX2                !
 ! D292  D(73,38,39,57)       -113.5001         estimate D2E/DX2                !
 ! D293  D(21,38,42,40)         23.5602         estimate D2E/DX2                !
 ! D294  D(21,38,42,58)       -126.8328         estimate D2E/DX2                !
 ! D295  D(39,38,42,40)        144.827          estimate D2E/DX2                !
 ! D296  D(39,38,42,58)         -5.566          estimate D2E/DX2                !
 ! D297  D(73,38,42,40)        -94.2013         estimate D2E/DX2                !
 ! D298  D(73,38,42,58)        115.4057         estimate D2E/DX2                !
 ! D299  D(37,39,57,58)        145.3777         estimate D2E/DX2                !
 ! D300  D(37,39,57,60)          1.7634         estimate D2E/DX2                !
 ! D301  D(38,39,57,58)         -4.756          estimate D2E/DX2                !
 ! D302  D(38,39,57,60)       -148.3703         estimate D2E/DX2                !
 ! D303  D(23,40,41,24)        -11.0323         estimate D2E/DX2                !
 ! D304  D(23,40,41,43)       -153.1952         estimate D2E/DX2                !
 ! D305  D(42,40,41,24)        139.5922         estimate D2E/DX2                !
 ! D306  D(42,40,41,43)         -2.5707         estimate D2E/DX2                !
 ! D307  D(23,40,42,38)          3.6921         estimate D2E/DX2                !
 ! D308  D(23,40,42,58)        151.4487         estimate D2E/DX2                !
 ! D309  D(41,40,42,38)       -143.5085         estimate D2E/DX2                !
 ! D310  D(41,40,42,58)          4.2481         estimate D2E/DX2                !
 ! D311  D(24,41,43,46)         -0.4422         estimate D2E/DX2                !
 ! D312  D(24,41,43,59)       -138.2028         estimate D2E/DX2                !
 ! D313  D(40,41,43,46)        137.2112         estimate D2E/DX2                !
 ! D314  D(40,41,43,59)         -0.5494         estimate D2E/DX2                !
 ! D315  D(38,42,58,57)          3.1552         estimate D2E/DX2                !
 ! D316  D(38,42,58,59)        148.4344         estimate D2E/DX2                !
 ! D317  D(40,42,58,57)       -148.2854         estimate D2E/DX2                !
 ! D318  D(40,42,58,59)         -3.0062         estimate D2E/DX2                !
 ! D319  D(41,43,46,44)         -0.7526         estimate D2E/DX2                !
 ! D320  D(41,43,46,61)       -142.0262         estimate D2E/DX2                !
 ! D321  D(59,43,46,44)        141.3994         estimate D2E/DX2                !
 ! D322  D(59,43,46,61)          0.1258         estimate D2E/DX2                !
 ! D323  D(41,43,59,58)          1.8446         estimate D2E/DX2                !
 ! D324  D(41,43,59,65)        144.3625         estimate D2E/DX2                !
 ! D325  D(46,43,59,58)       -141.2764         estimate D2E/DX2                !
 ! D326  D(46,43,59,65)          1.2415         estimate D2E/DX2                !
 ! D327  D(26,44,45,28)         -0.1088         estimate D2E/DX2                !
 ! D328  D(26,44,45,48)       -142.2348         estimate D2E/DX2                !
 ! D329  D(46,44,45,28)        140.4206         estimate D2E/DX2                !
 ! D330  D(46,44,45,48)         -1.7053         estimate D2E/DX2                !
 ! D331  D(26,44,46,43)          1.5425         estimate D2E/DX2                !
 ! D332  D(26,44,46,61)        139.1155         estimate D2E/DX2                !
 ! D333  D(45,44,46,43)       -133.9648         estimate D2E/DX2                !
 ! D334  D(45,44,46,61)          3.6082         estimate D2E/DX2                !
 ! D335  D(28,45,48,47)         -1.6362         estimate D2E/DX2                !
 ! D336  D(28,45,48,62)       -141.1507         estimate D2E/DX2                !
 ! D337  D(44,45,48,47)        136.8727         estimate D2E/DX2                !
 ! D338  D(44,45,48,62)         -2.6418         estimate D2E/DX2                !
 ! D339  D(43,46,61,62)        139.8614         estimate D2E/DX2                !
 ! D340  D(43,46,61,65)         -1.4322         estimate D2E/DX2                !
 ! D341  D(44,46,61,62)         -1.2114         estimate D2E/DX2                !
 ! D342  D(44,46,61,65)       -142.505          estimate D2E/DX2                !
 ! D343  D(30,47,48,45)          0.0305         estimate D2E/DX2                !
 ! D344  D(30,47,48,62)        142.8834         estimate D2E/DX2                !
 ! D345  D(50,47,48,45)       -147.8361         estimate D2E/DX2                !
 ! D346  D(50,47,48,62)         -4.9832         estimate D2E/DX2                !
 ! D347  D(30,47,50,49)          0.7181         estimate D2E/DX2                !
 ! D348  D(30,47,50,63)       -142.8769         estimate D2E/DX2                !
 ! D349  D(48,47,50,49)        148.6762         estimate D2E/DX2                !
 ! D350  D(48,47,50,63)          5.0813         estimate D2E/DX2                !
 ! D351  D(45,48,62,61)          5.0125         estimate D2E/DX2                !
 ! D352  D(45,48,62,63)        146.4507         estimate D2E/DX2                !
 ! D353  D(47,48,62,61)       -138.463          estimate D2E/DX2                !
 ! D354  D(47,48,62,63)          2.9752         estimate D2E/DX2                !
 ! D355  D(31,49,50,47)          2.3036         estimate D2E/DX2                !
 ! D356  D(31,49,50,63)        141.4995         estimate D2E/DX2                !
 ! D357  D(54,49,50,47)       -138.3349         estimate D2E/DX2                !
 ! D358  D(54,49,50,63)          0.8611         estimate D2E/DX2                !
 ! D359  D(31,49,54,51)          0.7271         estimate D2E/DX2                !
 ! D360  D(31,49,54,56)       -139.881          estimate D2E/DX2                !
 ! D361  D(50,49,54,51)        144.8317         estimate D2E/DX2                !
 ! D362  D(50,49,54,56)          4.2236         estimate D2E/DX2                !
 ! D363  D(47,50,63,62)         -3.345          estimate D2E/DX2                !
 ! D364  D(47,50,63,64)        138.01           estimate D2E/DX2                !
 ! D365  D(49,50,63,62)       -146.0814         estimate D2E/DX2                !
 ! D366  D(49,50,63,64)         -4.7263         estimate D2E/DX2                !
 ! D367  D(34,51,52,36)         -0.8007         estimate D2E/DX2                !
 ! D368  D(34,51,52,53)       -136.1421         estimate D2E/DX2                !
 ! D369  D(54,51,52,36)        135.7827         estimate D2E/DX2                !
 ! D370  D(54,51,52,53)          0.4413         estimate D2E/DX2                !
 ! D371  D(34,51,54,49)          4.3142         estimate D2E/DX2                !
 ! D372  D(34,51,54,56)        144.8113         estimate D2E/DX2                !
 ! D373  D(52,51,54,49)       -137.1494         estimate D2E/DX2                !
 ! D374  D(52,51,54,56)          3.3477         estimate D2E/DX2                !
 ! D375  D(36,52,53,37)         -1.4044         estimate D2E/DX2                !
 ! D376  D(36,52,53,55)       -144.3441         estimate D2E/DX2                !
 ! D377  D(51,52,53,37)        138.8776         estimate D2E/DX2                !
 ! D378  D(51,52,53,55)         -4.0621         estimate D2E/DX2                !
 ! D379  D(37,53,55,56)       -134.8672         estimate D2E/DX2                !
 ! D380  D(37,53,55,60)          3.4447         estimate D2E/DX2                !
 ! D381  D(52,53,55,56)          3.9225         estimate D2E/DX2                !
 ! D382  D(52,53,55,60)        142.2343         estimate D2E/DX2                !
 ! D383  D(49,54,56,55)        132.0781         estimate D2E/DX2                !
 ! D384  D(49,54,56,64)         -5.4433         estimate D2E/DX2                !
 ! D385  D(51,54,56,55)         -3.4744         estimate D2E/DX2                !
 ! D386  D(51,54,56,64)       -140.9958         estimate D2E/DX2                !
 ! D387  D(53,55,56,54)         -0.1795         estimate D2E/DX2                !
 ! D388  D(53,55,56,64)        142.0688         estimate D2E/DX2                !
 ! D389  D(60,55,56,54)       -142.1573         estimate D2E/DX2                !
 ! D390  D(60,55,56,64)          0.091          estimate D2E/DX2                !
 ! D391  D(53,55,60,57)         -1.4058         estimate D2E/DX2                !
 ! D392  D(53,55,60,66)       -144.3337         estimate D2E/DX2                !
 ! D393  D(56,55,60,57)        141.3829         estimate D2E/DX2                !
 ! D394  D(56,55,60,66)         -1.545          estimate D2E/DX2                !
 ! D395  D(54,56,64,63)          1.5661         estimate D2E/DX2                !
 ! D396  D(54,56,64,66)        143.3495         estimate D2E/DX2                !
 ! D397  D(55,56,64,63)       -140.3944         estimate D2E/DX2                !
 ! D398  D(55,56,64,66)          1.3889         estimate D2E/DX2                !
 ! D399  D(39,57,58,42)          0.942          estimate D2E/DX2                !
 ! D400  D(39,57,58,59)       -145.396          estimate D2E/DX2                !
 ! D401  D(60,57,58,42)        145.1836         estimate D2E/DX2                !
 ! D402  D(60,57,58,59)         -1.1544         estimate D2E/DX2                !
 ! D403  D(39,57,60,55)         -1.2516         estimate D2E/DX2                !
 ! D404  D(39,57,60,66)        136.9393         estimate D2E/DX2                !
 ! D405  D(58,57,60,55)       -140.4237         estimate D2E/DX2                !
 ! D406  D(58,57,60,66)         -2.2327         estimate D2E/DX2                !
 ! D407  D(42,58,59,43)         -0.1362         estimate D2E/DX2                !
 ! D408  D(42,58,59,65)       -137.7636         estimate D2E/DX2                !
 ! D409  D(57,58,59,43)        141.7528         estimate D2E/DX2                !
 ! D410  D(57,58,59,65)          4.1254         estimate D2E/DX2                !
 ! D411  D(43,59,65,61)         -2.1693         estimate D2E/DX2                !
 ! D412  D(43,59,65,66)       -145.0546         estimate D2E/DX2                !
 ! D413  D(58,59,65,61)        139.1634         estimate D2E/DX2                !
 ! D414  D(58,59,65,66)         -3.7219         estimate D2E/DX2                !
 ! D415  D(55,60,66,64)          2.4125         estimate D2E/DX2                !
 ! D416  D(55,60,66,65)        145.4512         estimate D2E/DX2                !
 ! D417  D(57,60,66,64)       -140.3959         estimate D2E/DX2                !
 ! D418  D(57,60,66,65)          2.6429         estimate D2E/DX2                !
 ! D419  D(46,61,62,48)         -3.1481         estimate D2E/DX2                !
 ! D420  D(46,61,62,63)       -139.5043         estimate D2E/DX2                !
 ! D421  D(65,61,62,48)        132.9831         estimate D2E/DX2                !
 ! D422  D(65,61,62,63)         -3.373          estimate D2E/DX2                !
 ! D423  D(46,61,65,59)          2.1921         estimate D2E/DX2                !
 ! D424  D(46,61,65,66)        145.0032         estimate D2E/DX2                !
 ! D425  D(62,61,65,59)       -139.6413         estimate D2E/DX2                !
 ! D426  D(62,61,65,66)          3.1698         estimate D2E/DX2                !
 ! D427  D(48,62,63,50)          0.2216         estimate D2E/DX2                !
 ! D428  D(48,62,63,64)       -140.9372         estimate D2E/DX2                !
 ! D429  D(61,62,63,50)        141.3382         estimate D2E/DX2                !
 ! D430  D(61,62,63,64)          0.1795         estimate D2E/DX2                !
 ! D431  D(50,63,64,56)          3.4977         estimate D2E/DX2                !
 ! D432  D(50,63,64,66)       -133.5852         estimate D2E/DX2                !
 ! D433  D(62,63,64,56)        140.267          estimate D2E/DX2                !
 ! D434  D(62,63,64,66)          3.1841         estimate D2E/DX2                !
 ! D435  D(56,64,66,60)         -2.3588         estimate D2E/DX2                !
 ! D436  D(56,64,66,65)       -145.183          estimate D2E/DX2                !
 ! D437  D(63,64,66,60)        139.4451         estimate D2E/DX2                !
[...]
              Bcc     0.0010     0.131     0.047     0.044  0.2740  0.1824  0.9443
 
              Baa    -0.0025    -0.341    -0.122    -0.114  0.7452  0.3903 -0.5407
    12 C(13)  Bbb    -0.0004    -0.056    -0.020    -0.019 -0.2311  0.9117  0.3396
              Bcc     0.0030     0.397     0.142     0.133  0.6255 -0.1281  0.7696
 
              Baa    -0.0018    -0.243    -0.087    -0.081  0.9233 -0.3768 -0.0741
    13 C(13)  Bbb    -0.0006    -0.083    -0.030    -0.028  0.3598  0.9162 -0.1764
              Bcc     0.0024     0.326     0.116     0.109  0.1344  0.1362  0.9815
 
              Baa    -0.0322    -4.317    -1.540    -1.440  0.5754  0.2242  0.7866
    14 C(13)  Bbb    -0.0305    -4.089    -1.459    -1.364  0.6811  0.4012 -0.6125
              Bcc     0.0626     8.406     2.999     2.804 -0.4529  0.8881  0.0782
 
              Baa    -0.1235   -16.571    -5.913    -5.528  0.7789 -0.1094  0.6175
    15 C(13)  Bbb    -0.1199   -16.088    -5.741    -5.366  0.2457  0.9592 -0.1400
              Bcc     0.2434    32.659    11.654    10.894 -0.5770  0.2608  0.7740
 
              Baa    -0.0214    -2.876    -1.026    -0.959  0.6585 -0.5202 -0.5439
    16 C(13)  Bbb     0.0062     0.835     0.298     0.279  0.7261  0.2489  0.6410
              Bcc     0.0152     2.041     0.728     0.681  0.1981  0.8169 -0.5416
 
              Baa    -0.0269    -3.605    -1.286    -1.202 -0.2471  0.8853  0.3940
    17 C(13)  Bbb    -0.0233    -3.125    -1.115    -1.042  0.9515  0.1449  0.2712
              Bcc     0.0502     6.730     2.401     2.245 -0.1830 -0.4419  0.8782
 
              Baa    -0.0906   -12.157    -4.338    -4.055 -0.4240 -0.0893  0.9012
    18 C(13)  Bbb     0.0420     5.630     2.009     1.878  0.2249  0.9536  0.2003
              Bcc     0.0486     6.526     2.329     2.177  0.8773 -0.2876  0.3843
 
              Baa    -0.0967   -12.970    -4.628    -4.326  0.0171 -0.6316  0.7751
    19 C(13)  Bbb     0.0424     5.695     2.032     1.900  0.9098 -0.3118 -0.2741
              Bcc     0.0542     7.274     2.596     2.426  0.4148  0.7098  0.5693
 
              Baa    -0.1035   -13.888    -4.956    -4.633  0.1049  0.8899 -0.4440
    20 C(13)  Bbb     0.0446     5.985     2.135     1.996 -0.2838  0.4547  0.8442
              Bcc     0.0589     7.903     2.820     2.636  0.9531  0.0375  0.3002
 
              Baa    -0.1308   -17.558    -6.265    -5.857  0.0696  0.5901  0.8044
    21 C(13)  Bbb    -0.1239   -16.632    -5.935    -5.548  0.9976 -0.0364 -0.0596
              Bcc     0.2548    34.189    12.200    11.404 -0.0059  0.8065 -0.5911
 
              Baa    -0.0089    -1.197    -0.427    -0.399 -0.5413  0.6553 -0.5268
    22 C(13)  Bbb    -0.0055    -0.742    -0.265    -0.247  0.7413  0.0763 -0.6668
              Bcc     0.0144     1.938     0.692     0.647  0.3968  0.7515  0.5271
 
              Baa    -0.0014    -0.183    -0.065    -0.061  0.3383 -0.5920  0.7315
    23 C(13)  Bbb    -0.0005    -0.072    -0.026    -0.024  0.8967  0.4386 -0.0597
              Bcc     0.0019     0.255     0.091     0.085 -0.2855  0.6761  0.6792
 
              Baa    -0.0053    -0.707    -0.252    -0.236  0.2506  0.7942  0.5536
    24 C(13)  Bbb     0.0018     0.243     0.087     0.081  0.9156 -0.3803  0.1310
              Bcc     0.0035     0.464     0.165     0.155 -0.3145 -0.4740  0.8224
 
              Baa    -0.0020    -0.268    -0.096    -0.089  0.2507  0.3564  0.9001
    25 C(13)  Bbb     0.0004     0.051     0.018     0.017  0.0375  0.9255 -0.3770
              Bcc     0.0016     0.217     0.077     0.072  0.9673 -0.1283 -0.2186
 
              Baa    -0.0078    -1.043    -0.372    -0.348  0.7495 -0.6541  0.1021
    26 C(13)  Bbb    -0.0072    -0.972    -0.347    -0.324  0.6163  0.6330 -0.4685
              Bcc     0.0150     2.015     0.719     0.672  0.2418  0.4141  0.8775
 
              Baa    -0.0054    -0.720    -0.257    -0.240  0.6599  0.7449  0.0982
    27 C(13)  Bbb    -0.0044    -0.584    -0.208    -0.195 -0.5279  0.3667  0.7660
              Bcc     0.0097     1.305     0.466     0.435  0.5346 -0.5573  0.6353
 
              Baa    -0.0029    -0.384    -0.137    -0.128  0.2738  0.9614 -0.0249
    28 C(13)  Bbb    -0.0018    -0.245    -0.087    -0.082 -0.5280  0.1719  0.8317
              Bcc     0.0047     0.628     0.224     0.210  0.8039 -0.2146  0.5547
 
              Baa    -0.0101    -1.353    -0.483    -0.451  0.4624  0.3835  0.7994
    29 C(13)  Bbb    -0.0087    -1.170    -0.418    -0.390  0.8026  0.2021 -0.5612
              Bcc     0.0188     2.523     0.900     0.841 -0.3769  0.9011 -0.2143
 
              Baa    -0.0022    -0.297    -0.106    -0.099  0.7506  0.4904  0.4429
    30 C(13)  Bbb    -0.0007    -0.089    -0.032    -0.030 -0.5302  0.0470  0.8466
              Bcc     0.0029     0.386     0.138     0.129 -0.3943  0.8702 -0.2953
 
              Baa    -0.0100    -1.336    -0.477    -0.446  0.7436  0.0749 -0.6645
    31 C(13)  Bbb    -0.0092    -1.240    -0.442    -0.414  0.6326  0.2433  0.7353
              Bcc     0.0192     2.576     0.919     0.859 -0.2168  0.9670 -0.1335
 
              Baa    -0.0124    -1.661    -0.593    -0.554 -0.1311  0.2142  0.9680
    32 C(13)  Bbb     0.0007     0.093     0.033     0.031  0.9892  0.0923  0.1135
              Bcc     0.0117     1.568     0.559     0.523 -0.0650  0.9724 -0.2240
 
              Baa    -0.0817   -10.958    -3.910    -3.655  0.8609  0.5043  0.0671
    33 C(13)  Bbb    -0.0768   -10.301    -3.675    -3.436 -0.4745  0.8435 -0.2517
              Bcc     0.1584    21.258     7.585     7.091 -0.1835  0.1848  0.9655
 
              Baa    -0.0297    -3.991    -1.424    -1.331  0.9980 -0.0110  0.0628
    34 C(13)  Bbb    -0.0270    -3.620    -1.292    -1.207 -0.0599 -0.4998  0.8641
              Bcc     0.0567     7.611     2.716     2.539 -0.0219  0.8661  0.4994
 
              Baa    -0.1758   -23.596    -8.420    -7.871  0.7568  0.6256  0.1896
    35 C(13)  Bbb    -0.1704   -22.869    -8.160    -7.628 -0.6457  0.6699  0.3665
              Bcc     0.3463    46.465    16.580    15.499  0.1022 -0.3998  0.9109
 
              Baa    -0.0821   -11.014    -3.930    -3.674  0.1184 -0.0390  0.9922
    36 C(13)  Bbb     0.0329     4.412     1.574     1.472  0.8903  0.4466 -0.0887
              Bcc     0.0492     6.602     2.356     2.202 -0.4396  0.8939  0.0876
 
              Baa    -0.0561    -7.534    -2.688    -2.513  0.3933 -0.3648  0.8439
    37 C(13)  Bbb     0.0213     2.856     1.019     0.953  0.2822  0.9215  0.2668
              Bcc     0.0349     4.678     1.669     1.561  0.8750 -0.1332 -0.4654
 
              Baa    -0.0075    -1.010    -0.360    -0.337  0.2933 -0.4674  0.8340
    38 C(13)  Bbb     0.0036     0.483     0.172     0.161  0.4416  0.8400  0.3154
              Bcc     0.0039     0.526     0.188     0.176  0.8479 -0.2758 -0.4528
 
              Baa    -0.0659    -8.840    -3.154    -2.949 -0.0500  0.6636  0.7464
    39 C(13)  Bbb    -0.0605    -8.114    -2.895    -2.707  0.8067  0.4675 -0.3616
              Bcc     0.1263    16.954     6.050     5.655  0.5889 -0.5840  0.5587
 
              Baa    -0.0027    -0.368    -0.131    -0.123  0.8313  0.4140 -0.3709
    40 C(13)  Bbb    -0.0010    -0.139    -0.050    -0.046  0.5154 -0.3244  0.7932
              Bcc     0.0038     0.508     0.181     0.169 -0.2080  0.8505  0.4830
 
              Baa    -0.0013    -0.169    -0.060    -0.056 -0.2505  0.8950  0.3691
    41 C(13)  Bbb     0.0001     0.012     0.004     0.004  0.9508  0.1556  0.2680
              Bcc     0.0012     0.157     0.056     0.052 -0.1824 -0.4181  0.8899
 
              Baa    -0.0063    -0.849    -0.303    -0.283  0.5634 -0.5838  0.5846
    42 C(13)  Bbb    -0.0023    -0.303    -0.108    -0.101  0.7621  0.6405 -0.0949
              Bcc     0.0086     1.152     0.411     0.384 -0.3190  0.4990  0.8058
 
              Baa    -0.0006    -0.086    -0.031    -0.029  0.9265  0.2097  0.3125
    43 C(13)  Bbb    -0.0001    -0.008    -0.003    -0.003 -0.1308  0.9581 -0.2550
              Bcc     0.0007     0.094     0.034     0.031 -0.3528  0.1954  0.9151
 
              Baa    -0.0067    -0.903    -0.322    -0.301  0.0652  0.0665  0.9957
    44 C(13)  Bbb     0.0031     0.409     0.146     0.137  0.9531  0.2914 -0.0819
              Bcc     0.0037     0.493     0.176     0.164 -0.2955  0.9543 -0.0444
 
              Baa    -0.0171    -2.288    -0.817    -0.763  0.2378  0.9279  0.2871
    45 C(13)  Bbb    -0.0162    -2.176    -0.776    -0.726  0.9658 -0.1943 -0.1717
              Bcc     0.0333     4.464     1.593     1.489  0.1036 -0.3181  0.9424
 
              Baa    -0.0039    -0.525    -0.187    -0.175  0.6047  0.7783  0.1693
    46 C(13)  Bbb    -0.0033    -0.447    -0.159    -0.149  0.6957 -0.6196  0.3635
              Bcc     0.0072     0.971     0.347     0.324 -0.3877  0.1020  0.9161
 
              Baa    -0.0021    -0.280    -0.100    -0.093  0.9006 -0.2501 -0.3554
    47 C(13)  Bbb    -0.0020    -0.265    -0.095    -0.089  0.4295  0.3875  0.8157
              Bcc     0.0041     0.545     0.195     0.182  0.0663  0.8873 -0.4564
 
              Baa    -0.0092    -1.233    -0.440    -0.411 -0.0502 -0.5997  0.7986
    48 C(13)  Bbb     0.0039     0.522     0.186     0.174 -0.5718  0.6729  0.4693
              Bcc     0.0053     0.711     0.254     0.237  0.8189  0.4331  0.3767
 
              Baa    -0.0046    -0.622    -0.222    -0.207  0.3423  0.9386  0.0421
    49 C(13)  Bbb     0.0013     0.171     0.061     0.057  0.7121 -0.2884  0.6401
              Bcc     0.0034     0.451     0.161     0.151 -0.6130  0.1891  0.7671
 
              Baa    -0.0082    -1.100    -0.393    -0.367  0.8432 -0.0018  0.5376
    50 C(13)  Bbb    -0.0078    -1.046    -0.373    -0.349 -0.4895  0.4109  0.7691
              Bcc     0.0160     2.147     0.766     0.716  0.2223  0.9117 -0.3456
 
              Baa    -0.0265    -3.553    -1.268    -1.185  0.2348  0.6991  0.6754
    51 C(13)  Bbb     0.0125     1.672     0.597     0.558  0.6569  0.3980 -0.6404
              Bcc     0.0140     1.881     0.671     0.628  0.7165 -0.5940  0.3658
 
              Baa    -0.0203    -2.723    -0.971    -0.908 -0.4990 -0.6109  0.6146
    52 C(13)  Bbb    -0.0184    -2.468    -0.881    -0.823  0.7850 -0.6192  0.0220
              Bcc     0.0387     5.191     1.852     1.732  0.3671  0.4934  0.7885
 
              Baa    -0.0141    -1.889    -0.674    -0.630 -0.2286  0.9542  0.1931
    53 C(13)  Bbb    -0.0134    -1.796    -0.641    -0.599 -0.5688 -0.2919  0.7690
              Bcc     0.0275     3.685     1.315     1.229  0.7901  0.0659  0.6094
 
              Baa    -0.0021    -0.283    -0.101    -0.094 -0.4686  0.4194  0.7775
    54 C(13)  Bbb    -0.0011    -0.148    -0.053    -0.049  0.4976 -0.6019  0.6246
              Bcc     0.0032     0.431     0.154     0.144  0.7300  0.6795  0.0734
 
              Baa    -0.0182    -2.449    -0.874    -0.817  0.8807  0.0760  0.4675
    55 C(13)  Bbb     0.0086     1.149     0.410     0.383  0.1496  0.8919 -0.4268
              Bcc     0.0097     1.300     0.464     0.434 -0.4494  0.4458  0.7741
 
              Baa    -0.0122    -1.631    -0.582    -0.544  0.7827  0.5788  0.2288
    56 C(13)  Bbb     0.0059     0.786     0.280     0.262 -0.3600  0.7209 -0.5923
              Bcc     0.0063     0.845     0.302     0.282 -0.5078  0.3812  0.7726
 
              Baa    -0.0271    -3.639    -1.298    -1.214  0.8209 -0.4674  0.3280
    57 C(13)  Bbb     0.0101     1.351     0.482     0.451  0.1393  0.7210  0.6788
              Bcc     0.0170     2.288     0.816     0.763 -0.5538 -0.5115  0.6570
 
              Baa    -0.0160    -2.146    -0.766    -0.716  0.5828  0.6590  0.4755
    58 C(13)  Bbb    -0.0139    -1.861    -0.664    -0.621 -0.2737 -0.3917  0.8784
              Bcc     0.0299     4.007     1.430     1.337  0.7651 -0.6421 -0.0479
 
              Baa    -0.0123    -1.646    -0.587    -0.549  0.8185 -0.4670 -0.3347
    59 C(13)  Bbb     0.0048     0.641     0.229     0.214  0.5517  0.4765  0.6845
              Bcc     0.0075     1.005     0.359     0.335  0.1602  0.7449 -0.6477
 
              Baa    -0.0264    -3.544    -1.264    -1.182 -0.0104  0.9220  0.3871
    60 C(13)  Bbb    -0.0247    -3.316    -1.183    -1.106 -0.1683 -0.3832  0.9082
              Bcc     0.0511     6.859     2.447     2.288  0.9857 -0.0558  0.1592
 
              Baa    -0.0140    -1.885    -0.673    -0.629 -0.6561 -0.1385  0.7419
    61 C(13)  Bbb     0.0060     0.804     0.287     0.268  0.4305  0.7387  0.5186
              Bcc     0.0081     1.081     0.386     0.361 -0.6199  0.6596 -0.4251
 
              Baa    -0.0140    -1.883    -0.672    -0.628 -0.0276  0.8390  0.5434
    62 C(13)  Bbb    -0.0133    -1.787    -0.638    -0.596  0.8907 -0.2261  0.3943
              Bcc     0.0274     3.670     1.310     1.224 -0.4537 -0.4949  0.7411
 
              Baa    -0.0135    -1.814    -0.647    -0.605  0.5598  0.7001 -0.4433
    63 C(13)  Bbb     0.0065     0.875     0.312     0.292  0.7424 -0.1861  0.6436
              Bcc     0.0070     0.938     0.335     0.313 -0.3681  0.6894  0.6239
 
              Baa    -0.0049    -0.659    -0.235    -0.220  0.0864  0.2898  0.9532
    64 C(13)  Bbb    -0.0048    -0.639    -0.228    -0.213 -0.5689  0.7998 -0.1916
              Bcc     0.0097     1.298     0.463     0.433  0.8179  0.5257 -0.2340
 
              Baa    -0.0230    -3.085    -1.101    -1.029  0.3795  0.7143  0.5880
    65 C(13)  Bbb    -0.0216    -2.903    -1.036    -0.968 -0.3176  0.6975 -0.6424
              Bcc     0.0446     5.988     2.137     1.997  0.8690 -0.0571 -0.4915
 
              Baa    -0.0195    -2.622    -0.936    -0.875  0.9764  0.0732 -0.2030
    66 C(13)  Bbb     0.0087     1.166     0.416     0.389 -0.0802  0.9964 -0.0265
              Bcc     0.0108     1.456     0.519     0.486  0.2003  0.0422  0.9788
 
              Baa    -0.0742    -3.883    -1.385    -1.295 -0.3620  0.0645  0.9299
    67 Cl(35) Bbb    -0.0675    -3.531    -1.260    -1.178 -0.5154  0.8174 -0.2574
              Bcc     0.1417     7.414     2.646     2.473  0.7767  0.5725  0.2626
 
              Baa    -0.0123    -0.646    -0.230    -0.215  0.3364  0.8762  0.3451
    68 Cl(35) Bbb    -0.0079    -0.415    -0.148    -0.138 -0.6258 -0.0658  0.7772
              Bcc     0.0203     1.061     0.379     0.354  0.7037 -0.4774  0.5262
 
              Baa    -0.0505    -2.642    -0.943    -0.881  0.8745 -0.4191  0.2443
    69 Cl(35) Bbb     0.0220     1.149     0.410     0.383  0.4826  0.7010 -0.5250
              Bcc     0.0285     1.493     0.533     0.498  0.0487  0.5770  0.8153
 
              Baa    -0.0159    -0.832    -0.297    -0.277  0.4386  0.7865 -0.4349
    70 Cl(35) Bbb    -0.0093    -0.489    -0.174    -0.163 -0.3303  0.5911  0.7359
              Bcc     0.0252     1.320     0.471     0.440  0.8358 -0.1791  0.5190
 
              Baa    -0.0494    -2.587    -0.923    -0.863 -0.0641  0.7671 -0.6384
    71 Cl(35) Bbb    -0.0398    -2.083    -0.743    -0.695  0.7090 -0.4152 -0.5701
              Bcc     0.0892     4.670     1.666     1.558  0.7023  0.4891  0.5172
 
              Baa    -0.0569    -2.978    -1.063    -0.993 -0.0363  0.8837  0.4666
    72 Cl(35) Bbb     0.0222     1.162     0.415     0.388  0.9288 -0.1425  0.3421
              Bcc     0.0347     1.816     0.648     0.606 -0.3688 -0.4458  0.8156
 
              Baa    -0.1621    -8.484    -3.027    -2.830 -0.2982  0.1588  0.9412
    73 Cl(35) Bbb    -0.1469    -7.689    -2.744    -2.565  0.8412  0.5097  0.1805
              Bcc     0.3090    16.173     5.771     5.395 -0.4511  0.8455 -0.2856
 

 ---------------------------------------------------------------------------------

 No NMR shielding tensors so no spin-rotation constants.
 Leave Link  601 at Fri Jul 15 03:55:49 2022, MaxMem=  1342177280 cpu:             113.0 elap:               2.6
 (Enter /home/mkliu/g16/l9999.exe)
 1\1\GINC-NODE02\FOpt\UB3LYP\6-311G(d,p)\C66Cl7(2)\MKLIU\15-Jul-2022\0\
 \#P opt b3lyp/6-311G(d, p) empiricaldispersion=GD3\\force\\0,2\C,-1.32
 79233116,1.8933185195,-4.005142282\C,0.2152841067,2.2450132153,-3.9985
 305719\C,1.001125576,0.9017410502,-4.4053441324\C,-1.2748004247,0.4194
 532476,-3.8857974683\C,-0.0451693695,-0.1290016042,-4.1306287666\C,-2.
 1597544846,-0.1205097936,-2.9355242368\C,-2.2240544767,2.2909877113,-2
 .7138275539\C,-2.7102764836,0.9243536483,-2.1751024831\C,-1.4746131266
 ,2.9344827091,-1.5553181116\C,0.7047687274,2.4719386103,-2.6139318374\
 C,-0.0525695465,3.1267769056,-1.5971779625\C,2.2046119445,0.7548865628
 ,-3.3379000211\C,1.8521285773,1.7857393817,-2.3169723486\C,2.332031441
 8,-0.5941785099,-2.6033398957\C,0.229521713,-1.3737847926,-3.602313935
 1\C,1.5194100965,-1.6599807298,-2.9708572044\C,-1.9357027014,-1.415299
 6362,-2.4007995087\C,-0.7720118824,-2.0906579202,-2.8786144299\C,-2.45
 37700149,-1.7041811162,-1.0836797926\C,-3.103712858,0.6876645093,-0.85
 46545779\C,-3.0501936412,-0.627383433,-0.3256376155\C,-2.0950704892,2.
 9025567766,-0.319394628\C,-3.2269578907,1.9189101643,0.039800403\C,-1.
 3881648941,3.2393320959,0.8706129352\C,0.649142682,3.3887185227,-0.412
 1679997\C,-0.0299939779,3.5473053055,0.8340601138\C,2.4430457581,1.808
 0045014,-1.0219225508\C,1.9277839226,2.7721182324,-0.1439694384\C,2.96
 74360327,-0.6236575073,-1.2907618218\C,3.1032562946,0.6168212555,-0.50
 81046919\C,2.935591124,-1.8416520122,-0.5621076752\C,1.3086811912,-2.7
 809713856,-2.0998979529\C,-0.1127392447,-3.0523194979,-2.0505286282\C,
 2.0657247927,-2.9194780606,-0.9543963312\C,-1.9196519464,-2.8455324974
 ,-0.4054181435\C,-0.707024822,-3.4625746825,-0.8677489563\C,-1.9055717
 045,-2.9116675634,1.0436327835\C,-3.3733656136,-0.8566895687,1.1515865
 786\C,-2.5191464825,-1.9389346692,1.7910209045\C,-2.9095174206,1.60228
 31256,1.4852578105\C,-1.9176494105,2.4976773536,1.9926010524\C,-3.0222
 57744,0.3486574164,2.0060759872\C,-1.0880474843,2.1288704246,3.0517752
 821\C,0.8456667664,3.1086259586,1.9005453212\C,2.0647080697,2.64097782
 57,1.2795232853\C,0.3318224165,2.4367372541,3.0023367892\C,3.280673680
 3,0.5408324231,0.8888906962\C,2.7419365293,1.5458312198,1.787268335\C,
 3.0292730203,-1.8834372785,0.8813454664\C,3.2245063723,-0.7199439891,1
 .5953676115\C,1.4879470002,-3.5089201051,0.2413086627\C,0.1209821413,-
 3.7811026289,0.283621628\C,-0.6399200953,-3.4729104316,1.4698065462\C,
 2.1289832996,-2.904182512,1.3863970517\C,-0.0041640243,-2.9761089721,2
 .6071075386\C,1.4156902387,-2.6789086825,2.5602507353\C,-1.8894168516,
 -1.4536389097,2.9770976196\C,-2.1897398855,-0.0457577319,3.105173012\C
 ,-1.2386329258,0.8265127022,3.6382946896\C,-0.6489327834,-1.9533128985
 ,3.3905838948\C,1.0529406228,1.3137163212,3.5640507085\C,2.2549641582,
 0.8927029809,2.9832018473\C,2.550837216,-0.5156894129,2.8645626836\C,1
 .6397429371,-1.4651313873,3.3252964666\C,0.0807624705,0.3250298105,3.9
 873465059\C,0.3672819693,-1.0319728445,3.8662718605\Cl,-2.0957554982,2
 .3002889036,-5.593832353\Cl,0.656505271,3.7123173109,-4.9557695231\Cl,
 1.4992227443,0.8011922665,-6.1288748303\Cl,3.8524624967,1.1362354606,-
 4.0601485511\Cl,-3.6073604524,3.3958097397,-3.1460769891\Cl,-4.9247213
 088,2.6360239455,-0.0454279035\Cl,-5.1852283298,-1.2873120516,1.290962
 3464\\Version=ES64L-G16RevA.03\State=2-A\HF=-5736.999567\S2=0.795521\S
 2-1=0.\S2A=0.751846\RMSD=5.245e-09\RMSF=3.831e-05\Dipole=0.9277011,-0.
 8722161,1.3493653\Quadrupole=-7.1767679,7.6532052,-0.4764373,0.2804173
 ,6.3306383,6.0422735\PG=C01 [X(C66Cl7)]\\@


 HE THAT WALD REACHE THE SWEITE ROSE
 SULD NOW AND THEN BE SCRATCHED WT THE SCHARPE BREERES.
 -- PROVERBS AND REASONS OF THE YEAR 1585
           AS REPRINTED IN PAISLEY MAGAZINE 1828.
 Job cpu time:       4 days  9 hours 16 minutes 14.2 seconds.
 Elapsed time:       0 days  2 hours 11 minutes 48.2 seconds.
 File lengths (MBytes):  RWF=   2038 Int=      0 D2E=      0 Chk=    184 Scr=      1
 Normal termination of Gaussian 16 at Fri Jul 15 03:55:51 2022.
