 Entering Gaussian System, Link 0=g16
 Input=dr1gmkol3wj5s_addon_6.gjf
 Output=dr1gmkol3wj5s_addon_6.log
 Initial command:
 /home/mkliu/g16/l1.exe "/data/scratch/Gau-7044.inp" -scrdir="/data/scratch/"
 Entering Link 1 = /home/mkliu/g16/l1.exe PID=      7045.
  
 Copyright (c) 1988,1990,1992,1993,1995,1998,2003,2009,2016,
            Gaussian, Inc.  All Rights Reserved.
  
 This is part of the Gaussian(R) 16 program.  It is based on
 the Gaussian(R) 09 system (copyright 2009, Gaussian, Inc.),
 the Gaussian(R) 03 system (copyright 2003, Gaussian, Inc.),
 the Gaussian(R) 98 system (copyright 1998, Gaussian, Inc.),
 the Gaussian(R) 94 system (copyright 1995, Gaussian, Inc.),
 the Gaussian 92(TM) system (copyright 1992, Gaussian, Inc.),
 the Gaussian 90(TM) system (copyright 1990, Gaussian, Inc.),
 the Gaussian 88(TM) system (copyright 1988, Gaussian, Inc.),
 the Gaussian 86(TM) system (copyright 1986, Carnegie Mellon
 University), and the Gaussian 82(TM) system (copyright 1983,
 Carnegie Mellon University). Gaussian is a federally registered
 trademark of Gaussian, Inc.
  
 This software contains proprietary and confidential information,
 including trade secrets, belonging to Gaussian, Inc.
  
 This software is provided under written license and may be
 used, copied, transmitted, or stored only in accord with that
 written license.
  
 The following legend is applicable only to US Government
 contracts under FAR:
  
                    RESTRICTED RIGHTS LEGEND
  
 Use, reproduction and disclosure by the US Government is
 subject to restrictions as set forth in subparagraphs (a)
 and (c) of the Commercial Computer Software - Restricted
 Rights clause in FAR 52.227-19.
  
 Gaussian, Inc.
 340 Quinnipiac St., Bldg. 40, Wallingford CT 06492
  
  
 ---------------------------------------------------------------
 Warning -- This program may not be used in any manner that
 competes with the business of Gaussian, Inc. or will provide
 assistance to any competitor of Gaussian, Inc.  The licensee
 of this program is prohibited from giving any competitor of
 Gaussian, Inc. access to this program.  By using this program,
 the user acknowledges that Gaussian, Inc. is engaged in the
 business of creating and licensing software in the field of
 computational chemistry and represents and warrants to the
 licensee that it is not a competitor of Gaussian, Inc. and that
 it will not use this program in any manner prohibited above.
 ---------------------------------------------------------------
  

 Cite this work as:
 Gaussian 16, Revision A.03,
 M. J. Frisch, G. W. Trucks, H. B. Schlegel, G. E. Scuseria, 
 M. A. Robb, J. R. Cheeseman, G. Scalmani, V. Barone, 
 G. A. Petersson, H. Nakatsuji, X. Li, M. Caricato, A. V. Marenich, 
 J. Bloino, B. G. Janesko, R. Gomperts, B. Mennucci, H. P. Hratchian, 
 J. V. Ortiz, A. F. Izmaylov, J. L. Sonnenberg, D. Williams-Young, 
 F. Ding, F. Lipparini, F. Egidi, J. Goings, B. Peng, A. Petrone, 
 T. Henderson, D. Ranasinghe, V. G. Zakrzewski, J. Gao, N. Rega, 
 G. Zheng, W. Liang, M. Hada, M. Ehara, K. Toyota, R. Fukuda, 
 J. Hasegawa, M. Ishida, T. Nakajima, Y. Honda, O. Kitao, H. Nakai, 
 T. Vreven, K. Throssell, J. A. Montgomery, Jr., J. E. Peralta, 
 F. Ogliaro, M. J. Bearpark, J. J. Heyd, E. N. Brothers, K. N. Kudin, 
 V. N. Staroverov, T. A. Keith, R. Kobayashi, J. Normand, 
 K. Raghavachari, A. P. Rendell, J. C. Burant, S. S. Iyengar, 
 J. Tomasi, M. Cossi, J. M. Millam, M. Klene, C. Adamo, R. Cammi, 
 J. W. Ochterski, R. L. Martin, K. Morokuma, O. Farkas, 
 J. B. Foresman, and D. J. Fox, Gaussian, Inc., Wallingford CT, 2016.
 
 ******************************************
 Gaussian 16:  ES64L-G16RevA.03 25-Dec-2016
                15-Jul-2022 
 ******************************************
 %mem=10GB
 %chk=dr1gmkol3wj5s_addon_6.chk
 %nprocshared=48
 Will use up to   48 processors via shared memory.
 -------------------------------------------------
 #P opt b3lyp/6-311G(d, p) empiricaldispersion=GD3
 -------------------------------------------------
 1/18=20,19=15,26=3,38=1/1,3;
 2/9=110,12=2,17=6,18=5,40=1/2;
 3/5=4,6=6,7=101,11=2,25=1,30=1,71=1,74=-5,124=31/1,2,3;
 4//1;
 5/5=2,38=5/2;
 6/7=2,8=2,9=2,10=2,28=1/1;
 7//1,2,3,16;
 1/18=20,19=15,26=3/3(2);
 2/9=110/2;
 99//99;
 2/9=110/2;
 3/5=4,6=6,7=101,11=2,25=1,30=1,71=1,74=-5,124=31/1,2,3;
 4/5=5,16=3,69=1/1;
 5/5=2,38=5/2;
 7//1,2,3,16;
 1/18=20,19=15,26=3/3(-5);
 2/9=110/2;
 6/7=2,8=2,9=2,10=2,19=2,28=1/1;
 99/9=1/99;
 Leave Link    1 at Fri Jul 15 07:56:48 2022, MaxMem=  1342177280 cpu:               2.1 elap:               0.1
 (Enter /home/mkliu/g16/l101.exe)
 -----
 force
 -----
 Symbolic Z-matrix:
 Charge =  0 Multiplicity = 1
 C                    -1.33076   1.8822   -3.96487 
 C                     0.19673   2.21171  -3.96009 
 C                     0.99785   0.90988  -4.34272 
 C                    -1.28383   0.40949  -3.84855 
 C                    -0.03638  -0.12142  -4.08236 
 C                    -2.13455  -0.12583  -2.89441 
 C                    -2.20664   2.2691   -2.73032 
 C                    -2.70437   0.93819  -2.14507 
 C                    -1.48819   2.8808   -1.55645 
 C                     0.67756   2.42884  -2.58589 
 C                    -0.0704    3.07776  -1.58018 
 C                     2.1865    0.75005  -3.30506 
 C                     1.83879   1.78049  -2.29164 
 C                     2.32112  -0.5855   -2.60194 
 C                     0.22071  -1.34936  -3.54917 
 C                     1.52227  -1.64689  -2.94927 
 C                    -1.92762  -1.40548  -2.35572 
 C                    -0.76746  -2.05266  -2.81987 
 C                    -2.45649  -1.6899   -1.05085 
 C                    -3.11628   0.71499  -0.86295 
 C                    -3.06542  -0.62519  -0.29491 
 C                    -2.10225   2.84812  -0.33285 
 C                    -3.24268   1.91702   0.04163 
 C                    -1.39704   3.20548   0.8631 
 C                     0.62472   3.30886  -0.40853 
 C                    -0.04987   3.47938   0.83125 
 C                     2.43785   1.79156  -1.0138 
 C                     1.89251   2.71567  -0.13743 
 C                     2.97054  -0.62248  -1.29598 
 C                     3.09126   0.59857  -0.52488 
 C                     2.91582  -1.82469  -0.57432 
 C                     1.31073  -2.76685  -2.08485 
 C                    -0.10244  -3.02433  -2.01861 
 C                     2.05633  -2.90692  -0.94586 
 C                    -1.8997   -2.79866  -0.38573 
 C                    -0.69297  -3.44003  -0.85159 
 C                    -1.89387  -2.8869    1.03186 
 C                    -3.13168  -0.78605   1.0951 
 C                    -2.51244  -1.88513   1.75593 
 C                    -2.92964   1.62674   1.47316 
 C                    -1.93391   2.50179   1.98713 
 C                    -3.01409   0.36622   1.98477 
 C                    -1.09396   2.11364   3.02878 
 C                     0.82249   3.06734   1.88754 
 C                     2.03349   2.59433   1.27008 
 C                     0.31099   2.40557   2.98189 
 C                     3.24933   0.52078   0.86773 
 C                     2.71989   1.51305   1.76298 
 C                     3.01041  -1.88007   0.85699 
 C                     3.19538  -0.72453   1.57139 
 C                     1.48323  -3.49861   0.23749 
 C                     0.1264   -3.77343   0.28011 
 C                    -0.64089  -3.45665   1.45037 
 C                     2.12025  -2.89547   1.36901 
 C                    -0.01108  -2.94371   2.56728 
 C                     1.39712  -2.65715   2.52486 
 C                    -1.9019   -1.42788   2.97684 
 C                    -2.19905  -0.03079   3.10001 
 C                    -1.23659   0.8197    3.61444 
 C                    -0.66354  -1.92214   3.34556 
 C                     1.0469    1.29288   3.53198 
 C                     2.23642   0.87387   2.9565 
 C                     2.53095  -0.52      2.83409 
 C                     1.61532  -1.45519   3.28241 
 C                     0.07494   0.32349   3.95103 
 C                     0.35559  -1.02554   3.82443 
 Cl                   -2.0343    2.37478  -5.53114 
 Cl                    0.58491   3.64482  -4.94835 
 Cl                    1.53671   0.87422  -6.03007 
 Cl                    3.77794   1.144    -4.07147 
 Cl                   -3.58632   3.33396  -3.16027 
 Cl                   -4.88789   2.63775  -0.17791 
 
 ITRead=  0  0  0  0  0  0  0  0  0  0  0  0  0  0  0  0  0  0  0  0
 ITRead=  0  0  0  0  0  0  0  0  0  0  0  0  0  0  0  0  0  0  0  0
 ITRead=  0  0  0  0  0  0  0  0  0  0  0  0  0  0  0  0  0  0  0  0
 ITRead=  0  0  0  0  0  0  0  0  0  0  0  0
 MicOpt= -1 -1 -1 -1 -1 -1 -1 -1 -1 -1 -1 -1 -1 -1 -1 -1 -1 -1 -1 -1
 MicOpt= -1 -1 -1 -1 -1 -1 -1 -1 -1 -1 -1 -1 -1 -1 -1 -1 -1 -1 -1 -1
 MicOpt= -1 -1 -1 -1 -1 -1 -1 -1 -1 -1 -1 -1 -1 -1 -1 -1 -1 -1 -1 -1
 MicOpt= -1 -1 -1 -1 -1 -1 -1 -1 -1 -1 -1 -1
 NAtoms=     72 NQM=       72 NQMF=       0 NMMI=      0 NMMIF=      0
                NMic=       0 NMicF=      0.
                    Isotopes and Nuclear Properties:
 (Nuclear quadrupole moments (NQMom) in fm**2, nuclear magnetic moments (NMagM)
  in nuclear magnetons)

  Atom         1           2           3           4           5           6           7           8           9          10
 IAtWgt=          12          12          12          12          12          12          12          12          12          12
 AtmWgt=  12.0000000  12.0000000  12.0000000  12.0000000  12.0000000  12.0000000  12.0000000  12.0000000  12.0000000  12.0000000
 NucSpn=           0           0           0           0           0           0           0           0           0           0
 AtZEff=  -0.0000000  -0.0000000  -0.0000000  -0.0000000  -0.0000000  -0.0000000  -0.0000000  -0.0000000  -0.0000000  -0.0000000
 NQMom=    0.0000000   0.0000000   0.0000000   0.0000000   0.0000000   0.0000000   0.0000000   0.0000000   0.0000000   0.0000000
 NMagM=    0.0000000   0.0000000   0.0000000   0.0000000   0.0000000   0.0000000   0.0000000   0.0000000   0.0000000   0.0000000
 AtZNuc=   6.0000000   6.0000000   6.0000000   6.0000000   6.0000000   6.0000000   6.0000000   6.0000000   6.0000000   6.0000000

  Atom        11          12          13          14          15          16          17          18          19          20
 IAtWgt=          12          12          12          12          12          12          12          12          12          12
 AtmWgt=  12.0000000  12.0000000  12.0000000  12.0000000  12.0000000  12.0000000  12.0000000  12.0000000  12.0000000  12.0000000
 NucSpn=           0           0           0           0           0           0           0           0           0           0
 AtZEff=  -0.0000000  -0.0000000  -0.0000000  -0.0000000  -0.0000000  -0.0000000  -0.0000000  -0.0000000  -0.0000000  -0.0000000
 NQMom=    0.0000000   0.0000000   0.0000000   0.0000000   0.0000000   0.0000000   0.0000000   0.0000000   0.0000000   0.0000000
 NMagM=    0.0000000   0.0000000   0.0000000   0.0000000   0.0000000   0.0000000   0.0000000   0.0000000   0.0000000   0.0000000
 AtZNuc=   6.0000000   6.0000000   6.0000000   6.0000000   6.0000000   6.0000000   6.0000000   6.0000000   6.0000000   6.0000000

  Atom        21          22          23          24          25          26          27          28          29          30
 IAtWgt=          12          12          12          12          12          12          12          12          12          12
 AtmWgt=  12.0000000  12.0000000  12.0000000  12.0000000  12.0000000  12.0000000  12.0000000  12.0000000  12.0000000  12.0000000
 NucSpn=           0           0           0           0           0           0           0           0           0           0
 AtZEff=  -0.0000000  -0.0000000  -0.0000000  -0.0000000  -0.0000000  -0.0000000  -0.0000000  -0.0000000  -0.0000000  -0.0000000
 NQMom=    0.0000000   0.0000000   0.0000000   0.0000000   0.0000000   0.0000000   0.0000000   0.0000000   0.0000000   0.0000000
 NMagM=    0.0000000   0.0000000   0.0000000   0.0000000   0.0000000   0.0000000   0.0000000   0.0000000   0.0000000   0.0000000
 AtZNuc=   6.0000000   6.0000000   6.0000000   6.0000000   6.0000000   6.0000000   6.0000000   6.0000000   6.0000000   6.0000000

  Atom        31          32          33          34          35          36          37          38          39          40
 IAtWgt=          12          12          12          12          12          12          12          12          12          12
 AtmWgt=  12.0000000  12.0000000  12.0000000  12.0000000  12.0000000  12.0000000  12.0000000  12.0000000  12.0000000  12.0000000
 NucSpn=           0           0           0           0           0           0           0           0           0           0
 AtZEff=  -0.0000000  -0.0000000  -0.0000000  -0.0000000  -0.0000000  -0.0000000  -0.0000000  -0.0000000  -0.0000000  -0.0000000
 NQMom=    0.0000000   0.0000000   0.0000000   0.0000000   0.0000000   0.0000000   0.0000000   0.0000000   0.0000000   0.0000000
 NMagM=    0.0000000   0.0000000   0.0000000   0.0000000   0.0000000   0.0000000   0.0000000   0.0000000   0.0000000   0.0000000
 AtZNuc=   6.0000000   6.0000000   6.0000000   6.0000000   6.0000000   6.0000000   6.0000000   6.0000000   6.0000000   6.0000000

  Atom        41          42          43          44          45          46          47          48          49          50
 IAtWgt=          12          12          12          12          12          12          12          12          12          12
 AtmWgt=  12.0000000  12.0000000  12.0000000  12.0000000  12.0000000  12.0000000  12.0000000  12.0000000  12.0000000  12.0000000
 NucSpn=           0           0           0           0           0           0           0           0           0           0
 AtZEff=  -0.0000000  -0.0000000  -0.0000000  -0.0000000  -0.0000000  -0.0000000  -0.0000000  -0.0000000  -0.0000000  -0.0000000
 NQMom=    0.0000000   0.0000000   0.0000000   0.0000000   0.0000000   0.0000000   0.0000000   0.0000000   0.0000000   0.0000000
 NMagM=    0.0000000   0.0000000   0.0000000   0.0000000   0.0000000   0.0000000   0.0000000   0.0000000   0.0000000   0.0000000
 AtZNuc=   6.0000000   6.0000000   6.0000000   6.0000000   6.0000000   6.0000000   6.0000000   6.0000000   6.0000000   6.0000000

  Atom        51          52          53          54          55          56          57          58          59          60
 IAtWgt=          12          12          12          12          12          12          12          12          12          12
 AtmWgt=  12.0000000  12.0000000  12.0000000  12.0000000  12.0000000  12.0000000  12.0000000  12.0000000  12.0000000  12.0000000
 NucSpn=           0           0           0           0           0           0           0           0           0           0
 AtZEff=  -0.0000000  -0.0000000  -0.0000000  -0.0000000  -0.0000000  -0.0000000  -0.0000000  -0.0000000  -0.0000000  -0.0000000
 NQMom=    0.0000000   0.0000000   0.0000000   0.0000000   0.0000000   0.0000000   0.0000000   0.0000000   0.0000000   0.0000000
 NMagM=    0.0000000   0.0000000   0.0000000   0.0000000   0.0000000   0.0000000   0.0000000   0.0000000   0.0000000   0.0000000
 AtZNuc=   6.0000000   6.0000000   6.0000000   6.0000000   6.0000000   6.0000000   6.0000000   6.0000000   6.0000000   6.0000000

  Atom        61          62          63          64          65          66          67          68          69          70
 IAtWgt=          12          12          12          12          12          12          35          35          35          35
 AtmWgt=  12.0000000  12.0000000  12.0000000  12.0000000  12.0000000  12.0000000  34.9688527  34.9688527  34.9688527  34.9688527
 NucSpn=           0           0           0           0           0           0           3           3           3           3
 AtZEff=  -0.0000000  -0.0000000  -0.0000000  -0.0000000  -0.0000000  -0.0000000  -0.0000000  -0.0000000  -0.0000000  -0.0000000
 NQMom=    0.0000000   0.0000000   0.0000000   0.0000000   0.0000000   0.0000000  -8.1650000  -8.1650000  -8.1650000  -8.1650000
 NMagM=    0.0000000   0.0000000   0.0000000   0.0000000   0.0000000   0.0000000   0.8218740   0.8218740   0.8218740   0.8218740
 AtZNuc=   6.0000000   6.0000000   6.0000000   6.0000000   6.0000000   6.0000000  17.0000000  17.0000000  17.0000000  17.0000000

  Atom        71          72
 IAtWgt=          35          35
 AtmWgt=  34.9688527  34.9688527
 NucSpn=           3           3
 AtZEff=  -0.0000000  -0.0000000
 NQMom=   -8.1650000  -8.1650000
 NMagM=    0.8218740   0.8218740
 AtZNuc=  17.0000000  17.0000000
 Leave Link  101 at Fri Jul 15 07:56:48 2022, MaxMem=  1342177280 cpu:              13.6 elap:               0.3
 (Enter /home/mkliu/g16/l103.exe)

 GradGradGradGradGradGradGradGradGradGradGradGradGradGradGradGradGradGrad
 Berny optimization.
 Initialization pass.
                           ----------------------------
                           !    Initial Parameters    !
                           ! (Angstroms and Degrees)  !
 --------------------------                            --------------------------
 ! Name  Definition              Value          Derivative Info.                !
 --------------------------------------------------------------------------------
 ! R1    R(1,2)                  1.5626         estimate D2E/DX2                !
 ! R2    R(1,4)                  1.478          estimate D2E/DX2                !
 ! R3    R(1,7)                  1.5624         estimate D2E/DX2                !
 ! R4    R(1,67)                 1.7863         estimate D2E/DX2                !
 ! R5    R(2,3)                  1.5757         estimate D2E/DX2                !
 ! R6    R(2,10)                 1.472          estimate D2E/DX2                !
 ! R7    R(2,68)                 1.7836         estimate D2E/DX2                !
 ! R8    R(3,5)                  1.4836         estimate D2E/DX2                !
 ! R9    R(3,12)                 1.5859         estimate D2E/DX2                !
 ! R10   R(3,69)                 1.7717         estimate D2E/DX2                !
 ! R11   R(4,5)                  1.3757         estimate D2E/DX2                !
 ! R12   R(4,6)                  1.3859         estimate D2E/DX2                !
 ! R13   R(5,15)                 1.3632         estimate D2E/DX2                !
 ! R14   R(6,8)                  1.4207         estimate D2E/DX2                !
 ! R15   R(6,17)                 1.4038         estimate D2E/DX2                !
 ! R16   R(7,8)                  1.5367         estimate D2E/DX2                !
 ! R17   R(7,9)                  1.5061         estimate D2E/DX2                !
 ! R18   R(7,71)                 1.7951         estimate D2E/DX2                !
 ! R19   R(8,20)                 1.365          estimate D2E/DX2                !
 ! R20   R(9,11)                 1.4316         estimate D2E/DX2                !
 ! R21   R(9,22)                 1.3694         estimate D2E/DX2                !
 ! R22   R(10,11)                1.4114         estimate D2E/DX2                !
 ! R23   R(10,13)                1.3621         estimate D2E/DX2                !
 ! R24   R(11,25)                1.3818         estimate D2E/DX2                !
 ! R25   R(12,13)                1.4865         estimate D2E/DX2                !
 ! R26   R(12,14)                1.5153         estimate D2E/DX2                !
 ! R27   R(12,70)                1.8098         estimate D2E/DX2                !
 ! R28   R(13,27)                1.4113         estimate D2E/DX2                !
 ! R29   R(14,16)                1.3731         estimate D2E/DX2                !
 ! R30   R(14,29)                1.459          estimate D2E/DX2                !
 ! R31   R(15,16)                1.4637         estimate D2E/DX2                !
 ! R32   R(15,18)                1.4153         estimate D2E/DX2                !
 ! R33   R(16,32)                1.4305         estimate D2E/DX2                !
 ! R34   R(17,18)                1.4072         estimate D2E/DX2                !
 ! R35   R(17,19)                1.4364         estimate D2E/DX2                !
 ! R36   R(18,33)                1.4242         estimate D2E/DX2                !
 ! R37   R(19,21)                1.4408         estimate D2E/DX2                !
 ! R38   R(19,35)                1.4077         estimate D2E/DX2                !
 ! R39   R(20,21)                1.4565         estimate D2E/DX2                !
 ! R40   R(20,23)                1.5097         estimate D2E/DX2                !
 ! R41   R(21,38)                1.4009         estimate D2E/DX2                !
 ! R42   R(22,23)                1.5191         estimate D2E/DX2                !
 ! R43   R(22,24)                1.4336         estimate D2E/DX2                !
 ! R44   R(23,40)                1.4938         estimate D2E/DX2                !
 ! R45   R(23,72)                1.8095         estimate D2E/DX2                !
 ! R46   R(24,26)                1.3751         estimate D2E/DX2                !
 ! R47   R(24,41)                1.4307         estimate D2E/DX2                !
 ! R48   R(25,26)                1.4217         estimate D2E/DX2                !
 ! R49   R(25,28)                1.4257         estimate D2E/DX2                !
 ! R50   R(26,44)                1.4306         estimate D2E/DX2                !
 ! R51   R(27,28)                1.3854         estimate D2E/DX2                !
 ! R52   R(27,30)                1.4454         estimate D2E/DX2                !
 ! R53   R(28,45)                1.4197         estimate D2E/DX2                !
 ! R54   R(29,30)                1.4492         estimate D2E/DX2                !
 ! R55   R(29,31)                1.4032         estimate D2E/DX2                !
 ! R56   R(30,47)                1.4037         estimate D2E/DX2                !
 ! R57   R(31,34)                1.4311         estimate D2E/DX2                !
 ! R58   R(31,49)                1.4355         estimate D2E/DX2                !
 ! R59   R(32,33)                1.438          estimate D2E/DX2                !
 ! R60   R(32,34)                1.3685         estimate D2E/DX2                !
 ! R61   R(33,36)                1.3724         estimate D2E/DX2                !
 ! R62   R(34,51)                1.4418         estimate D2E/DX2                !
 ! R63   R(35,36)                1.4438         estimate D2E/DX2                !
 ! R64   R(35,37)                1.4203         estimate D2E/DX2                !
 ! R65   R(36,52)                1.4364         estimate D2E/DX2                !
 ! R66   R(37,39)                1.3822         estimate D2E/DX2                !
 ! R67   R(37,53)                1.4387         estimate D2E/DX2                !
 ! R68   R(38,39)                1.4241         estimate D2E/DX2                !
 ! R69   R(38,42)                1.4605         estimate D2E/DX2                !
 ! R70   R(39,57)                1.4396         estimate D2E/DX2                !
 ! R71   R(40,41)                1.4217         estimate D2E/DX2                !
 ! R72   R(40,42)                1.363          estimate D2E/DX2                !
 ! R73   R(41,43)                1.3933         estimate D2E/DX2                !
 ! R74   R(42,58)                1.4372         estimate D2E/DX2                !
 ! R75   R(43,46)                1.4357         estimate D2E/DX2                !
 ! R76   R(43,59)                1.4275         estimate D2E/DX2                !
 ! R77   R(44,45)                1.4393         estimate D2E/DX2                !
 ! R78   R(44,46)                1.3774         estimate D2E/DX2                !
 ! R79   R(45,48)                1.3723         estimate D2E/DX2                !
 ! R80   R(46,61)                1.443          estimate D2E/DX2                !
 ! R81   R(47,48)                1.4375         estimate D2E/DX2                !
 ! R82   R(47,50)                1.4314         estimate D2E/DX2                !
 ! R83   R(48,62)                1.4376         estimate D2E/DX2                !
 ! R84   R(49,50)                1.3711         estimate D2E/DX2                !
 ! R85   R(49,54)                1.4442         estimate D2E/DX2                !
 ! R86   R(50,63)                1.4414         estimate D2E/DX2                !
 ! R87   R(51,52)                1.385          estimate D2E/DX2                !
 ! R88   R(51,54)                1.4317         estimate D2E/DX2                !
 ! R89   R(52,53)                1.4348         estimate D2E/DX2                !
 ! R90   R(53,55)                1.381          estimate D2E/DX2                !
 ! R91   R(54,56)                1.3841         estimate D2E/DX2                !
 ! R92   R(55,56)                1.4377         estimate D2E/DX2                !
 ! R93   R(55,60)                1.4405         estimate D2E/DX2                !
 ! R94   R(56,64)                1.4374         estimate D2E/DX2                !
 ! R95   R(57,58)                1.4336         estimate D2E/DX2                !
 ! R96   R(57,60)                1.3834         estimate D2E/DX2                !
 ! R97   R(58,59)                1.3836         estimate D2E/DX2                !
 ! R98   R(59,65)                1.4421         estimate D2E/DX2                !
 ! R99   R(60,66)                1.4394         estimate D2E/DX2                !
 ! R100  R(61,62)                1.3863         estimate D2E/DX2                !
 ! R101  R(61,65)                1.4353         estimate D2E/DX2                !
 ! R102  R(62,63)                1.4299         estimate D2E/DX2                !
 ! R103  R(63,64)                1.3835         estimate D2E/DX2                !
 ! R104  R(64,66)                1.4371         estimate D2E/DX2                !
 ! R105  R(65,66)                1.3837         estimate D2E/DX2                !
 ! A1    A(2,1,4)              100.3013         estimate D2E/DX2                !
 ! A2    A(2,1,7)              119.5621         estimate D2E/DX2                !
 ! A3    A(2,1,67)             109.2404         estimate D2E/DX2                !
 ! A4    A(4,1,7)              101.6748         estimate D2E/DX2                !
 ! A5    A(4,1,67)             110.8717         estimate D2E/DX2                !
 ! A6    A(7,1,67)             113.8143         estimate D2E/DX2                !
 ! A7    A(1,2,3)              108.7848         estimate D2E/DX2                !
 ! A8    A(1,2,10)             110.6872         estimate D2E/DX2                !
 ! A9    A(1,2,68)             112.3634         estimate D2E/DX2                !
 ! A10   A(3,2,10)             100.5148         estimate D2E/DX2                !
 ! A11   A(3,2,68)             114.7483         estimate D2E/DX2                !
 ! A12   A(10,2,68)            109.1273         estimate D2E/DX2                !
 ! A13   A(2,3,5)              100.2112         estimate D2E/DX2                !
 ! A14   A(2,3,12)             107.784          estimate D2E/DX2                !
 ! A15   A(2,3,69)             113.737          estimate D2E/DX2                !
 ! A16   A(5,3,12)             109.7306         estimate D2E/DX2                !
 ! A17   A(5,3,69)             111.4191         estimate D2E/DX2                !
 ! A18   A(12,3,69)            113.1513         estimate D2E/DX2                !
 ! A19   A(1,4,5)              113.5742         estimate D2E/DX2                !
 ! A20   A(1,4,6)              114.8068         estimate D2E/DX2                !
 ! A21   A(5,4,6)              121.6379         estimate D2E/DX2                !
 ! A22   A(3,5,4)              113.1831         estimate D2E/DX2                !
 ! A23   A(3,5,15)             124.2887         estimate D2E/DX2                !
 ! A24   A(4,5,15)             116.8823         estimate D2E/DX2                !
 ! A25   A(4,6,8)              108.6659         estimate D2E/DX2                !
 ! A26   A(4,6,17)             121.7237         estimate D2E/DX2                !
 ! A27   A(8,6,17)             122.6469         estimate D2E/DX2                !
 ! A28   A(1,7,8)              105.5475         estimate D2E/DX2                !
 ! A29   A(1,7,9)              116.6813         estimate D2E/DX2                !
 ! A30   A(1,7,71)             112.8623         estimate D2E/DX2                !
 ! A31   A(8,7,9)              102.0886         estimate D2E/DX2                !
 ! A32   A(8,7,71)             110.8572         estimate D2E/DX2                !
 ! A33   A(9,7,71)             108.2035         estimate D2E/DX2                !
 ! A34   A(6,8,7)              108.5334         estimate D2E/DX2                !
 ! A35   A(6,8,20)             119.6026         estimate D2E/DX2                !
 ! A36   A(7,8,20)             126.6589         estimate D2E/DX2                !
 ! A37   A(7,9,11)             121.0231         estimate D2E/DX2                !
 ! A38   A(7,9,22)             118.2176         estimate D2E/DX2                !
 ! A39   A(11,9,22)            117.5276         estimate D2E/DX2                !
 ! A40   A(2,10,11)            124.0516         estimate D2E/DX2                !
 ! A41   A(2,10,13)            114.2008         estimate D2E/DX2                !
 ! A42   A(11,10,13)           121.1114         estimate D2E/DX2                !
 ! A43   A(9,11,10)            118.255          estimate D2E/DX2                !
 ! A44   A(9,11,25)            120.4743         estimate D2E/DX2                !
 ! A45   A(10,11,25)           114.488          estimate D2E/DX2                !
 ! A46   A(3,12,13)            101.5888         estimate D2E/DX2                !
 ! A47   A(3,12,14)            117.3233         estimate D2E/DX2                !
 ! A48   A(3,12,70)            111.1038         estimate D2E/DX2                !
 ! A49   A(13,12,14)           108.3847         estimate D2E/DX2                !
 ! A50   A(13,12,70)           110.0903         estimate D2E/DX2                !
 ! A51   A(14,12,70)           108.0732         estimate D2E/DX2                !
 ! A52   A(10,13,12)           112.4625         estimate D2E/DX2                !
 ! A53   A(10,13,27)           123.6226         estimate D2E/DX2                !
 ! A54   A(12,13,27)           121.5612         estimate D2E/DX2                !
 ! A55   A(12,14,16)           120.8124         estimate D2E/DX2                !
 ! A56   A(12,14,29)           118.5043         estimate D2E/DX2                !
 ! A57   A(16,14,29)           117.7622         estimate D2E/DX2                !
 ! A58   A(5,15,16)            120.7381         estimate D2E/DX2                !
 ! A59   A(5,15,18)            121.1659         estimate D2E/DX2                !
 ! A60   A(16,15,18)           107.9783         estimate D2E/DX2                !
 ! A61   A(14,16,15)           117.6383         estimate D2E/DX2                !
 ! A62   A(14,16,32)           122.5734         estimate D2E/DX2                !
 ! A63   A(15,16,32)           105.9805         estimate D2E/DX2                !
 ! A64   A(6,17,18)            114.4692         estimate D2E/DX2                !
 ! A65   A(6,17,19)            118.3482         estimate D2E/DX2                !
 ! A66   A(18,17,19)           120.805          estimate D2E/DX2                !
 ! A67   A(15,18,17)           121.1357         estimate D2E/DX2                !
 ! A68   A(15,18,33)           107.6333         estimate D2E/DX2                !
 ! A69   A(17,18,33)           120.8744         estimate D2E/DX2                !
 ! A70   A(17,19,21)           119.0723         estimate D2E/DX2                !
 ! A71   A(17,19,35)           116.074          estimate D2E/DX2                !
 ! A72   A(21,19,35)           120.0857         estimate D2E/DX2                !
 ! A73   A(8,20,21)            120.4136         estimate D2E/DX2                !
 ! A74   A(8,20,23)            117.2497         estimate D2E/DX2                !
 ! A75   A(21,20,23)           120.1235         estimate D2E/DX2                !
 ! A76   A(19,21,20)           119.3472         estimate D2E/DX2                !
 ! A77   A(19,21,38)           117.1128         estimate D2E/DX2                !
 ! A78   A(20,21,38)           119.4067         estimate D2E/DX2                !
 ! A79   A(9,22,23)            124.8554         estimate D2E/DX2                !
 ! A80   A(9,22,24)            121.2556         estimate D2E/DX2                !
 ! A81   A(23,22,24)           108.4462         estimate D2E/DX2                !
 ! A82   A(20,23,22)           106.1082         estimate D2E/DX2                !
 ! A83   A(20,23,40)           113.6995         estimate D2E/DX2                !
 ! A84   A(20,23,72)           108.6964         estimate D2E/DX2                !
 ! A85   A(22,23,40)           101.4209         estimate D2E/DX2                !
 ! A86   A(22,23,72)           114.1115         estimate D2E/DX2                !
 ! A87   A(40,23,72)           112.5934         estimate D2E/DX2                !
 ! A88   A(22,24,26)           120.8126         estimate D2E/DX2                !
 ! A89   A(22,24,41)           110.3779         estimate D2E/DX2                !
 ! A90   A(26,24,41)           118.9342         estimate D2E/DX2                !
 ! A91   A(11,25,26)           121.385          estimate D2E/DX2                !
 ! A92   A(11,25,28)           122.6144         estimate D2E/DX2                !
 ! A93   A(26,25,28)           107.8194         estimate D2E/DX2                !
 ! A94   A(24,26,25)           117.4626         estimate D2E/DX2                !
 ! A95   A(24,26,44)           121.529          estimate D2E/DX2                !
 ! A96   A(25,26,44)           108.6632         estimate D2E/DX2                !
 ! A97   A(13,27,28)           114.2603         estimate D2E/DX2                !
 ! A98   A(13,27,30)           119.4507         estimate D2E/DX2                !
 ! A99   A(28,27,30)           120.9642         estimate D2E/DX2                !
 ! A100  A(25,28,27)           120.4816         estimate D2E/DX2                !
 ! A101  A(25,28,45)           108.2023         estimate D2E/DX2                !
 ! A102  A(27,28,45)           122.0746         estimate D2E/DX2                !
 ! A103  A(14,29,30)           119.4729         estimate D2E/DX2                !
 ! A104  A(14,29,31)           117.6906         estimate D2E/DX2                !
 ! A105  A(30,29,31)           116.8376         estimate D2E/DX2                !
 ! A106  A(27,30,29)           118.5409         estimate D2E/DX2                !
 ! A107  A(27,30,47)           115.609          estimate D2E/DX2                !
 ! A108  A(29,30,47)           119.3788         estimate D2E/DX2                !
 ! A109  A(29,31,34)           122.5335         estimate D2E/DX2                !
 ! A110  A(29,31,49)           122.9061         estimate D2E/DX2                !
 ! A111  A(34,31,49)           105.6206         estimate D2E/DX2                !
 ! A112  A(16,32,33)           108.2619         estimate D2E/DX2                !
 ! A113  A(16,32,34)           120.1651         estimate D2E/DX2                !
 ! A114  A(33,32,34)           118.605          estimate D2E/DX2                !
 ! A115  A(18,33,32)           108.1075         estimate D2E/DX2                !
 ! A116  A(18,33,36)           118.9565         estimate D2E/DX2                !
 ! A117  A(32,33,36)           121.083          estimate D2E/DX2                !
 ! A118  A(31,34,32)           117.768          estimate D2E/DX2                !
 ! A119  A(31,34,51)           109.6321         estimate D2E/DX2                !
 ! A120  A(32,34,51)           120.5651         estimate D2E/DX2                !
 ! A121  A(19,35,36)           121.8704         estimate D2E/DX2                !
 ! A122  A(19,35,37)           121.4741         estimate D2E/DX2                !
 ! A123  A(36,35,37)           106.9182         estimate D2E/DX2                !
 ! A124  A(33,36,35)           119.9638         estimate D2E/DX2                !
 ! A125  A(33,36,52)           119.6581         estimate D2E/DX2                !
 ! A126  A(35,36,52)           109.0051         estimate D2E/DX2                !
 ! A127  A(35,37,39)           118.4229         estimate D2E/DX2                !
 ! A128  A(35,37,53)           108.5735         estimate D2E/DX2                !
 ! A129  A(39,37,53)           121.6285         estimate D2E/DX2                !
 ! A130  A(21,38,39)           121.9033         estimate D2E/DX2                !
 ! A131  A(21,38,42)           120.6657         estimate D2E/DX2                !
 ! A132  A(39,38,42)           106.931          estimate D2E/DX2                !
 ! A133  A(37,39,38)           120.7213         estimate D2E/DX2                !
 ! A134  A(37,39,57)           118.9915         estimate D2E/DX2                !
 ! A135  A(38,39,57)           109.4394         estimate D2E/DX2                !
 ! A136  A(23,40,41)           111.9376         estimate D2E/DX2                !
 ! A137  A(23,40,42)           121.7639         estimate D2E/DX2                !
 ! A138  A(41,40,42)           118.4829         estimate D2E/DX2                !
 ! A139  A(24,41,40)           106.3507         estimate D2E/DX2                !
 ! A140  A(24,41,43)           119.8793         estimate D2E/DX2                !
 ! A141  A(40,41,43)           121.4016         estimate D2E/DX2                !
 ! A142  A(38,42,40)           120.3963         estimate D2E/DX2                !
 ! A143  A(38,42,58)           107.4814         estimate D2E/DX2                !
 ! A144  A(40,42,58)           120.7693         estimate D2E/DX2                !
 ! A145  A(41,43,46)           120.5895         estimate D2E/DX2                !
 ! A146  A(41,43,59)           119.9358         estimate D2E/DX2                !
 ! A147  A(46,43,59)           107.1869         estimate D2E/DX2                !
 ! A148  A(26,44,45)           106.9157         estimate D2E/DX2                !
 ! A149  A(26,44,46)           119.9064         estimate D2E/DX2                !
 ! A150  A(45,44,46)           119.6966         estimate D2E/DX2                !
 ! A151  A(28,45,44)           108.2809         estimate D2E/DX2                !
 ! A152  A(28,45,48)           118.2344         estimate D2E/DX2                !
 ! A153  A(44,45,48)           121.7153         estimate D2E/DX2                !
 ! A154  A(43,46,44)           119.1456         estimate D2E/DX2                !
 ! A155  A(43,46,61)           109.2577         estimate D2E/DX2                !
 ! A156  A(44,46,61)           118.9455         estimate D2E/DX2                !
 ! A157  A(30,47,48)           122.5571         estimate D2E/DX2                !
 ! A158  A(30,47,50)           122.1188         estimate D2E/DX2                !
 ! A159  A(48,47,50)           106.2898         estimate D2E/DX2                !
 ! A160  A(45,48,47)           120.2926         estimate D2E/DX2                !
 ! A161  A(45,48,62)           118.7046         estimate D2E/DX2                !
 ! A162  A(47,48,62)           109.5118         estimate D2E/DX2                !
 ! A163  A(31,49,50)           119.7297         estimate D2E/DX2                !
 ! A164  A(31,49,54)           109.878          estimate D2E/DX2                !
 ! A165  A(50,49,54)           119.406          estimate D2E/DX2                !
 ! A166  A(47,50,49)           118.8273         estimate D2E/DX2                !
 ! A167  A(47,50,63)           108.9399         estimate D2E/DX2                !
 ! A168  A(49,50,63)           120.9204         estimate D2E/DX2                !
 ! A169  A(34,51,52)           119.7403         estimate D2E/DX2                !
 ! A170  A(34,51,54)           107.3919         estimate D2E/DX2                !
 ! A171  A(52,51,54)           119.6786         estimate D2E/DX2                !
 ! A172  A(36,52,51)           119.2432         estimate D2E/DX2                !
 ! A173  A(36,52,53)           106.6378         estimate D2E/DX2                !
 ! A174  A(51,52,53)           120.3428         estimate D2E/DX2                !
 ! A175  A(37,53,52)           108.4165         estimate D2E/DX2                !
 ! A176  A(37,53,55)           119.0365         estimate D2E/DX2                !
 ! A177  A(52,53,55)           119.8526         estimate D2E/DX2                !
 ! A178  A(49,54,51)           106.8722         estimate D2E/DX2                !
 ! A179  A(49,54,56)           119.8049         estimate D2E/DX2                !
 ! A180  A(51,54,56)           120.004          estimate D2E/DX2                !
 ! A181  A(53,55,56)           119.7923         estimate D2E/DX2                !
 ! A182  A(53,55,60)           119.5902         estimate D2E/DX2                !
 ! A183  A(56,55,60)           108.5562         estimate D2E/DX2                !
 ! A184  A(54,56,55)           120.1366         estimate D2E/DX2                !
 ! A185  A(54,56,64)           120.3169         estimate D2E/DX2                !
 ! A186  A(55,56,64)           107.4462         estimate D2E/DX2                !
 ! A187  A(39,57,58)           107.1267         estimate D2E/DX2                !
 ! A188  A(39,57,60)           119.4853         estimate D2E/DX2                !
 ! A189  A(58,57,60)           120.718          estimate D2E/DX2                !
 ! A190  A(42,58,57)           108.6667         estimate D2E/DX2                !
 ! A191  A(42,58,59)           120.8763         estimate D2E/DX2                !
 ! A192  A(57,58,59)           119.1297         estimate D2E/DX2                !
 ! A193  A(43,59,58)           118.3053         estimate D2E/DX2                !
 ! A194  A(43,59,65)           108.4692         estimate D2E/DX2                !
 ! A195  A(58,59,65)           120.5256         estimate D2E/DX2                !
 ! A196  A(55,60,57)           120.9861         estimate D2E/DX2                !
 ! A197  A(55,60,66)           107.5059         estimate D2E/DX2                !
 ! A198  A(57,60,66)           119.995          estimate D2E/DX2                !
 ! A199  A(46,61,62)           120.8255         estimate D2E/DX2                !
 ! A200  A(46,61,65)           106.6627         estimate D2E/DX2                !
 ! A201  A(62,61,65)           119.8775         estimate D2E/DX2                !
 ! A202  A(48,62,61)           119.9225         estimate D2E/DX2                !
 ! A203  A(48,62,63)           107.0415         estimate D2E/DX2                !
 ! A204  A(61,62,63)           120.4596         estimate D2E/DX2                !
 ! A205  A(50,63,62)           107.9539         estimate D2E/DX2                !
 ! A206  A(50,63,64)           119.5406         estimate D2E/DX2                !
 ! A207  A(62,63,64)           119.662          estimate D2E/DX2                !
 ! A208  A(56,64,63)           119.6652         estimate D2E/DX2                !
 ! A209  A(56,64,66)           108.4028         estimate D2E/DX2                !
 ! A210  A(63,64,66)           120.0181         estimate D2E/DX2                !
 ! A211  A(59,65,61)           108.3816         estimate D2E/DX2                !
 ! A212  A(59,65,66)           119.9054         estimate D2E/DX2                !
 ! A213  A(61,65,66)           119.6305         estimate D2E/DX2                !
 ! A214  A(60,66,64)           107.9949         estimate D2E/DX2                !
 ! A215  A(60,66,65)           119.6117         estimate D2E/DX2                !
 ! A216  A(64,66,65)           120.2495         estimate D2E/DX2                !
 ! D1    D(4,1,2,3)             19.5439         estimate D2E/DX2                !
 ! D2    D(4,1,2,10)           -89.9971         estimate D2E/DX2                !
 ! D3    D(4,1,2,68)           147.7204         estimate D2E/DX2                !
 ! D4    D(7,1,2,3)            129.393          estimate D2E/DX2                !
 ! D5    D(7,1,2,10)            19.852          estimate D2E/DX2                !
 ! D6    D(7,1,2,68)          -102.4305         estimate D2E/DX2                !
 ! D7    D(67,1,2,3)           -97.0058         estimate D2E/DX2                !
 ! D8    D(67,1,2,10)          153.4533         estimate D2E/DX2                !
 ! D9    D(67,1,2,68)           31.1707         estimate D2E/DX2                !
 ! D10   D(2,1,4,5)            -13.7367         estimate D2E/DX2                !
 ! D11   D(2,1,4,6)            132.5863         estimate D2E/DX2                !
 ! D12   D(7,1,4,5)           -137.0761         estimate D2E/DX2                !
 ! D13   D(7,1,4,6)              9.2468         estimate D2E/DX2                !
 ! D14   D(67,1,4,5)           101.5885         estimate D2E/DX2                !
 ! D15   D(67,1,4,6)          -112.0885         estimate D2E/DX2                !
 ! D16   D(2,1,7,8)           -115.8835         estimate D2E/DX2                !
 ! D17   D(2,1,7,9)             -3.3577         estimate D2E/DX2                !
 ! D18   D(2,1,7,71)           122.893          estimate D2E/DX2                !
 ! D19   D(4,1,7,8)             -6.7887         estimate D2E/DX2                !
 ! D20   D(4,1,7,9)            105.7371         estimate D2E/DX2                !
 ! D21   D(4,1,7,71)          -128.0122         estimate D2E/DX2                !
 ! D22   D(67,1,7,8)           112.4768         estimate D2E/DX2                !
 ! D23   D(67,1,7,9)          -134.9974         estimate D2E/DX2                !
 ! D24   D(67,1,7,71)           -8.7467         estimate D2E/DX2                !
 ! D25   D(1,2,3,5)            -18.3093         estimate D2E/DX2                !
 ! D26   D(1,2,3,12)          -133.0192         estimate D2E/DX2                !
 ! D27   D(1,2,3,69)           100.6748         estimate D2E/DX2                !
 ! D28   D(10,2,3,5)            97.9635         estimate D2E/DX2                !
 ! D29   D(10,2,3,12)          -16.7464         estimate D2E/DX2                !
 ! D30   D(10,2,3,69)         -143.0524         estimate D2E/DX2                !
 ! D31   D(68,2,3,5)          -145.1305         estimate D2E/DX2                !
 ! D32   D(68,2,3,12)          100.1595         estimate D2E/DX2                !
 ! D33   D(68,2,3,69)          -26.1465         estimate D2E/DX2                !
 ! D34   D(1,2,10,11)          -37.2848         estimate D2E/DX2                !
 ! D35   D(1,2,10,13)          133.6334         estimate D2E/DX2                !
 ! D36   D(3,2,10,11)         -152.1304         estimate D2E/DX2                !
 ! D37   D(3,2,10,13)           18.7878         estimate D2E/DX2                !
 ! D38   D(68,2,10,11)          86.8699         estimate D2E/DX2                !
 ! D39   D(68,2,10,13)        -102.2119         estimate D2E/DX2                !
 ! D40   D(2,3,5,4)             10.0247         estimate D2E/DX2                !
 ! D41   D(2,3,5,15)          -142.5175         estimate D2E/DX2                !
 ! D42   D(12,3,5,4)           123.2474         estimate D2E/DX2                !
 ! D43   D(12,3,5,15)          -29.2948         estimate D2E/DX2                !
 ! D44   D(69,3,5,4)          -110.6408         estimate D2E/DX2                !
 ! D45   D(69,3,5,15)           96.8171         estimate D2E/DX2                !
 ! D46   D(2,3,12,13)           10.0404         estimate D2E/DX2                !
 ! D47   D(2,3,12,14)          127.9671         estimate D2E/DX2                !
 ! D48   D(2,3,12,70)         -107.0246         estimate D2E/DX2                !
 ! D49   D(5,3,12,13)          -98.1892         estimate D2E/DX2                !
 ! D50   D(5,3,12,14)           19.7374         estimate D2E/DX2                !
 ! D51   D(5,3,12,70)          144.7457         estimate D2E/DX2                !
 ! D52   D(69,3,12,13)         136.69           estimate D2E/DX2                !
 ! D53   D(69,3,12,14)        -105.3834         estimate D2E/DX2                !
 ! D54   D(69,3,12,70)          19.6249         estimate D2E/DX2                !
 ! D55   D(1,4,5,3)              2.4606         estimate D2E/DX2                !
 ! D56   D(1,4,5,15)           157.1759         estimate D2E/DX2                !
 ! D57   D(6,4,5,3)           -141.2964         estimate D2E/DX2                !
 ! D58   D(6,4,5,15)            13.4189         estimate D2E/DX2                !
 ! D59   D(1,4,6,8)             -7.9324         estimate D2E/DX2                !
 ! D60   D(1,4,6,17)          -159.3657         estimate D2E/DX2                !
 ! D61   D(5,4,6,8)            135.4156         estimate D2E/DX2                !
 ! D62   D(5,4,6,17)           -16.0176         estimate D2E/DX2                !
 ! D63   D(3,5,15,16)           12.0082         estimate D2E/DX2                !
 ! D64   D(3,5,15,18)          153.2077         estimate D2E/DX2                !
 ! D65   D(4,5,15,16)         -139.6184         estimate D2E/DX2                !
 ! D66   D(4,5,15,18)            1.5811         estimate D2E/DX2                !
 ! D67   D(4,6,8,7)              2.7023         estimate D2E/DX2                !
 ! D68   D(4,6,8,20)          -153.4615         estimate D2E/DX2                !
 ! D69   D(17,6,8,7)           153.8171         estimate D2E/DX2                !
 ! D70   D(17,6,8,20)           -2.3467         estimate D2E/DX2                !
 ! D71   D(4,6,17,18)            2.7287         estimate D2E/DX2                !
 ! D72   D(4,6,17,19)          154.9618         estimate D2E/DX2                !
 ! D73   D(8,6,17,18)         -144.7215         estimate D2E/DX2                !
 ! D74   D(8,6,17,19)            7.5116         estimate D2E/DX2                !
 ! D75   D(1,7,8,6)              2.8674         estimate D2E/DX2                !
 ! D76   D(1,7,8,20)           156.8904         estimate D2E/DX2                !
 ! D77   D(9,7,8,6)           -119.5605         estimate D2E/DX2                !
 ! D78   D(9,7,8,20)            34.4624         estimate D2E/DX2                !
 ! D79   D(71,7,8,6)           125.3848         estimate D2E/DX2                !
 ! D80   D(71,7,8,20)          -80.5922         estimate D2E/DX2                !
 ! D81   D(1,7,9,11)            -0.6717         estimate D2E/DX2                !
 ! D82   D(1,7,9,22)          -159.8625         estimate D2E/DX2                !
 ! D83   D(8,7,9,11)           113.8107         estimate D2E/DX2                !
 ! D84   D(8,7,9,22)           -45.3802         estimate D2E/DX2                !
 ! D85   D(71,7,9,11)         -129.2062         estimate D2E/DX2                !
 ! D86   D(71,7,9,22)           71.6029         estimate D2E/DX2                !
 ! D87   D(6,8,20,21)           -4.5046         estimate D2E/DX2                !
 ! D88   D(6,8,20,23)          158.617          estimate D2E/DX2                !
 ! D89   D(7,8,20,21)         -155.9732         estimate D2E/DX2                !
 ! D90   D(7,8,20,23)            7.1484         estimate D2E/DX2                !
 ! D91   D(7,9,11,10)          -13.7239         estimate D2E/DX2                !
 ! D92   D(7,9,11,25)         -163.2934         estimate D2E/DX2                !
 ! D93   D(22,9,11,10)         145.6051         estimate D2E/DX2                !
 ! D94   D(22,9,11,25)          -3.9643         estimate D2E/DX2                !
 ! D95   D(7,9,22,23)           18.6429         estimate D2E/DX2                !
 ! D96   D(7,9,22,24)          169.5426         estimate D2E/DX2                !
 ! D97   D(11,9,22,23)        -141.2786         estimate D2E/DX2                !
 ! D98   D(11,9,22,24)           9.621          estimate D2E/DX2                !
 ! D99   D(2,10,11,9)           35.6034         estimate D2E/DX2                !
 ! D100  D(2,10,11,25)        -173.0606         estimate D2E/DX2                !
 ! D101  D(13,10,11,9)        -134.7157         estimate D2E/DX2                !
 ! D102  D(13,10,11,25)         16.6203         estimate D2E/DX2                !
 ! D103  D(2,10,13,12)         -13.7021         estimate D2E/DX2                !
 ! D104  D(2,10,13,27)        -176.4676         estimate D2E/DX2                !
 ! D105  D(11,10,13,12)        157.5115         estimate D2E/DX2                !
 ! D106  D(11,10,13,27)         -5.2539         estimate D2E/DX2                !
 ! D107  D(9,11,25,26)          -5.7964         estimate D2E/DX2                !
 ! D108  D(9,11,25,28)         138.8827         estimate D2E/DX2                !
 ! D109  D(10,11,25,26)       -156.4399         estimate D2E/DX2                !
 ! D110  D(10,11,25,28)        -11.7608         estimate D2E/DX2                !
 ! D111  D(3,12,13,10)           1.3948         estimate D2E/DX2                !
 ! D112  D(3,12,13,27)         164.5641         estimate D2E/DX2                !
 ! D113  D(14,12,13,10)       -122.794          estimate D2E/DX2                !
 ! D114  D(14,12,13,27)         40.3753         estimate D2E/DX2                !
 ! D115  D(70,12,13,10)        119.1937         estimate D2E/DX2                !
 ! D116  D(70,12,13,27)        -77.637          estimate D2E/DX2                !
 ! D117  D(3,12,14,16)           6.0511         estimate D2E/DX2                !
 ! D118  D(3,12,14,29)        -154.1783         estimate D2E/DX2                !
 ! D119  D(13,12,14,16)        120.2553         estimate D2E/DX2                !
 ! D120  D(13,12,14,29)        -39.9741         estimate D2E/DX2                !
 ! D121  D(70,12,14,16)       -120.4552         estimate D2E/DX2                !
 ! D122  D(70,12,14,29)         79.3154         estimate D2E/DX2                !
 ! D123  D(10,13,27,28)        -11.5003         estimate D2E/DX2                !
 ! D124  D(10,13,27,30)        142.9961         estimate D2E/DX2                !
 ! D125  D(12,13,27,28)       -172.7566         estimate D2E/DX2                !
 ! D126  D(12,13,27,30)        -18.2601         estimate D2E/DX2                !
 ! D127  D(12,14,16,15)        -25.6369         estimate D2E/DX2                !
 ! D128  D(12,14,16,32)       -160.3307         estimate D2E/DX2                !
 ! D129  D(29,14,16,15)        134.7345         estimate D2E/DX2                !
 ! D130  D(29,14,16,32)          0.0408         estimate D2E/DX2                !
 ! D131  D(12,14,29,30)         19.0597         estimate D2E/DX2                !
 ! D132  D(12,14,29,31)        170.9731         estimate D2E/DX2                !
 ! D133  D(16,14,29,30)       -141.7746         estimate D2E/DX2                !
 ! D134  D(16,14,29,31)         10.1389         estimate D2E/DX2                !
 ! D135  D(5,15,16,14)          17.8573         estimate D2E/DX2                !
 ! D136  D(5,15,16,32)         159.3117         estimate D2E/DX2                !
 ! D137  D(18,15,16,14)       -127.8308         estimate D2E/DX2                !
 ! D138  D(18,15,16,32)         13.6235         estimate D2E/DX2                !
 ! D139  D(5,15,18,17)         -14.7288         estimate D2E/DX2                !
 ! D140  D(5,15,18,33)        -159.9231         estimate D2E/DX2                !
 ! D141  D(16,15,18,17)        130.7837         estimate D2E/DX2                !
 ! D142  D(16,15,18,33)        -14.4107         estimate D2E/DX2                !
 ! D143  D(14,16,32,33)        131.457          estimate D2E/DX2                !
 ! D144  D(14,16,32,34)         -9.3402         estimate D2E/DX2                !
 ! D145  D(15,16,32,33)         -7.6177         estimate D2E/DX2                !
 ! D146  D(15,16,32,34)       -148.4148         estimate D2E/DX2                !
 ! D147  D(6,17,18,15)          12.0166         estimate D2E/DX2                !
 ! D148  D(6,17,18,33)         152.6866         estimate D2E/DX2                !
 ! D149  D(19,17,18,15)       -139.4706         estimate D2E/DX2                !
 ! D150  D(19,17,18,33)          1.1993         estimate D2E/DX2                !
 ! D151  D(6,17,19,21)          -5.7389         estimate D2E/DX2                !
 ! D152  D(6,17,19,35)        -161.3266         estimate D2E/DX2                !
 ! D153  D(18,17,19,21)        144.6781         estimate D2E/DX2                !
 ! D154  D(18,17,19,35)        -10.9096         estimate D2E/DX2                !
 ! D155  D(15,18,33,32)          9.6308         estimate D2E/DX2                !
 ! D156  D(15,18,33,36)        152.9253         estimate D2E/DX2                !
 ! D157  D(17,18,33,32)       -135.6725         estimate D2E/DX2                !
 ! D158  D(17,18,33,36)          7.622          estimate D2E/DX2                !
 ! D159  D(17,19,21,20)         -0.7287         estimate D2E/DX2                !
 ! D160  D(17,19,21,38)       -157.7601         estimate D2E/DX2                !
 ! D161  D(35,19,21,20)        153.8647         estimate D2E/DX2                !
 ! D162  D(35,19,21,38)         -3.1667         estimate D2E/DX2                !
 ! D163  D(17,19,35,36)         12.4212         estimate D2E/DX2                !
 ! D164  D(17,19,35,37)        153.9008         estimate D2E/DX2                !
 ! D165  D(21,19,35,36)       -142.9038         estimate D2E/DX2                !
 ! D166  D(21,19,35,37)         -1.4242         estimate D2E/DX2                !
 ! D167  D(8,20,21,19)           5.9881         estimate D2E/DX2                !
 ! D168  D(8,20,21,38)         162.4902         estimate D2E/DX2                !
 ! D169  D(23,20,21,19)       -156.6489         estimate D2E/DX2                !
 ! D170  D(23,20,21,38)         -0.1469         estimate D2E/DX2                !
 ! D171  D(8,20,23,22)         -36.6419         estimate D2E/DX2                !
 ! D172  D(8,20,23,40)        -147.2428         estimate D2E/DX2                !
 ! D173  D(8,20,23,72)          86.494          estimate D2E/DX2                !
 ! D174  D(21,20,23,22)        126.531          estimate D2E/DX2                !
 ! D175  D(21,20,23,40)         15.93           estimate D2E/DX2                !
 ! D176  D(21,20,23,72)       -110.3332         estimate D2E/DX2                !
 ! D177  D(19,21,38,39)          6.0221         estimate D2E/DX2                !
 ! D178  D(19,21,38,42)        146.1909         estimate D2E/DX2                !
 ! D179  D(20,21,38,39)       -150.9952         estimate D2E/DX2                !
 ! D180  D(20,21,38,42)        -10.8263         estimate D2E/DX2                !
 ! D181  D(9,22,23,20)          25.3452         estimate D2E/DX2                !
 ! D182  D(9,22,23,40)         144.3679         estimate D2E/DX2                !
 ! D183  D(9,22,23,72)         -94.3112         estimate D2E/DX2                !
 ! D184  D(24,22,23,20)       -128.6611         estimate D2E/DX2                !
 ! D185  D(24,22,23,40)         -9.6384         estimate D2E/DX2                !
 ! D186  D(24,22,23,72)        111.6825         estimate D2E/DX2                !
 ! D187  D(9,22,24,26)          -5.7322         estimate D2E/DX2                !
 ! D188  D(9,22,24,41)        -151.0652         estimate D2E/DX2                !
 ! D189  D(23,22,24,26)        149.3887         estimate D2E/DX2                !
 ! D190  D(23,22,24,41)          4.0557         estimate D2E/DX2                !
 ! D191  D(20,23,40,41)        125.8851         estimate D2E/DX2                !
 ! D192  D(20,23,40,42)        -22.7712         estimate D2E/DX2                !
 ! D193  D(22,23,40,41)         12.4441         estimate D2E/DX2                !
 ! D194  D(22,23,40,42)       -136.2122         estimate D2E/DX2                !
 ! D195  D(72,23,40,41)       -109.932          estimate D2E/DX2                !
 ! D196  D(72,23,40,42)        101.4117         estimate D2E/DX2                !
 ! D197  D(22,24,26,25)         -4.0228         estimate D2E/DX2                !
 ! D198  D(22,24,26,44)       -141.9217         estimate D2E/DX2                !
 ! D199  D(41,24,26,25)        138.4413         estimate D2E/DX2                !
 ! D200  D(41,24,26,44)          0.5424         estimate D2E/DX2                !
 ! D201  D(22,24,41,40)          3.8025         estimate D2E/DX2                !
 ! D202  D(22,24,41,43)        146.4384         estimate D2E/DX2                !
 ! D203  D(26,24,41,40)       -142.2666         estimate D2E/DX2                !
 ! D204  D(26,24,41,43)          0.3693         estimate D2E/DX2                !
 ! D205  D(11,25,26,24)          9.6909         estimate D2E/DX2                !
 ! D206  D(11,25,26,44)        152.5925         estimate D2E/DX2                !
 ! D207  D(28,25,26,24)       -139.5433         estimate D2E/DX2                !
 ! D208  D(28,25,26,44)          3.3584         estimate D2E/DX2                !
 ! D209  D(11,25,28,27)         -4.8414         estimate D2E/DX2                !
 ! D210  D(11,25,28,45)       -152.2141         estimate D2E/DX2                !
 ! D211  D(26,25,28,27)        143.9313         estimate D2E/DX2                !
 ! D212  D(26,25,28,45)         -3.4414         estimate D2E/DX2                !
 ! D213  D(24,26,44,45)        139.1247         estimate D2E/DX2                !
 ! D214  D(24,26,44,46)         -1.4342         estimate D2E/DX2                !
 ! D215  D(25,26,44,45)         -1.9793         estimate D2E/DX2                !
 ! D216  D(25,26,44,46)       -142.5383         estimate D2E/DX2                !
 ! D217  D(13,27,28,25)         16.1239         estimate D2E/DX2                !
 ! D218  D(13,27,28,45)        158.9341         estimate D2E/DX2                !
 ! D219  D(30,27,28,25)       -137.9482         estimate D2E/DX2                !
 ! D220  D(30,27,28,45)          4.862          estimate D2E/DX2                !
 ! D221  D(13,27,30,29)         -7.3646         estimate D2E/DX2                !
 ! D222  D(13,27,30,47)       -159.0034         estimate D2E/DX2                !
 ! D223  D(28,27,30,29)        145.3913         estimate D2E/DX2                !
 ! D224  D(28,27,30,47)         -6.2475         estimate D2E/DX2                !
 ! D225  D(25,28,45,44)          2.2229         estimate D2E/DX2                !
 ! D226  D(25,28,45,48)        145.9102         estimate D2E/DX2                !
 ! D227  D(27,28,45,44)       -144.5227         estimate D2E/DX2                !
 ! D228  D(27,28,45,48)         -0.8354         estimate D2E/DX2                !
 ! D229  D(14,29,30,27)          6.4201         estimate D2E/DX2                !
 ! D230  D(14,29,30,47)        156.9754         estimate D2E/DX2                !
 ! D231  D(31,29,30,27)       -145.7268         estimate D2E/DX2                !
 ! D232  D(31,29,30,47)          4.8285         estimate D2E/DX2                !
 ! D233  D(14,29,31,34)        -11.9026         estimate D2E/DX2                !
 ! D234  D(14,29,31,49)       -154.3868         estimate D2E/DX2                !
 ! D235  D(30,29,31,34)        140.752          estimate D2E/DX2                !
 ! D236  D(30,29,31,49)         -1.7323         estimate D2E/DX2                !
 ! D237  D(27,30,47,48)          4.0505         estimate D2E/DX2                !
 ! D238  D(27,30,47,50)        146.5866         estimate D2E/DX2                !
 ! D239  D(29,30,47,48)       -147.3366         estimate D2E/DX2                !
 ! D240  D(29,30,47,50)         -4.8006         estimate D2E/DX2                !
 ! D241  D(29,31,34,32)          2.9173         estimate D2E/DX2                !
 ! D242  D(29,31,34,51)       -140.0211         estimate D2E/DX2                !
 ! D243  D(49,31,34,32)        150.8521         estimate D2E/DX2                !
 ! D244  D(49,31,34,51)          7.9138         estimate D2E/DX2                !
 ! D245  D(29,31,49,50)         -1.6533         estimate D2E/DX2                !
 ! D246  D(29,31,49,54)        142.2205         estimate D2E/DX2                !
 ! D247  D(34,31,49,50)       -149.4377         estimate D2E/DX2                !
 ! D248  D(34,31,49,54)         -5.5639         estimate D2E/DX2                !
 ! D249  D(16,32,33,18)         -1.0297         estimate D2E/DX2                !
 ! D250  D(16,32,33,36)       -143.3925         estimate D2E/DX2                !
 ! D251  D(34,32,33,18)        140.4751         estimate D2E/DX2                !
 ! D252  D(34,32,33,36)         -1.8877         estimate D2E/DX2                !
 ! D253  D(16,32,34,31)          7.702          estimate D2E/DX2                !
 ! D254  D(16,32,34,51)        146.4601         estimate D2E/DX2                !
 ! D255  D(33,32,34,31)       -129.1659         estimate D2E/DX2                !
 ! D256  D(33,32,34,51)          9.5922         estimate D2E/DX2                !
 ! D257  D(18,33,36,35)         -6.1961         estimate D2E/DX2                !
 ! D258  D(18,33,36,52)       -145.7343         estimate D2E/DX2                !
 ! D259  D(32,33,36,35)        132.2486         estimate D2E/DX2                !
 ! D260  D(32,33,36,52)         -7.2896         estimate D2E/DX2                !
 ! D261  D(31,34,51,52)        133.5779         estimate D2E/DX2                !
 ! D262  D(31,34,51,54)         -7.365          estimate D2E/DX2                !
 ! D263  D(32,34,51,52)         -8.1553         estimate D2E/DX2                !
 ! D264  D(32,34,51,54)       -149.0982         estimate D2E/DX2                !
 ! D265  D(19,35,36,33)         -4.0868         estimate D2E/DX2                !
 ! D266  D(19,35,36,52)        139.298          estimate D2E/DX2                !
 ! D267  D(37,35,36,33)       -150.3628         estimate D2E/DX2                !
 ! D268  D(37,35,36,52)         -6.978          estimate D2E/DX2                !
 ! D269  D(19,35,37,39)          3.2699         estimate D2E/DX2                !
 ! D270  D(19,35,37,53)       -140.9151         estimate D2E/DX2                !
 ! D271  D(36,35,37,39)        149.7086         estimate D2E/DX2                !
 ! D272  D(36,35,37,53)          5.5236         estimate D2E/DX2                !
 ! D273  D(33,36,52,51)          8.6995         estimate D2E/DX2                !
 ! D274  D(33,36,52,53)        149.1939         estimate D2E/DX2                !
 ! D275  D(35,36,52,51)       -134.8152         estimate D2E/DX2                !
 ! D276  D(35,36,52,53)          5.6793         estimate D2E/DX2                !
 ! D277  D(35,37,39,38)         -0.468          estimate D2E/DX2                !
 ! D278  D(35,37,39,57)       -140.9919         estimate D2E/DX2                !
 ! D279  D(53,37,39,38)        138.8806         estimate D2E/DX2                !
 ! D280  D(53,37,39,57)         -1.6433         estimate D2E/DX2                !
 ! D281  D(35,37,53,52)         -2.0869         estimate D2E/DX2                !
 ! D282  D(35,37,53,55)        139.6254         estimate D2E/DX2                !
 ! D283  D(39,37,53,52)       -144.9006         estimate D2E/DX2                !
 ! D284  D(39,37,53,55)         -3.1883         estimate D2E/DX2                !
 ! D285  D(21,38,39,37)         -4.3237         estimate D2E/DX2                !
 ! D286  D(21,38,39,57)        139.54           estimate D2E/DX2                !
 ! D287  D(42,38,39,37)       -149.1599         estimate D2E/DX2                !
 ! D288  D(42,38,39,57)         -5.2961         estimate D2E/DX2                !
 ! D289  D(21,38,42,40)          4.501          estimate D2E/DX2                !
 ! D290  D(21,38,42,58)       -139.2618         estimate D2E/DX2                !
 ! D291  D(39,38,42,40)        149.8618         estimate D2E/DX2                !
 ! D292  D(39,38,42,58)          6.099          estimate D2E/DX2                !
 ! D293  D(37,39,57,58)        147.035          estimate D2E/DX2                !
 ! D294  D(37,39,57,60)          5.0096         estimate D2E/DX2                !
 ! D295  D(38,39,57,58)          2.4557         estimate D2E/DX2                !
 ! D296  D(38,39,57,60)       -139.5697         estimate D2E/DX2                !
 ! D297  D(23,40,41,24)        -10.5581         estimate D2E/DX2                !
 ! D298  D(23,40,41,43)       -152.4967         estimate D2E/DX2                !
 ! D299  D(42,40,41,24)        139.2323         estimate D2E/DX2                !
 ! D300  D(42,40,41,43)         -2.7063         estimate D2E/DX2                !
 ! D301  D(23,40,42,38)         13.3078         estimate D2E/DX2                !
 ! D302  D(23,40,42,58)        152.2972         estimate D2E/DX2                !
 ! D303  D(41,40,42,38)       -133.3971         estimate D2E/DX2                !
 ! D304  D(41,40,42,58)          5.5923         estimate D2E/DX2                !
 ! D305  D(24,41,43,46)         -0.4149         estimate D2E/DX2                !
 ! D306  D(24,41,43,59)       -137.851          estimate D2E/DX2                !
 ! D307  D(40,41,43,46)        136.5646         estimate D2E/DX2                !
 ! D308  D(40,41,43,59)         -0.8715         estimate D2E/DX2                !
 ! D309  D(38,42,58,57)         -4.674          estimate D2E/DX2                !
 ! D310  D(38,42,58,59)        138.5191         estimate D2E/DX2                !
 ! D311  D(40,42,58,57)       -148.2747         estimate D2E/DX2                !
 ! D312  D(40,42,58,59)         -5.0816         estimate D2E/DX2                !
 ! D313  D(41,43,46,44)         -0.4647         estimate D2E/DX2                !
 ! D314  D(41,43,46,61)       -141.8908         estimate D2E/DX2                !
 ! D315  D(59,43,46,44)        141.6873         estimate D2E/DX2                !
 ! D316  D(59,43,46,61)          0.2613         estimate D2E/DX2                !
 ! D317  D(41,43,59,58)          1.4703         estimate D2E/DX2                !
 ! D318  D(41,43,59,65)        143.4792         estimate D2E/DX2                !
 ! D319  D(46,43,59,58)       -140.9766         estimate D2E/DX2                !
 ! D320  D(46,43,59,65)          1.0323         estimate D2E/DX2                !
 ! D321  D(26,44,45,28)         -0.1569         estimate D2E/DX2                !
 ! D322  D(26,44,45,48)       -142.327          estimate D2E/DX2                !
 ! D323  D(46,44,45,28)        140.5007         estimate D2E/DX2                !
 ! D324  D(46,44,45,48)         -1.6694         estimate D2E/DX2                !
 ! D325  D(26,44,46,43)          1.361          estimate D2E/DX2                !
 ! D326  D(26,44,46,61)        139.0881         estimate D2E/DX2                !
 ! D327  D(45,44,46,43)       -134.2364         estimate D2E/DX2                !
 ! D328  D(45,44,46,61)          3.4906         estimate D2E/DX2                !
 ! D329  D(28,45,48,47)         -1.4432         estimate D2E/DX2                !
 ! D330  D(28,45,48,62)       -140.9872         estimate D2E/DX2                !
 ! D331  D(44,45,48,47)        137.1796         estimate D2E/DX2                !
 ! D332  D(44,45,48,62)         -2.3644         estimate D2E/DX2                !
 ! D333  D(43,46,61,62)        140.1939         estimate D2E/DX2                !
 ! D334  D(43,46,61,65)         -1.4458         estimate D2E/DX2                !
 ! D335  D(44,46,61,62)         -1.3207         estimate D2E/DX2                !
 ! D336  D(44,46,61,65)       -142.9604         estimate D2E/DX2                !
 ! D337  D(30,47,48,45)         -0.3125         estimate D2E/DX2                !
 ! D338  D(30,47,48,62)        142.5451         estimate D2E/DX2                !
 ! D339  D(50,47,48,45)       -147.8524         estimate D2E/DX2                !
 ! D340  D(50,47,48,62)         -4.9948         estimate D2E/DX2                !
 ! D341  D(30,47,50,49)          1.355          estimate D2E/DX2                !
 ! D342  D(30,47,50,63)       -142.6403         estimate D2E/DX2                !
 ! D343  D(48,47,50,49)        149.0708         estimate D2E/DX2                !
 ! D344  D(48,47,50,63)          5.0755         estimate D2E/DX2                !
 ! D345  D(45,48,62,61)          4.5219         estimate D2E/DX2                !
 ! D346  D(45,48,62,63)        146.5373         estimate D2E/DX2                !
 ! D347  D(47,48,62,61)       -139.008          estimate D2E/DX2                !
 ! D348  D(47,48,62,63)          3.0074         estimate D2E/DX2                !
 ! D349  D(31,49,50,47)          1.8727         estimate D2E/DX2                !
 ! D350  D(31,49,50,63)        141.4713         estimate D2E/DX2                !
 ! D351  D(54,49,50,47)       -138.6009         estimate D2E/DX2                !
 ! D352  D(54,49,50,63)          0.9978         estimate D2E/DX2                !
 ! D353  D(31,49,54,51)          1.166          estimate D2E/DX2                !
 ! D354  D(31,49,54,56)       -139.7249         estimate D2E/DX2                !
 ! D355  D(50,49,54,51)        145.1736         estimate D2E/DX2                !
 ! D356  D(50,49,54,56)          4.2827         estimate D2E/DX2                !
 ! D357  D(47,50,63,62)         -3.322          estimate D2E/DX2                !
 ! D358  D(47,50,63,64)        138.083          estimate D2E/DX2                !
 ! D359  D(49,50,63,62)       -146.4292         estimate D2E/DX2                !
 ! D360  D(49,50,63,64)         -5.0241         estimate D2E/DX2                !
 ! D361  D(34,51,52,36)         -1.1248         estimate D2E/DX2                !
 ! D362  D(34,51,52,53)       -136.193          estimate D2E/DX2                !
 ! D363  D(54,51,52,36)        135.0804         estimate D2E/DX2                !
 ! D364  D(54,51,52,53)          0.0122         estimate D2E/DX2                !
 ! D365  D(34,51,54,49)          3.7197         estimate D2E/DX2                !
 ! D366  D(34,51,54,56)        144.5173         estimate D2E/DX2                !
 ! D367  D(52,51,54,49)       -137.2518         estimate D2E/DX2                !
 ! D368  D(52,51,54,56)          3.5459         estimate D2E/DX2                !
 ! D369  D(36,52,53,37)         -2.2234         estimate D2E/DX2                !
 ! D370  D(36,52,53,55)       -143.5697         estimate D2E/DX2                !
 ! D371  D(51,52,53,37)        137.7471         estimate D2E/DX2                !
 ! D372  D(51,52,53,55)         -3.5992         estimate D2E/DX2                !
 ! D373  D(37,53,55,56)       -133.7195         estimate D2E/DX2                !
 ! D374  D(37,53,55,60)          4.5953         estimate D2E/DX2                !
 ! D375  D(52,53,55,56)          3.6072         estimate D2E/DX2                !
 ! D376  D(52,53,55,60)        141.922          estimate D2E/DX2                !
 ! D377  D(49,54,56,55)        132.2743         estimate D2E/DX2                !
 ! D378  D(49,54,56,64)         -5.5471         estimate D2E/DX2                !
 ! D379  D(51,54,56,55)         -3.5342         estimate D2E/DX2                !
 ! D380  D(51,54,56,64)       -141.3555         estimate D2E/DX2                !
 ! D381  D(53,55,56,54)         -0.0591         estimate D2E/DX2                !
 ! D382  D(53,55,56,64)        142.5268         estimate D2E/DX2                !
 ! D383  D(60,55,56,54)       -142.4683         estimate D2E/DX2                !
 ! D384  D(60,55,56,64)          0.1176         estimate D2E/DX2                !
 ! D385  D(53,55,60,57)         -1.2417         estimate D2E/DX2                !
 ! D386  D(53,55,60,66)       -144.4556         estimate D2E/DX2                !
 ! D387  D(56,55,60,57)        141.2561         estimate D2E/DX2                !
 ! D388  D(56,55,60,66)         -1.9578         estimate D2E/DX2                !
 ! D389  D(54,56,64,63)          1.5099         estimate D2E/DX2                !
 ! D390  D(54,56,64,66)        144.2854         estimate D2E/DX2                !
 ! D391  D(55,56,64,63)       -140.9955         estimate D2E/DX2                !
 ! D392  D(55,56,64,66)          1.7799         estimate D2E/DX2                !
 ! D393  D(39,57,58,42)          1.4428         estimate D2E/DX2                !
 ! D394  D(39,57,58,59)       -142.4949         estimate D2E/DX2                !
 ! D395  D(60,57,58,42)        142.9046         estimate D2E/DX2                !
 ! D396  D(60,57,58,59)         -1.033          estimate D2E/DX2                !
 ! D397  D(39,57,60,55)         -3.6234         estimate D2E/DX2                !
 ! D398  D(39,57,60,66)        135.1217         estimate D2E/DX2                !
 ! D399  D(58,57,60,55)       -140.4665         estimate D2E/DX2                !
 ! D400  D(58,57,60,66)         -1.7215         estimate D2E/DX2                !
 ! D401  D(42,58,59,43)          1.3948         estimate D2E/DX2                !
 ! D402  D(42,58,59,65)       -135.9354         estimate D2E/DX2                !
 ! D403  D(57,58,59,43)        140.869          estimate D2E/DX2                !
 ! D404  D(57,58,59,65)          3.5389         estimate D2E/DX2                !
 ! D405  D(43,59,65,61)         -1.9508         estimate D2E/DX2                !
 ! D406  D(43,59,65,66)       -144.3361         estimate D2E/DX2                !
 ! D407  D(58,59,65,61)        139.0626         estimate D2E/DX2                !
 ! D408  D(58,59,65,66)         -3.3227         estimate D2E/DX2                !
 ! D409  D(55,60,66,64)          3.0454         estimate D2E/DX2                !
 ! D410  D(55,60,66,65)        145.593          estimate D2E/DX2                !
 ! D411  D(57,60,66,64)       -140.6014         estimate D2E/DX2                !
 ! D412  D(57,60,66,65)          1.9462         estimate D2E/DX2                !
 ! D413  D(46,61,62,48)         -2.724          estimate D2E/DX2                !
 ! D414  D(46,61,62,63)       -139.6737         estimate D2E/DX2                !
 ! D415  D(65,61,62,48)        133.9872         estimate D2E/DX2                !
 ! D416  D(65,61,62,63)         -2.9625         estimate D2E/DX2                !
 ! D417  D(46,61,65,59)          2.0678         estimate D2E/DX2                !
 ! D418  D(46,61,65,66)        144.574          estimate D2E/DX2                !
 ! D419  D(62,61,65,59)       -140.0079         estimate D2E/DX2                !
 ! D420  D(62,61,65,66)          2.4983         estimate D2E/DX2                !
 ! D421  D(48,62,63,50)          0.1893         estimate D2E/DX2                !
 ! D422  D(48,62,63,64)       -141.1606         estimate D2E/DX2                !
 ! D423  D(61,62,63,50)        141.9596         estimate D2E/DX2                !
 ! D424  D(61,62,63,64)          0.6097         estimate D2E/DX2                !
 ! D425  D(50,63,64,56)          3.7404         estimate D2E/DX2                !
 ! D426  D(50,63,64,66)       -134.7364         estimate D2E/DX2                !
 ! D427  D(62,63,64,56)        140.6677         estimate D2E/DX2                !
 ! D428  D(62,63,64,66)          2.1909         estimate D2E/DX2                !
 ! D429  D(56,64,66,60)         -3.0024         estimate D2E/DX2                !
 ! D430  D(56,64,66,65)       -145.2672         estimate D2E/DX2                !
 ! D431  D(63,64,66,60)        139.6189         estimate D2E/DX2                !
 ! D432  D(63,64,66,65)         -2.646          estimate D2E/DX2                !
 ! D433  D(59,65,66,60)          0.5358         estimate D2E/DX2                !
 ! D434  D(59,65,66,64)        138.5059         estimate D2E/DX2                !
 ! D435  D(61,65,66,60)       -137.6787         estimate D2E/DX2                !
 ! D436  D(61,65,66,64)          0.2914         estimate D2E/DX2                !
 --------------------------------------------------------------------------------
 Trust Radius=3.00D-01 FncErr=1.00D-07 GrdErr=1.00D-06 EigMax=2.50D+02 EigMin=1.00D-04
 Number of steps in this run=    432 maximum allowed number of steps=    432.
 GradGradGradGradGradGradGradGradGradGradGradGradGradGradGradGradGradGrad

 Leave Link  103 at Fri Jul 15 07:56:48 2022, MaxMem=  1342177280 cpu:               1.4 elap:               0.0
 (Enter /home/mkliu/g16/l202.exe)
 Stoichiometry    C66Cl6
 Framework group  C1[X(C66Cl6)]
 Deg. of freedom   210
[...]
 Alpha virt. eigenvalues --    1.07686   1.07845   1.08105   1.08287   1.08605
 Alpha virt. eigenvalues --    1.08926   1.09206   1.09748   1.10118   1.10428
 Alpha virt. eigenvalues --    1.10647   1.11118   1.11508   1.11689   1.12013
 Alpha virt. eigenvalues --    1.12238   1.12467   1.12953   1.13101   1.13946
 Alpha virt. eigenvalues --    1.14244   1.14331   1.14810   1.15528   1.15784
 Alpha virt. eigenvalues --    1.16591   1.16628   1.17176   1.17677   1.17806
 Alpha virt. eigenvalues --    1.18386   1.18644   1.18806   1.19001   1.19387
 Alpha virt. eigenvalues --    1.20023   1.20591   1.20809   1.21220   1.21622
 Alpha virt. eigenvalues --    1.22178   1.22530   1.22887   1.23190   1.23226
 Alpha virt. eigenvalues --    1.24411   1.24557   1.25184   1.25337   1.25877
 Alpha virt. eigenvalues --    1.26166   1.26655   1.27306   1.27742   1.27923
 Alpha virt. eigenvalues --    1.28413   1.29084   1.29506   1.29747   1.30660
 Alpha virt. eigenvalues --    1.30901   1.31267   1.31782   1.32239   1.32449
 Alpha virt. eigenvalues --    1.32712   1.32820   1.33047   1.33441   1.33802
 Alpha virt. eigenvalues --    1.34203   1.34492   1.34721   1.34978   1.35279
 Alpha virt. eigenvalues --    1.35435   1.35816   1.36100   1.36561   1.37198
 Alpha virt. eigenvalues --    1.37648   1.37933   1.38053   1.38428   1.38594
 Alpha virt. eigenvalues --    1.39029   1.39424   1.39960   1.40358   1.40517
 Alpha virt. eigenvalues --    1.40908   1.41175   1.41600   1.41757   1.41834
 Alpha virt. eigenvalues --    1.42213   1.42386   1.42604   1.42804   1.42941
 Alpha virt. eigenvalues --    1.43199   1.43479   1.44378   1.44479   1.44614
 Alpha virt. eigenvalues --    1.44884   1.45087   1.45299   1.45474   1.45809
 Alpha virt. eigenvalues --    1.45959   1.46340   1.46385   1.46764   1.46885
 Alpha virt. eigenvalues --    1.47212   1.47280   1.47603   1.47916   1.48101
 Alpha virt. eigenvalues --    1.48575   1.48847   1.48868   1.49158   1.49452
 Alpha virt. eigenvalues --    1.49945   1.50153   1.50387   1.51039   1.51236
 Alpha virt. eigenvalues --    1.51375   1.51657   1.51856   1.52193   1.52753
 Alpha virt. eigenvalues --    1.53097   1.53233   1.53349   1.53816   1.54000
 Alpha virt. eigenvalues --    1.54524   1.54957   1.55164   1.55618   1.56058
 Alpha virt. eigenvalues --    1.56573   1.56785   1.57247   1.57390   1.57720
 Alpha virt. eigenvalues --    1.58174   1.58961   1.59478   1.59836   1.60075
 Alpha virt. eigenvalues --    1.60615   1.61163   1.61526   1.61939   1.62291
 Alpha virt. eigenvalues --    1.62543   1.62838   1.63271   1.63884   1.63961
 Alpha virt. eigenvalues --    1.64398   1.64563   1.64861   1.65466   1.66048
 Alpha virt. eigenvalues --    1.66239   1.66887   1.67127   1.67723   1.67899
 Alpha virt. eigenvalues --    1.68431   1.68449   1.68954   1.69412   1.69944
 Alpha virt. eigenvalues --    1.70123   1.70423   1.70901   1.71424   1.71590
 Alpha virt. eigenvalues --    1.72004   1.72345   1.72929   1.73188   1.73363
 Alpha virt. eigenvalues --    1.73857   1.74385   1.74727   1.75204   1.75842
 Alpha virt. eigenvalues --    1.76024   1.76509   1.76705   1.77022   1.77273
 Alpha virt. eigenvalues --    1.77438   1.77983   1.77999   1.78716   1.78958
 Alpha virt. eigenvalues --    1.79429   1.80044   1.80394   1.80415   1.80713
 Alpha virt. eigenvalues --    1.81358   1.82171   1.82704   1.82825   1.83445
 Alpha virt. eigenvalues --    1.84208   1.84817   1.85826   1.85867   1.86199
 Alpha virt. eigenvalues --    1.87305   1.87363   1.87710   1.88756   1.88998
 Alpha virt. eigenvalues --    1.89765   1.89840   1.90465   1.90852   1.91486
 Alpha virt. eigenvalues --    1.91825   1.92058   1.92560   1.92934   1.93328
 Alpha virt. eigenvalues --    1.93671   1.94301   1.94771   1.95333   1.95708
 Alpha virt. eigenvalues --    1.96335   1.97269   1.98132   1.98300   1.98799
 Alpha virt. eigenvalues --    1.99824   1.99955   2.00360   2.00495   2.00806
 Alpha virt. eigenvalues --    2.01309   2.01621   2.01882   2.02015   2.02224
 Alpha virt. eigenvalues --    2.02632   2.02728   2.03196   2.03655   2.04364
 Alpha virt. eigenvalues --    2.05548   2.05848   2.06351   2.06844   2.07166
 Alpha virt. eigenvalues --    2.07478   2.08078   2.08574   2.09238   2.09608
 Alpha virt. eigenvalues --    2.09719   2.10135   2.10656   2.11024   2.11411
 Alpha virt. eigenvalues --    2.11799   2.12121   2.12590   2.13155   2.13932
 Alpha virt. eigenvalues --    2.14351   2.14849   2.15030   2.15591   2.15700
 Alpha virt. eigenvalues --    2.16855   2.17222   2.17788   2.18441   2.19233
 Alpha virt. eigenvalues --    2.19352   2.19877   2.20203   2.20580   2.21016
 Alpha virt. eigenvalues --    2.21596   2.21926   2.22215   2.22985   2.23450
 Alpha virt. eigenvalues --    2.23514   2.24172   2.24337   2.24413   2.25354
 Alpha virt. eigenvalues --    2.25460   2.26000   2.26394   2.26612   2.27467
 Alpha virt. eigenvalues --    2.27799   2.28509   2.28924   2.29080   2.29499
 Alpha virt. eigenvalues --    2.29706   2.30316   2.30995   2.31388   2.32073
 Alpha virt. eigenvalues --    2.32400   2.33234   2.33615   2.33961   2.34163
 Alpha virt. eigenvalues --    2.34696   2.34779   2.35660   2.36274   2.36964
 Alpha virt. eigenvalues --    2.37285   2.37925   2.38040   2.38306   2.39412
 Alpha virt. eigenvalues --    2.39875   2.39932   2.40265   2.41089   2.41501
 Alpha virt. eigenvalues --    2.41817   2.42062   2.42227   2.42796   2.43614
 Alpha virt. eigenvalues --    2.43727   2.44564   2.44593   2.44788   2.45364
 Alpha virt. eigenvalues --    2.45562   2.46638   2.47309   2.47828   2.47980
 Alpha virt. eigenvalues --    2.49157   2.49563   2.50050   2.50757   2.51962
 Alpha virt. eigenvalues --    2.52460   2.52896   2.53295   2.54422   2.54635
 Alpha virt. eigenvalues --    2.54975   2.55215   2.55617   2.55939   2.56017
 Alpha virt. eigenvalues --    2.56221   2.56768   2.57143   2.58063   2.58175
 Alpha virt. eigenvalues --    2.58673   2.59156   2.59879   2.60182   2.60692
 Alpha virt. eigenvalues --    2.61303   2.61430   2.61742   2.62418   2.63162
 Alpha virt. eigenvalues --    2.63357   2.63523   2.64370   2.64798   2.65771
 Alpha virt. eigenvalues --    2.65861   2.67899   2.68725   2.69121   2.69510
 Alpha virt. eigenvalues --    2.70073   2.70616   2.71260   2.71881   2.72784
 Alpha virt. eigenvalues --    2.73771   2.74369   2.75469   2.76603   2.77856
 Alpha virt. eigenvalues --    2.78442   2.78989   2.79500   2.80191   2.80587
 Alpha virt. eigenvalues --    2.81044   2.81454   2.83456   2.84220   2.84899
 Alpha virt. eigenvalues --    2.85200   2.86022   2.86377   2.87788   2.88086
 Alpha virt. eigenvalues --    2.88930   2.90607   2.90948   2.92173   2.92303
 Alpha virt. eigenvalues --    2.92968   2.93722   2.93884   2.94478   2.95218
 Alpha virt. eigenvalues --    2.95458   2.95998   2.96552   2.96888   2.97031
 Alpha virt. eigenvalues --    2.97240   2.97972   2.98097   2.98387   2.98662
 Alpha virt. eigenvalues --    2.99177   2.99514   2.99734   3.00364   3.00543
 Alpha virt. eigenvalues --    3.01231   3.01684   3.02225   3.02488   3.02546
 Alpha virt. eigenvalues --    3.03228   3.03541   3.03894   3.04002   3.04524
 Alpha virt. eigenvalues --    3.04965   3.05336   3.05488   3.05723   3.06037
 Alpha virt. eigenvalues --    3.06136   3.06319   3.06878   3.07750   3.07900
 Alpha virt. eigenvalues --    3.08494   3.08694   3.09214   3.09572   3.10219
 Alpha virt. eigenvalues --    3.10416   3.10856   3.11191   3.11357   3.11660
 Alpha virt. eigenvalues --    3.12059   3.12219   3.12521   3.12901   3.13007
 Alpha virt. eigenvalues --    3.13263   3.13484   3.13868   3.14241   3.14870
 Alpha virt. eigenvalues --    3.15493   3.15632   3.16341   3.16845   3.17248
 Alpha virt. eigenvalues --    3.17681   3.18060   3.18210   3.18570   3.19140
 Alpha virt. eigenvalues --    3.19762   3.20316   3.20641   3.21693   3.22156
 Alpha virt. eigenvalues --    3.24439   3.25082   3.26746   3.28068   3.30920
 Alpha virt. eigenvalues --    3.33026   3.38887   3.40777   3.41990   3.42915
 Alpha virt. eigenvalues --    3.43855   3.44602   3.45855   3.46622   3.47521
 Alpha virt. eigenvalues --    3.48269   3.50157   3.50473   3.51063   3.51350
 Alpha virt. eigenvalues --    3.51547   3.52351   3.53066   3.55514   3.56738
 Alpha virt. eigenvalues --    3.56754   3.57395   3.57845   3.59655   3.60395
 Alpha virt. eigenvalues --    3.61523   3.62849   3.63162   3.63450   3.64617
 Alpha virt. eigenvalues --    3.65376   3.67803   3.68336   3.69122   3.69767
 Alpha virt. eigenvalues --    3.70351   3.71379   3.72328   3.72562   3.73216
 Alpha virt. eigenvalues --    3.74019   3.75422   3.77355   3.79275   3.80697
 Alpha virt. eigenvalues --    3.80952   3.82464   3.83370   3.83888   3.84287
 Alpha virt. eigenvalues --    3.85747   3.86132   3.86834   3.87178   3.88171
 Alpha virt. eigenvalues --    3.88349   3.88675   3.88928   3.89791   3.90301
 Alpha virt. eigenvalues --    3.91267   3.92811   3.95173   4.00878   4.06777
 Alpha virt. eigenvalues --    4.16671   4.21355   4.22150   4.22501   4.26265
 Alpha virt. eigenvalues --    4.27494   4.32696   4.34893   4.36376   4.37331
 Alpha virt. eigenvalues --    4.37614   4.40567   4.43040   4.43316   4.51448
 Alpha virt. eigenvalues --    4.53060   4.59193   4.61515   4.61867   4.63482
 Alpha virt. eigenvalues --    4.64761   4.66096   4.70238   4.74779   4.78835
 Alpha virt. eigenvalues --    4.82169   4.84846   4.89716   4.92632   4.98059
 Alpha virt. eigenvalues --    4.99097   5.00925   5.02649   5.04621   9.54887
 Alpha virt. eigenvalues --    9.56070   9.60161   9.64182   9.68624   9.71605
 Alpha virt. eigenvalues --   22.99635  23.18767  23.22710  23.23514  23.43019
 Alpha virt. eigenvalues --   23.44893  23.49118  23.49313  23.50339  23.61998
 Alpha virt. eigenvalues --   23.65147  23.66522  23.67383  23.68388  23.71878
 Alpha virt. eigenvalues --   23.72379  23.74358  23.75290  23.75639  23.77825
 Alpha virt. eigenvalues --   23.79168  23.79535  23.81446  23.82647  23.83441
 Alpha virt. eigenvalues --   23.85501  23.87965  23.89701  23.90838  23.91741
 Alpha virt. eigenvalues --   23.92259  23.93059  23.93433  23.94324  23.95163
 Alpha virt. eigenvalues --   23.95363  23.95905  23.96220  23.96797  23.97159
 Alpha virt. eigenvalues --   23.97645  23.98432  23.98653  23.99155  24.00622
 Alpha virt. eigenvalues --   24.02926  24.03808  24.04774  24.06190  24.06756
 Alpha virt. eigenvalues --   24.07164  24.07432  24.08188  24.08676  24.09294
 Alpha virt. eigenvalues --   24.09609  24.09680  24.10509  24.10972  24.11270
 Alpha virt. eigenvalues --   24.12125  24.12363  24.12773  24.13663  24.14374
 Alpha virt. eigenvalues --   24.17847  25.52085  25.58569  25.61711  25.67181
 Alpha virt. eigenvalues --   25.72697  25.79086  25.79861  25.81663  25.85731
 Alpha virt. eigenvalues --   25.86881  25.91623  25.99804  26.20557  26.28149
 Alpha virt. eigenvalues --   26.38712  26.44572  26.62757  26.64894 215.50091
 Alpha virt. eigenvalues --  215.51386 215.56157 215.60780 215.65803 215.69090
          Condensed to atoms (all electrons):
 Mulliken charges:
               1
     1  C   -0.264567
     2  C   -0.266550
     3  C   -0.272076
     4  C    0.119060
     5  C    0.204164
     6  C    0.058813
     7  C   -0.514033
     8  C    0.190187
     9  C    0.185764
    10  C    0.051941
    11  C    0.074799
    12  C   -0.434088
    13  C    0.162556
    14  C    0.086443
    15  C   -0.007332
    16  C    0.013942
    17  C    0.017725
    18  C    0.019159
    19  C    0.019079
    20  C    0.164795
    21  C    0.045044
    22  C    0.193213
    23  C   -0.637946
    24  C    0.034977
    25  C   -0.003100
    26  C   -0.003759
    27  C    0.085236
    28  C    0.011440
    29  C    0.087426
    30  C    0.020258
    31  C    0.004488
    32  C   -0.001680
    33  C    0.000023
    34  C   -0.003101
    35  C    0.002794
    36  C   -0.005006
    37  C   -0.003905
    38  C   -0.021678
    39  C   -0.002921
    40  C    0.136908
    41  C    0.042538
    42  C    0.024662
    43  C   -0.003846
    44  C   -0.000270
    45  C   -0.008499
    46  C    0.005976
    47  C   -0.008380
    48  C    0.002800
    49  C   -0.002786
    50  C   -0.004376
    51  C    0.002421
    52  C    0.005775
    53  C    0.000996
    54  C    0.004788
    55  C    0.002167
    56  C    0.001047
    57  C    0.003325
    58  C    0.000362
    59  C    0.007995
    60  C    0.002457
    61  C    0.003125
    62  C    0.002107
    63  C    0.001806
    64  C    0.003351
    65  C   -0.001657
    66  C    0.002078
    67  Cl   0.072434
    68  Cl   0.060774
    69  Cl   0.066298
    70  Cl   0.045797
    71  Cl   0.082381
    72  Cl   0.033860
 Sum of Mulliken charges =  -0.00000
 Mulliken charges with hydrogens summed into heavy atoms:
               1
     1  C   -0.264567
     2  C   -0.266550
     3  C   -0.272076
     4  C    0.119060
     5  C    0.204164
     6  C    0.058813
     7  C   -0.514033
     8  C    0.190187
     9  C    0.185764
    10  C    0.051941
    11  C    0.074799
    12  C   -0.434088
    13  C    0.162556
    14  C    0.086443
    15  C   -0.007332
    16  C    0.013942
    17  C    0.017725
    18  C    0.019159
    19  C    0.019079
    20  C    0.164795
    21  C    0.045044
    22  C    0.193213
    23  C   -0.637946
    24  C    0.034977
    25  C   -0.003100
    26  C   -0.003759
    27  C    0.085236
    28  C    0.011440
    29  C    0.087426
    30  C    0.020258
    31  C    0.004488
    32  C   -0.001680
    33  C    0.000023
    34  C   -0.003101
    35  C    0.002794
    36  C   -0.005006
    37  C   -0.003905
    38  C   -0.021678
    39  C   -0.002921
    40  C    0.136908
    41  C    0.042538
    42  C    0.024662
    43  C   -0.003846
    44  C   -0.000270
    45  C   -0.008499
    46  C    0.005976
    47  C   -0.008380
    48  C    0.002800
    49  C   -0.002786
    50  C   -0.004376
    51  C    0.002421
    52  C    0.005775
    53  C    0.000996
    54  C    0.004788
    55  C    0.002167
    56  C    0.001047
    57  C    0.003325
    58  C    0.000362
    59  C    0.007995
    60  C    0.002457
    61  C    0.003125
    62  C    0.002107
    63  C    0.001806
    64  C    0.003351
    65  C   -0.001657
    66  C    0.002078
    67  Cl   0.072434
    68  Cl   0.060774
    69  Cl   0.066298
    70  Cl   0.045797
    71  Cl   0.082381
    72  Cl   0.033860
 Electronic spatial extent (au):  <R**2>=          32467.3601
 Charge=             -0.0000 electrons
 Dipole moment (field-independent basis, Debye):
    X=             -4.6487    Y=             -1.2112    Z=             -0.5134  Tot=              4.8313
 Quadrupole moment (field-independent basis, Debye-Ang):
   XX=           -458.8161   YY=           -459.6015   ZZ=           -441.3329
   XY=              1.5927   XZ=             -1.9312   YZ=              4.1745
 Traceless Quadrupole moment (field-independent basis, Debye-Ang):
   XX=             -5.5659   YY=             -6.3513   ZZ=             11.9173
   XY=              1.5927   XZ=             -1.9312   YZ=              4.1745
 Octapole moment (field-independent basis, Debye-Ang**2):
  XXX=             91.3536  YYY=            -11.8017  ZZZ=              5.8956  XYY=             27.4070
  XXY=             16.5923  XXZ=             -2.8522  XZZ=             54.6401  YZZ=             11.4803
  YYZ=              2.5211  XYZ=              5.9084
 Hexadecapole moment (field-independent basis, Debye-Ang**3):
 XXXX=         -22678.3902 YYYY=         -15197.5133 ZZZZ=         -10054.8349 XXXY=             -1.8643
 XXXZ=             29.1620 YYYX=             20.5187 YYYZ=            -33.4943 ZZZX=             30.6433
 ZZZY=            -63.4007 XXYY=          -6293.0865 XXZZ=          -5421.6992 YYZZ=          -4162.7128
 XXYZ=            -10.4423 YYXZ=             -4.9480 ZZXY=             -6.4262
 N-N= 1.378653606649D+04 E-N=-3.996375325944D+04  KE= 5.260073751420D+03
 No NMR shielding tensors so no spin-rotation constants.
 Leave Link  601 at Fri Jul 15 09:12:28 2022, MaxMem=  1342177280 cpu:              62.6 elap:               1.6
 (Enter /home/mkliu/g16/l9999.exe)
 1\1\GINC-NODE04\FOpt\RB3LYP\6-311G(d,p)\C66Cl6\MKLIU\15-Jul-2022\0\\#P
  opt b3lyp/6-311G(d, p) empiricaldispersion=GD3\\force\\0,1\C,-1.33667
 40586,1.8836283761,-3.9926097429\C,0.2063493481,2.2363909767,-3.988956
 5684\C,0.9924510121,0.8941004604,-4.3963347687\C,-1.2862326876,0.40893
 2198,-3.8663583519\C,-0.0508208062,-0.1406125056,-4.1227716637\C,-2.16
 97521929,-0.1348094625,-2.9372754325\C,-2.2303643099,2.2897979198,-2.7
 06383685\C,-2.7272004501,0.9245538161,-2.1607636799\C,-1.4784631362,2.
 9415005721,-1.5516915849\C,0.6993817536,2.466518666,-2.6064604954\C,-0
 .055689979,3.1272447041,-1.5918275835\C,2.1990731317,0.7507664122,-3.3
 31977294\C,1.8461368394,1.7801989008,-2.3104462027\C,2.3319804355,-0.5
 978161123,-2.5994860101\C,0.2254985518,-1.3788189273,-3.5966913348\C,1
 .5218938309,-1.6645159415,-2.9672430896\C,-1.945045718,-1.4307503005,-
 2.4090864137\C,-0.7732401198,-2.0986859591,-2.879935423\C,-2.468433068
 4,-1.732929404,-1.0941147206\C,-3.1273625165,0.7041697906,-0.870840196
 4\C,-3.0759805663,-0.6496049704,-0.3135616265\C,-2.10002731,2.91929698
 13,-0.3174875371\C,-3.2260416181,1.9299132899,0.03620966\C,-1.39611090
 37,3.2542991643,0.8745022013\C,0.6457529783,3.3906439091,-0.4069474124
 \C,-0.0341197235,3.5521416495,0.8389579236\C,2.4387459685,1.8047975821
 ,-1.0150223056\C,1.9241996141,2.7719084598,-0.1380039939\C,2.965749521
 7,-0.6264688359,-1.2867602686\C,3.1004217706,0.6174706067,-0.502101619
 9\C,2.9368386109,-1.8421257452,-0.5594583457\C,1.3173001543,-2.7870921
 93,-2.1012028694\C,-0.1075234022,-3.0643653919,-2.0515093759\C,2.07274
 14622,-2.9273289174,-0.9552026284\C,-1.9196899116,-2.8506007886,-0.412
 0127404\C,-0.6928264611,-3.4845130424,-0.8809864071\C,-1.9109851892,-2
 .9226928227,1.009045626\C,-3.1393214094,-0.8066242202,1.0883909619\C,-
 2.5220921576,-1.911347036,1.7470277242\C,-2.915311391,1.619192319,1.48
 51520326\C,-1.9288666317,2.5134475325,1.9981317116\C,-3.0138876889,0.3
 517279151,1.9879444464\C,-1.0998660829,2.1354281612,3.057749056\C,0.83
 69187439,3.1109036868,1.9053482686\C,2.059259609,2.6401695769,1.283658
 617\C,0.3206795426,2.4383028563,3.0053701676\C,3.273302219,0.539911572
 1,0.8944061099\C,2.7321558655,1.5448078648,1.791198761\C,3.0264854433,
 -1.8843889863,0.8851867226\C,3.2151234628,-0.7221241172,1.5998863346\C
 ,1.4942620525,-3.5181496087,0.2364596032\C,0.1255346004,-3.8009718172,
 0.2714523165\C,-0.6451950593,-3.4878791017,1.4511841103\C,2.1232008291
 ,-2.9078590431,1.3826009748\C,-0.0205804332,-2.9764289513,2.584401559\
 C,1.3964783338,-2.6780958276,2.5491106703\C,-1.9105995047,-1.448214015
 5,2.9831109134\C,-2.2108191836,-0.0425896151,3.120939472\C,-1.25577067
 08,0.8308796857,3.6472719242\C,-0.673648344,-1.9471261032,3.3755264446
 \C,1.0390238619,1.3126318943,3.5667392522\C,2.2380517011,0.8891425445,
 2.986444505\C,2.5330701543,-0.5181216504,2.8659471651\C,1.6166195871,-
 1.4658494127,3.3186126569\C,0.061897973,0.325668703,3.9904382203\C,0.3
 457502302,-1.0321367005,3.8614376949\Cl,-2.1005395687,2.2811309559,-5.
 5861783107\Cl,0.6428331002,3.703653714,-4.9486112584\Cl,1.4865620547,0
 .795441847,-6.1217069112\Cl,3.8438203802,1.1401946184,-4.0588703687\Cl
 ,-3.6121402729,3.3930815984,-3.1445360103\Cl,-4.9308669228,2.659262332
 5,-0.0266516445\\Version=ES64L-G16RevA.03\State=1-A\HF=-5276.7811375\R
 MSD=4.591e-09\RMSF=3.748e-05\Dipole=0.3840473,-1.0959578,1.5047506\Qua
 drupole=-3.6929484,5.8007113,-2.1077629,3.5328513,3.3903788,4.7136484\
 PG=C01 [X(C66Cl6)]\\@


 YOU ARE IN A MAZE OF TWISTY LITTLE PASSAGES.
 Job cpu time:       2 days 12 hours  6 minutes 46.0 seconds.
 Elapsed time:       0 days  1 hours 15 minutes 19.0 seconds.
 File lengths (MBytes):  RWF=   1106 Int=      0 D2E=      0 Chk=    136 Scr=      1
 Normal termination of Gaussian 16 at Fri Jul 15 09:12:30 2022.
