 Entering Gaussian System, Link 0=g16
 Input=drgjra428s074_addon_8.gjf
 Output=drgjra428s074_addon_8.log
 Initial command:
 /home/mkliu/g16/l1.exe "/data/scratch/Gau-200166.inp" -scrdir="/data/scratch/"
 Entering Link 1 = /home/mkliu/g16/l1.exe PID=    200167.
  
 Copyright (c) 1988,1990,1992,1993,1995,1998,2003,2009,2016,
            Gaussian, Inc.  All Rights Reserved.
  
 This is part of the Gaussian(R) 16 program.  It is based on
 the Gaussian(R) 09 system (copyright 2009, Gaussian, Inc.),
 the Gaussian(R) 03 system (copyright 2003, Gaussian, Inc.),
 the Gaussian(R) 98 system (copyright 1998, Gaussian, Inc.),
 the Gaussian(R) 94 system (copyright 1995, Gaussian, Inc.),
 the Gaussian 92(TM) system (copyright 1992, Gaussian, Inc.),
 the Gaussian 90(TM) system (copyright 1990, Gaussian, Inc.),
 the Gaussian 88(TM) system (copyright 1988, Gaussian, Inc.),
 the Gaussian 86(TM) system (copyright 1986, Carnegie Mellon
 University), and the Gaussian 82(TM) system (copyright 1983,
 Carnegie Mellon University). Gaussian is a federally registered
 trademark of Gaussian, Inc.
  
 This software contains proprietary and confidential information,
 including trade secrets, belonging to Gaussian, Inc.
  
 This software is provided under written license and may be
 used, copied, transmitted, or stored only in accord with that
 written license.
  
 The following legend is applicable only to US Government
 contracts under FAR:
  
                    RESTRICTED RIGHTS LEGEND
  
 Use, reproduction and disclosure by the US Government is
 subject to restrictions as set forth in subparagraphs (a)
 and (c) of the Commercial Computer Software - Restricted
 Rights clause in FAR 52.227-19.
  
 Gaussian, Inc.
 340 Quinnipiac St., Bldg. 40, Wallingford CT 06492
  
  
 ---------------------------------------------------------------
 Warning -- This program may not be used in any manner that
 competes with the business of Gaussian, Inc. or will provide
 assistance to any competitor of Gaussian, Inc.  The licensee
 of this program is prohibited from giving any competitor of
 Gaussian, Inc. access to this program.  By using this program,
 the user acknowledges that Gaussian, Inc. is engaged in the
 business of creating and licensing software in the field of
 computational chemistry and represents and warrants to the
 licensee that it is not a competitor of Gaussian, Inc. and that
 it will not use this program in any manner prohibited above.
 ---------------------------------------------------------------
  

 Cite this work as:
 Gaussian 16, Revision A.03,
 M. J. Frisch, G. W. Trucks, H. B. Schlegel, G. E. Scuseria, 
 M. A. Robb, J. R. Cheeseman, G. Scalmani, V. Barone, 
 G. A. Petersson, H. Nakatsuji, X. Li, M. Caricato, A. V. Marenich, 
 J. Bloino, B. G. Janesko, R. Gomperts, B. Mennucci, H. P. Hratchian, 
 J. V. Ortiz, A. F. Izmaylov, J. L. Sonnenberg, D. Williams-Young, 
 F. Ding, F. Lipparini, F. Egidi, J. Goings, B. Peng, A. Petrone, 
 T. Henderson, D. Ranasinghe, V. G. Zakrzewski, J. Gao, N. Rega, 
 G. Zheng, W. Liang, M. Hada, M. Ehara, K. Toyota, R. Fukuda, 
 J. Hasegawa, M. Ishida, T. Nakajima, Y. Honda, O. Kitao, H. Nakai, 
 T. Vreven, K. Throssell, J. A. Montgomery, Jr., J. E. Peralta, 
 F. Ogliaro, M. J. Bearpark, J. J. Heyd, E. N. Brothers, K. N. Kudin, 
 V. N. Staroverov, T. A. Keith, R. Kobayashi, J. Normand, 
 K. Raghavachari, A. P. Rendell, J. C. Burant, S. S. Iyengar, 
 J. Tomasi, M. Cossi, J. M. Millam, M. Klene, C. Adamo, R. Cammi, 
 J. W. Ochterski, R. L. Martin, K. Morokuma, O. Farkas, 
 J. B. Foresman, and D. J. Fox, Gaussian, Inc., Wallingford CT, 2016.
 
 ******************************************
 Gaussian 16:  ES64L-G16RevA.03 25-Dec-2016
                15-Jul-2022 
 ******************************************
 %mem=10GB
 %chk=drgjra428s074_addon_8.chk
 %nprocshared=48
 Will use up to   48 processors via shared memory.
 -------------------------------------------------
 #P opt b3lyp/6-311G(d, p) empiricaldispersion=GD3
 -------------------------------------------------
 1/18=20,19=15,26=3,38=1/1,3;
 2/9=110,12=2,17=6,18=5,40=1/2;
 3/5=4,6=6,7=101,11=2,25=1,30=1,71=1,74=-5,124=31/1,2,3;
 4//1;
 5/5=2,38=5/2;
 6/7=2,8=2,9=2,10=2,28=1/1;
 7//1,2,3,16;
 1/18=20,19=15,26=3/3(2);
 2/9=110/2;
 99//99;
 2/9=110/2;
 3/5=4,6=6,7=101,11=2,25=1,30=1,71=1,74=-5,124=31/1,2,3;
 4/5=5,16=3,69=1/1;
 5/5=2,38=5/2;
 7//1,2,3,16;
 1/18=20,19=15,26=3/3(-5);
 2/9=110/2;
 6/7=2,8=2,9=2,10=2,19=2,28=1/1;
 99/9=1/99;
 Leave Link    1 at Fri Jul 15 10:54:50 2022, MaxMem=  1342177280 cpu:               2.1 elap:               0.1
 (Enter /home/mkliu/g16/l101.exe)
 -----
 force
 -----
 Symbolic Z-matrix:
 Charge =  0 Multiplicity = 1
 C                    -1.34227   1.87814  -3.94186 
 C                     0.18759   2.28509  -4.05739 
 C                     0.94089   0.91364  -4.26162 
 C                    -1.29133   0.39432  -3.84245 
 C                    -0.08016  -0.15306  -4.12484 
 C                    -2.14594  -0.13455  -2.87563 
 C                    -2.16407   2.2529   -2.67992 
 C                    -2.69052   0.92795  -2.14229 
 C                    -1.37858   2.86267  -1.5442 
 C                     0.85567   2.8768   -2.76766 
 C                    -0.04598   3.18289  -1.60273 
 C                     1.76349   0.67869  -3.02747 
 C                     1.77894   1.80637  -2.24985 
 C                     2.15918  -0.5579   -2.51277 
 C                     0.20655  -1.40201  -3.59265 
 C                     1.59997  -1.81206  -3.16862 
 C                    -1.92824  -1.41862  -2.3489 
 C                    -0.74847  -2.05922  -2.80693 
 C                    -2.4851   -1.72659  -1.06496 
 C                    -3.09774   0.69681  -0.83309 
 C                    -3.08668  -0.65726  -0.2993 
 C                    -2.03865   2.83345  -0.29345 
 C                    -2.94938   1.80033   0.05359 
 C                    -1.38293   3.2575    0.89927 
 C                     0.65206   3.4201   -0.37547 
 C                    -0.0421    3.55186   0.86846 
 C                     2.33244   1.77448  -0.98068 
 C                     1.89454   2.82989  -0.0955 
 C                     2.79118  -0.60413  -1.25931 
 C                     2.91022   0.58163  -0.52082 
 C                     3.13384  -1.94525  -0.63021 
 C                     1.30552  -2.81859  -2.09536 
 C                    -0.10059  -3.03215  -1.9961 
 C                     2.04927  -2.93488  -0.96609 
 C                    -1.93927  -2.83642  -0.38745 
 C                    -0.71999  -3.45275  -0.84688 
 C                    -1.94913  -2.91632   1.03672 
 C                    -3.15403  -0.7993    1.09362 
 C                    -2.55888  -1.91856   1.76799 
 C                    -2.90931   1.60545   1.45794 
 C                    -1.94397   2.52688   2.0069 
 C                    -3.03945   0.33194   1.97908 
 C                    -1.13135   2.116     3.04149 
 C                     0.81941   3.09472   1.92654 
 C                     2.04604   2.64337   1.32189 
 C                     0.28319   2.41051   2.99573 
 C                     3.4543    0.58646   0.8958 
 C                     2.70934   1.53808   1.79197 
 C                     3.01362  -1.88236   0.86974 
 C                     3.17887  -0.72854   1.56414 
 C                     1.45154  -3.46698   0.21859 
 C                     0.09748  -3.7636    0.27864 
 C                    -0.67999  -3.46728   1.4476 
 C                     2.08039  -2.85871   1.34729 
 C                    -0.05851  -2.95298   2.56641 
 C                     1.34581  -2.64483   2.50205 
 C                    -1.96411  -1.462     2.99328 
 C                    -2.25501  -0.05664   3.11946 
 C                    -1.29633   0.80679   3.61881 
 C                    -0.72128  -1.94588   3.357 
 C                     0.98881   1.28202   3.52595 
 C                     2.17853   0.87057   2.92741 
 C                     2.46252  -0.52578   2.7852 
 C                     1.55429  -1.45275   3.2529 
 C                     0.01916   0.31181   3.93754 
 C                     0.29646  -1.03926   3.81166 
 Cl                   -2.2373    2.29431  -5.4407 
 Cl                    0.41933   3.36391  -5.44433 
 Cl                    1.93725   0.78913  -5.72366 
 Cl                    2.68971  -2.41681  -4.4558 
 Cl                    4.77736  -2.41448  -1.20536 
 Cl                    5.22636   0.95932   0.75134 
 Cl                   -3.52172   3.39155  -3.00162 
 Cl                    1.82451   4.36813  -3.11937 
 
 ITRead=  0  0  0  0  0  0  0  0  0  0  0  0  0  0  0  0  0  0  0  0
 ITRead=  0  0  0  0  0  0  0  0  0  0  0  0  0  0  0  0  0  0  0  0
 ITRead=  0  0  0  0  0  0  0  0  0  0  0  0  0  0  0  0  0  0  0  0
 ITRead=  0  0  0  0  0  0  0  0  0  0  0  0  0  0
 MicOpt= -1 -1 -1 -1 -1 -1 -1 -1 -1 -1 -1 -1 -1 -1 -1 -1 -1 -1 -1 -1
 MicOpt= -1 -1 -1 -1 -1 -1 -1 -1 -1 -1 -1 -1 -1 -1 -1 -1 -1 -1 -1 -1
 MicOpt= -1 -1 -1 -1 -1 -1 -1 -1 -1 -1 -1 -1 -1 -1 -1 -1 -1 -1 -1 -1
 MicOpt= -1 -1 -1 -1 -1 -1 -1 -1 -1 -1 -1 -1 -1 -1
 NAtoms=     74 NQM=       74 NQMF=       0 NMMI=      0 NMMIF=      0
                NMic=       0 NMicF=      0.
                    Isotopes and Nuclear Properties:
 (Nuclear quadrupole moments (NQMom) in fm**2, nuclear magnetic moments (NMagM)
  in nuclear magnetons)

  Atom         1           2           3           4           5           6           7           8           9          10
 IAtWgt=          12          12          12          12          12          12          12          12          12          12
 AtmWgt=  12.0000000  12.0000000  12.0000000  12.0000000  12.0000000  12.0000000  12.0000000  12.0000000  12.0000000  12.0000000
 NucSpn=           0           0           0           0           0           0           0           0           0           0
 AtZEff=  -0.0000000  -0.0000000  -0.0000000  -0.0000000  -0.0000000  -0.0000000  -0.0000000  -0.0000000  -0.0000000  -0.0000000
 NQMom=    0.0000000   0.0000000   0.0000000   0.0000000   0.0000000   0.0000000   0.0000000   0.0000000   0.0000000   0.0000000
 NMagM=    0.0000000   0.0000000   0.0000000   0.0000000   0.0000000   0.0000000   0.0000000   0.0000000   0.0000000   0.0000000
 AtZNuc=   6.0000000   6.0000000   6.0000000   6.0000000   6.0000000   6.0000000   6.0000000   6.0000000   6.0000000   6.0000000

  Atom        11          12          13          14          15          16          17          18          19          20
 IAtWgt=          12          12          12          12          12          12          12          12          12          12
 AtmWgt=  12.0000000  12.0000000  12.0000000  12.0000000  12.0000000  12.0000000  12.0000000  12.0000000  12.0000000  12.0000000
 NucSpn=           0           0           0           0           0           0           0           0           0           0
 AtZEff=  -0.0000000  -0.0000000  -0.0000000  -0.0000000  -0.0000000  -0.0000000  -0.0000000  -0.0000000  -0.0000000  -0.0000000
 NQMom=    0.0000000   0.0000000   0.0000000   0.0000000   0.0000000   0.0000000   0.0000000   0.0000000   0.0000000   0.0000000
 NMagM=    0.0000000   0.0000000   0.0000000   0.0000000   0.0000000   0.0000000   0.0000000   0.0000000   0.0000000   0.0000000
 AtZNuc=   6.0000000   6.0000000   6.0000000   6.0000000   6.0000000   6.0000000   6.0000000   6.0000000   6.0000000   6.0000000

  Atom        21          22          23          24          25          26          27          28          29          30
 IAtWgt=          12          12          12          12          12          12          12          12          12          12
 AtmWgt=  12.0000000  12.0000000  12.0000000  12.0000000  12.0000000  12.0000000  12.0000000  12.0000000  12.0000000  12.0000000
 NucSpn=           0           0           0           0           0           0           0           0           0           0
 AtZEff=  -0.0000000  -0.0000000  -0.0000000  -0.0000000  -0.0000000  -0.0000000  -0.0000000  -0.0000000  -0.0000000  -0.0000000
 NQMom=    0.0000000   0.0000000   0.0000000   0.0000000   0.0000000   0.0000000   0.0000000   0.0000000   0.0000000   0.0000000
 NMagM=    0.0000000   0.0000000   0.0000000   0.0000000   0.0000000   0.0000000   0.0000000   0.0000000   0.0000000   0.0000000
 AtZNuc=   6.0000000   6.0000000   6.0000000   6.0000000   6.0000000   6.0000000   6.0000000   6.0000000   6.0000000   6.0000000

  Atom        31          32          33          34          35          36          37          38          39          40
 IAtWgt=          12          12          12          12          12          12          12          12          12          12
 AtmWgt=  12.0000000  12.0000000  12.0000000  12.0000000  12.0000000  12.0000000  12.0000000  12.0000000  12.0000000  12.0000000
 NucSpn=           0           0           0           0           0           0           0           0           0           0
 AtZEff=  -0.0000000  -0.0000000  -0.0000000  -0.0000000  -0.0000000  -0.0000000  -0.0000000  -0.0000000  -0.0000000  -0.0000000
 NQMom=    0.0000000   0.0000000   0.0000000   0.0000000   0.0000000   0.0000000   0.0000000   0.0000000   0.0000000   0.0000000
 NMagM=    0.0000000   0.0000000   0.0000000   0.0000000   0.0000000   0.0000000   0.0000000   0.0000000   0.0000000   0.0000000
 AtZNuc=   6.0000000   6.0000000   6.0000000   6.0000000   6.0000000   6.0000000   6.0000000   6.0000000   6.0000000   6.0000000

  Atom        41          42          43          44          45          46          47          48          49          50
 IAtWgt=          12          12          12          12          12          12          12          12          12          12
 AtmWgt=  12.0000000  12.0000000  12.0000000  12.0000000  12.0000000  12.0000000  12.0000000  12.0000000  12.0000000  12.0000000
 NucSpn=           0           0           0           0           0           0           0           0           0           0
 AtZEff=  -0.0000000  -0.0000000  -0.0000000  -0.0000000  -0.0000000  -0.0000000  -0.0000000  -0.0000000  -0.0000000  -0.0000000
 NQMom=    0.0000000   0.0000000   0.0000000   0.0000000   0.0000000   0.0000000   0.0000000   0.0000000   0.0000000   0.0000000
 NMagM=    0.0000000   0.0000000   0.0000000   0.0000000   0.0000000   0.0000000   0.0000000   0.0000000   0.0000000   0.0000000
 AtZNuc=   6.0000000   6.0000000   6.0000000   6.0000000   6.0000000   6.0000000   6.0000000   6.0000000   6.0000000   6.0000000

  Atom        51          52          53          54          55          56          57          58          59          60
 IAtWgt=          12          12          12          12          12          12          12          12          12          12
 AtmWgt=  12.0000000  12.0000000  12.0000000  12.0000000  12.0000000  12.0000000  12.0000000  12.0000000  12.0000000  12.0000000
 NucSpn=           0           0           0           0           0           0           0           0           0           0
 AtZEff=  -0.0000000  -0.0000000  -0.0000000  -0.0000000  -0.0000000  -0.0000000  -0.0000000  -0.0000000  -0.0000000  -0.0000000
 NQMom=    0.0000000   0.0000000   0.0000000   0.0000000   0.0000000   0.0000000   0.0000000   0.0000000   0.0000000   0.0000000
 NMagM=    0.0000000   0.0000000   0.0000000   0.0000000   0.0000000   0.0000000   0.0000000   0.0000000   0.0000000   0.0000000
 AtZNuc=   6.0000000   6.0000000   6.0000000   6.0000000   6.0000000   6.0000000   6.0000000   6.0000000   6.0000000   6.0000000

  Atom        61          62          63          64          65          66          67          68          69          70
 IAtWgt=          12          12          12          12          12          12          35          35          35          35
 AtmWgt=  12.0000000  12.0000000  12.0000000  12.0000000  12.0000000  12.0000000  34.9688527  34.9688527  34.9688527  34.9688527
 NucSpn=           0           0           0           0           0           0           3           3           3           3
 AtZEff=  -0.0000000  -0.0000000  -0.0000000  -0.0000000  -0.0000000  -0.0000000  -0.0000000  -0.0000000  -0.0000000  -0.0000000
 NQMom=    0.0000000   0.0000000   0.0000000   0.0000000   0.0000000   0.0000000  -8.1650000  -8.1650000  -8.1650000  -8.1650000
 NMagM=    0.0000000   0.0000000   0.0000000   0.0000000   0.0000000   0.0000000   0.8218740   0.8218740   0.8218740   0.8218740
 AtZNuc=   6.0000000   6.0000000   6.0000000   6.0000000   6.0000000   6.0000000  17.0000000  17.0000000  17.0000000  17.0000000

  Atom        71          72          73          74
 IAtWgt=          35          35          35          35
 AtmWgt=  34.9688527  34.9688527  34.9688527  34.9688527
 NucSpn=           3           3           3           3
 AtZEff=  -0.0000000  -0.0000000  -0.0000000  -0.0000000
 NQMom=   -8.1650000  -8.1650000  -8.1650000  -8.1650000
 NMagM=    0.8218740   0.8218740   0.8218740   0.8218740
 AtZNuc=  17.0000000  17.0000000  17.0000000  17.0000000
 Leave Link  101 at Fri Jul 15 10:54:50 2022, MaxMem=  1342177280 cpu:              12.9 elap:               0.3
 (Enter /home/mkliu/g16/l103.exe)

 GradGradGradGradGradGradGradGradGradGradGradGradGradGradGradGradGradGrad
 Berny optimization.
 Initialization pass.
                           ----------------------------
                           !    Initial Parameters    !
                           ! (Angstroms and Degrees)  !
 --------------------------                            --------------------------
 ! Name  Definition              Value          Derivative Info.                !
 --------------------------------------------------------------------------------
 ! R1    R(1,2)                  1.5873         estimate D2E/DX2                !
 ! R2    R(1,4)                  1.488          estimate D2E/DX2                !
 ! R3    R(1,7)                  1.5519         estimate D2E/DX2                !
 ! R4    R(1,67)                 1.7947         estimate D2E/DX2                !
 ! R5    R(2,3)                  1.578          estimate D2E/DX2                !
 ! R6    R(2,10)                 1.5684         estimate D2E/DX2                !
 ! R7    R(2,68)                 1.7723         estimate D2E/DX2                !
 ! R8    R(3,5)                  1.4829         estimate D2E/DX2                !
 ! R9    R(3,12)                 1.5017         estimate D2E/DX2                !
 ! R10   R(3,69)                 1.7736         estimate D2E/DX2                !
 ! R11   R(4,5)                  1.3588         estimate D2E/DX2                !
 ! R12   R(4,6)                  1.3946         estimate D2E/DX2                !
 ! R13   R(5,15)                 1.3875         estimate D2E/DX2                !
 ! R14   R(6,8)                  1.4012         estimate D2E/DX2                !
 ! R15   R(6,17)                 1.4049         estimate D2E/DX2                !
 ! R16   R(7,8)                  1.5237         estimate D2E/DX2                !
 ! R17   R(7,9)                  1.5095         estimate D2E/DX2                !
 ! R18   R(7,73)                 1.8009         estimate D2E/DX2                !
 ! R19   R(8,20)                 1.3904         estimate D2E/DX2                !
 ! R20   R(9,11)                 1.3718         estimate D2E/DX2                !
 ! R21   R(9,22)                 1.4145         estimate D2E/DX2                !
 ! R22   R(10,11)                1.5046         estimate D2E/DX2                !
 ! R23   R(10,13)                1.5054         estimate D2E/DX2                !
 ! R24   R(10,74)                1.8129         estimate D2E/DX2                !
 ! R25   R(11,25)                1.4317         estimate D2E/DX2                !
 ! R26   R(12,13)                1.3699         estimate D2E/DX2                !
 ! R27   R(12,14)                1.3967         estimate D2E/DX2                !
 ! R28   R(13,27)                1.385          estimate D2E/DX2                !
 ! R29   R(14,16)                1.5218         estimate D2E/DX2                !
 ! R30   R(14,29)                1.4045         estimate D2E/DX2                !
 ! R31   R(15,16)                1.5131         estimate D2E/DX2                !
 ! R32   R(15,18)                1.4005         estimate D2E/DX2                !
 ! R33   R(16,32)                1.5006         estimate D2E/DX2                !
 ! R34   R(16,70)                1.7917         estimate D2E/DX2                !
 ! R35   R(17,18)                1.4185         estimate D2E/DX2                !
 ! R36   R(17,19)                1.433          estimate D2E/DX2                !
 ! R37   R(18,33)                1.4226         estimate D2E/DX2                !
 ! R38   R(19,21)                1.4462         estimate D2E/DX2                !
 ! R39   R(19,35)                1.4102         estimate D2E/DX2                !
 ! R40   R(20,21)                1.4555         estimate D2E/DX2                !
 ! R41   R(20,23)                1.4234         estimate D2E/DX2                !
 ! R42   R(21,38)                1.4018         estimate D2E/DX2                !
 ! R43   R(22,23)                1.4203         estimate D2E/DX2                !
 ! R44   R(22,24)                1.4256         estimate D2E/DX2                !
 ! R45   R(23,40)                1.4184         estimate D2E/DX2                !
 ! R46   R(24,26)                1.3731         estimate D2E/DX2                !
 ! R47   R(24,41)                1.4406         estimate D2E/DX2                !
 ! R48   R(25,26)                1.4306         estimate D2E/DX2                !
 ! R49   R(25,28)                1.4037         estimate D2E/DX2                !
 ! R50   R(26,44)                1.439          estimate D2E/DX2                !
 ! R51   R(27,28)                1.4454         estimate D2E/DX2                !
 ! R52   R(27,30)                1.4029         estimate D2E/DX2                !
 ! R53   R(28,45)                1.4376         estimate D2E/DX2                !
 ! R54   R(29,30)                1.402          estimate D2E/DX2                !
 ! R55   R(29,31)                1.5205         estimate D2E/DX2                !
 ! R56   R(30,47)                1.5175         estimate D2E/DX2                !
 ! R57   R(31,34)                1.5062         estimate D2E/DX2                !
 ! R58   R(31,49)                1.5061         estimate D2E/DX2                !
 ! R59   R(31,71)                1.8034         estimate D2E/DX2                !
 ! R60   R(32,33)                1.4257         estimate D2E/DX2                !
 ! R61   R(32,34)                1.3572         estimate D2E/DX2                !
 ! R62   R(33,36)                1.3716         estimate D2E/DX2                !
 ! R63   R(34,51)                1.4296         estimate D2E/DX2                !
 ! R64   R(35,36)                1.4414         estimate D2E/DX2                !
 ! R65   R(35,37)                1.4264         estimate D2E/DX2                !
 ! R66   R(36,52)                1.4254         estimate D2E/DX2                !
 ! R67   R(37,39)                1.3792         estimate D2E/DX2                !
 ! R68   R(37,53)                1.4433         estimate D2E/DX2                !
 ! R69   R(38,39)                1.4359         estimate D2E/DX2                !
 ! R70   R(38,42)                1.4411         estimate D2E/DX2                !
 ! R71   R(39,57)                1.4365         estimate D2E/DX2                !
 ! R72   R(40,41)                1.443          estimate D2E/DX2                !
 ! R73   R(40,42)                1.3822         estimate D2E/DX2                !
 ! R74   R(41,43)                1.3782         estimate D2E/DX2                !
 ! R75   R(42,58)                1.4376         estimate D2E/DX2                !
 ! R76   R(43,46)                1.4456         estimate D2E/DX2                !
 ! R77   R(43,59)                1.4403         estimate D2E/DX2                !
 ! R78   R(44,45)                1.4401         estimate D2E/DX2                !
 ! R79   R(44,46)                1.378          estimate D2E/DX2                !
 ! R80   R(45,48)                1.3721         estimate D2E/DX2                !
 ! R81   R(46,61)                1.4327         estimate D2E/DX2                !
 ! R82   R(47,48)                1.5045         estimate D2E/DX2                !
 ! R83   R(47,50)                1.5006         estimate D2E/DX2                !
 ! R84   R(47,72)                1.8166         estimate D2E/DX2                !
 ! R85   R(48,62)                1.4201         estimate D2E/DX2                !
 ! R86   R(49,50)                1.3568         estimate D2E/DX2                !
 ! R87   R(49,54)                1.4326         estimate D2E/DX2                !
 ! R88   R(50,63)                1.4301         estimate D2E/DX2                !
 ! R89   R(51,52)                1.3875         estimate D2E/DX2                !
 ! R90   R(51,54)                1.4281         estimate D2E/DX2                !
 ! R91   R(52,53)                1.4348         estimate D2E/DX2                !
 ! R92   R(53,55)                1.3793         estimate D2E/DX2                !
 ! R93   R(54,56)                1.3852         estimate D2E/DX2                !
 ! R94   R(55,56)                1.4392         estimate D2E/DX2                !
 ! R95   R(55,60)                1.4417         estimate D2E/DX2                !
 ! R96   R(56,64)                1.4242         estimate D2E/DX2                !
 ! R97   R(57,58)                1.4407         estimate D2E/DX2                !
 ! R98   R(57,60)                1.3824         estimate D2E/DX2                !
 ! R99   R(58,59)                1.3834         estimate D2E/DX2                !
 ! R100  R(59,65)                1.4412         estimate D2E/DX2                !
 ! R101  R(60,66)                1.4368         estimate D2E/DX2                !
 ! R102  R(61,62)                1.3939         estimate D2E/DX2                !
 ! R103  R(61,65)                1.4321         estimate D2E/DX2                !
 ! R104  R(62,63)                1.432          estimate D2E/DX2                !
 ! R105  R(63,64)                1.3795         estimate D2E/DX2                !
 ! R106  R(64,66)                1.4371         estimate D2E/DX2                !
 ! R107  R(65,66)                1.385          estimate D2E/DX2                !
 ! A1    A(2,1,4)              103.1518         estimate D2E/DX2                !
 ! A2    A(2,1,7)              120.5094         estimate D2E/DX2                !
 ! A3    A(2,1,67)             111.127          estimate D2E/DX2                !
 ! A4    A(4,1,7)              101.8067         estimate D2E/DX2                !
 ! A5    A(4,1,67)             107.7042         estimate D2E/DX2                !
 ! A6    A(7,1,67)             111.0409         estimate D2E/DX2                !
 ! A7    A(1,2,3)              104.2828         estimate D2E/DX2                !
 ! A8    A(1,2,10)             116.5789         estimate D2E/DX2                !
 ! A9    A(1,2,68)             109.8187         estimate D2E/DX2                !
 ! A10   A(3,2,10)             103.3543         estimate D2E/DX2                !
 ! A11   A(3,2,68)             111.4278         estimate D2E/DX2                !
 ! A12   A(10,2,68)            110.988          estimate D2E/DX2                !
 ! A13   A(2,3,5)              106.5313         estimate D2E/DX2                !
 ! A14   A(2,3,12)             106.925          estimate D2E/DX2                !
 ! A15   A(2,3,69)             115.8412         estimate D2E/DX2                !
 ! A16   A(5,3,12)             100.8842         estimate D2E/DX2                !
 ! A17   A(5,3,69)             114.3505         estimate D2E/DX2                !
 ! A18   A(12,3,69)            111.0238         estimate D2E/DX2                !
 ! A19   A(1,4,5)              114.7296         estimate D2E/DX2                !
 ! A20   A(1,4,6)              113.7976         estimate D2E/DX2                !
 ! A21   A(5,4,6)              122.5169         estimate D2E/DX2                !
 ! A22   A(3,5,4)              110.0672         estimate D2E/DX2                !
 ! A23   A(3,5,15)             122.7224         estimate D2E/DX2                !
 ! A24   A(4,5,15)             117.8443         estimate D2E/DX2                !
 ! A25   A(4,6,8)              108.267          estimate D2E/DX2                !
 ! A26   A(4,6,17)             120.7698         estimate D2E/DX2                !
 ! A27   A(8,6,17)             123.8554         estimate D2E/DX2                !
 ! A28   A(1,7,8)              105.0642         estimate D2E/DX2                !
 ! A29   A(1,7,9)              115.7084         estimate D2E/DX2                !
 ! A30   A(1,7,73)             113.9945         estimate D2E/DX2                !
 ! A31   A(8,7,9)              105.4012         estimate D2E/DX2                !
 ! A32   A(8,7,73)             110.6313         estimate D2E/DX2                !
 ! A33   A(9,7,73)             105.7402         estimate D2E/DX2                !
 ! A34   A(6,8,7)              109.903          estimate D2E/DX2                !
 ! A35   A(6,8,20)             118.7228         estimate D2E/DX2                !
 ! A36   A(7,8,20)             125.3083         estimate D2E/DX2                !
 ! A37   A(7,9,11)             124.5892         estimate D2E/DX2                !
 ! A38   A(7,9,22)             114.462          estimate D2E/DX2                !
 ! A39   A(11,9,22)            119.7259         estimate D2E/DX2                !
 ! A40   A(2,10,11)            117.2695         estimate D2E/DX2                !
 ! A41   A(2,10,13)            106.0115         estimate D2E/DX2                !
 ! A42   A(2,10,74)            112.2387         estimate D2E/DX2                !
 ! A43   A(11,10,13)           104.2333         estimate D2E/DX2                !
 ! A44   A(11,10,74)           107.6454         estimate D2E/DX2                !
 ! A45   A(13,10,74)           108.8993         estimate D2E/DX2                !
 ! A46   A(9,11,10)            124.5903         estimate D2E/DX2                !
 ! A47   A(9,11,25)            118.4079         estimate D2E/DX2                !
 ! A48   A(10,11,25)           113.9055         estimate D2E/DX2                !
 ! A49   A(3,12,13)            110.115          estimate D2E/DX2                !
 ! A50   A(3,12,14)            126.6266         estimate D2E/DX2                !
 ! A51   A(13,12,14)           121.0954         estimate D2E/DX2                !
 ! A52   A(10,13,12)           112.5294         estimate D2E/DX2                !
 ! A53   A(10,13,27)           125.2161         estimate D2E/DX2                !
 ! A54   A(12,13,27)           120.3804         estimate D2E/DX2                !
 ! A55   A(12,14,16)           117.8242         estimate D2E/DX2                !
 ! A56   A(12,14,29)           119.0454         estimate D2E/DX2                !
 ! A57   A(16,14,29)           121.5238         estimate D2E/DX2                !
 ! A58   A(5,15,16)            122.7987         estimate D2E/DX2                !
 ! A59   A(5,15,18)            119.7809         estimate D2E/DX2                !
 ! A60   A(16,15,18)           110.0951         estimate D2E/DX2                !
 ! A61   A(14,16,15)           103.6409         estimate D2E/DX2                !
 ! A62   A(14,16,32)           108.4612         estimate D2E/DX2                !
 ! A63   A(14,16,70)           111.3646         estimate D2E/DX2                !
 ! A64   A(15,16,32)           101.6251         estimate D2E/DX2                !
 ! A65   A(15,16,70)           116.7599         estimate D2E/DX2                !
 ! A66   A(32,16,70)           114.0029         estimate D2E/DX2                !
 ! A67   A(6,17,18)            114.8729         estimate D2E/DX2                !
 ! A68   A(6,17,19)            118.1734         estimate D2E/DX2                !
 ! A69   A(18,17,19)           121.0293         estimate D2E/DX2                !
 ! A70   A(15,18,17)           122.4389         estimate D2E/DX2                !
 ! A71   A(15,18,33)           109.2784         estimate D2E/DX2                !
 ! A72   A(17,18,33)           120.2387         estimate D2E/DX2                !
 ! A73   A(17,19,21)           118.4959         estimate D2E/DX2                !
 ! A74   A(17,19,35)           116.6919         estimate D2E/DX2                !
 ! A75   A(21,19,35)           119.2452         estimate D2E/DX2                !
 ! A76   A(8,20,21)            119.8502         estimate D2E/DX2                !
 ! A77   A(8,20,23)            115.2871         estimate D2E/DX2                !
 ! A78   A(21,20,23)           119.4725         estimate D2E/DX2                !
 ! A79   A(19,21,20)           119.7921         estimate D2E/DX2                !
 ! A80   A(19,21,38)           118.1085         estimate D2E/DX2                !
 ! A81   A(20,21,38)           117.2783         estimate D2E/DX2                !
 ! A82   A(9,22,23)            122.026          estimate D2E/DX2                !
 ! A83   A(9,22,24)            121.2643         estimate D2E/DX2                !
 ! A84   A(23,22,24)           107.8711         estimate D2E/DX2                !
 ! A85   A(20,23,22)           118.5916         estimate D2E/DX2                !
 ! A86   A(20,23,40)           120.8776         estimate D2E/DX2                !
 ! A87   A(22,23,40)           108.8905         estimate D2E/DX2                !
 ! A88   A(22,24,26)           119.613          estimate D2E/DX2                !
 ! A89   A(22,24,41)           108.2563         estimate D2E/DX2                !
 ! A90   A(26,24,41)           120.4152         estimate D2E/DX2                !
 ! A91   A(11,25,26)           121.6046         estimate D2E/DX2                !
 ! A92   A(11,25,28)           122.199          estimate D2E/DX2                !
 ! A93   A(26,25,28)           107.1444         estimate D2E/DX2                !
 ! A94   A(24,26,25)           118.2672         estimate D2E/DX2                !
 ! A95   A(24,26,44)           120.0007         estimate D2E/DX2                !
 ! A96   A(25,26,44)           108.6388         estimate D2E/DX2                !
 ! A97   A(13,27,28)           115.0439         estimate D2E/DX2                !
 ! A98   A(13,27,30)           118.9824         estimate D2E/DX2                !
 ! A99   A(28,27,30)           123.0164         estimate D2E/DX2                !
 ! A100  A(25,28,27)           116.9379         estimate D2E/DX2                !
 ! A101  A(25,28,45)           110.1492         estimate D2E/DX2                !
 ! A102  A(27,28,45)           118.4985         estimate D2E/DX2                !
 ! A103  A(14,29,30)           118.7153         estimate D2E/DX2                !
 ! A104  A(14,29,31)           119.9794         estimate D2E/DX2                !
 ! A105  A(30,29,31)           120.593          estimate D2E/DX2                !
 ! A106  A(27,30,29)           120.7638         estimate D2E/DX2                !
 ! A107  A(27,30,47)           116.8043         estimate D2E/DX2                !
 ! A108  A(29,30,47)           121.6585         estimate D2E/DX2                !
 ! A109  A(29,31,34)           108.9659         estimate D2E/DX2                !
 ! A110  A(29,31,49)           110.9317         estimate D2E/DX2                !
 ! A111  A(29,31,71)           107.6339         estimate D2E/DX2                !
 ! A112  A(34,31,49)           101.0731         estimate D2E/DX2                !
 ! A113  A(34,31,71)           114.4675         estimate D2E/DX2                !
 ! A114  A(49,31,71)           113.6562         estimate D2E/DX2                !
 ! A115  A(16,32,33)           110.1085         estimate D2E/DX2                !
 ! A116  A(16,32,34)           123.0299         estimate D2E/DX2                !
 ! A117  A(33,32,34)           118.0159         estimate D2E/DX2                !
 ! A118  A(18,33,32)           107.8807         estimate D2E/DX2                !
 ! A119  A(18,33,36)           118.7914         estimate D2E/DX2                !
 ! A120  A(32,33,36)           123.343          estimate D2E/DX2                !
 ! A121  A(31,34,32)           121.5925         estimate D2E/DX2                !
 ! A122  A(31,34,51)           111.1504         estimate D2E/DX2                !
 ! A123  A(32,34,51)           119.4904         estimate D2E/DX2                !
 ! A124  A(19,35,36)           120.717          estimate D2E/DX2                !
 ! A125  A(19,35,37)           121.4049         estimate D2E/DX2                !
 ! A126  A(36,35,37)           107.4651         estimate D2E/DX2                !
 ! A127  A(33,36,35)           121.1944         estimate D2E/DX2                !
 ! A128  A(33,36,52)           118.0019         estimate D2E/DX2                !
 ! A129  A(35,36,52)           109.0689         estimate D2E/DX2                !
 ! A130  A(35,37,39)           119.4664         estimate D2E/DX2                !
 ! A131  A(35,37,53)           107.4298         estimate D2E/DX2                !
 ! A132  A(39,37,53)           120.93           estimate D2E/DX2                !
 ! A133  A(21,38,39)           121.72           estimate D2E/DX2                !
 ! A134  A(21,38,42)           121.8158         estimate D2E/DX2                !
 ! A135  A(39,38,42)           106.8791         estimate D2E/DX2                !
 ! A136  A(37,39,38)           119.878          estimate D2E/DX2                !
 ! A137  A(37,39,57)           119.9439         estimate D2E/DX2                !
 ! A138  A(38,39,57)           108.9335         estimate D2E/DX2                !
 ! A139  A(23,40,41)           107.9284         estimate D2E/DX2                !
 ! A140  A(23,40,42)           119.8191         estimate D2E/DX2                !
 ! A141  A(41,40,42)           120.5248         estimate D2E/DX2                !
 ! A142  A(24,41,40)           106.9705         estimate D2E/DX2                !
 ! A143  A(24,41,43)           119.9153         estimate D2E/DX2                !
 ! A144  A(40,41,43)           119.3167         estimate D2E/DX2                !
 ! A145  A(38,42,40)           119.9389         estimate D2E/DX2                !
 ! A146  A(38,42,58)           108.5777         estimate D2E/DX2                !
 ! A147  A(40,42,58)           119.7853         estimate D2E/DX2                !
 ! A148  A(41,43,46)           119.5009         estimate D2E/DX2                !
 ! A149  A(41,43,59)           120.2864         estimate D2E/DX2                !
 ! A150  A(46,43,59)           108.0568         estimate D2E/DX2                !
 ! A151  A(26,44,45)           107.5041         estimate D2E/DX2                !
 ! A152  A(26,44,46)           119.6885         estimate D2E/DX2                !
 ! A153  A(45,44,46)           120.1063         estimate D2E/DX2                !
 ! A154  A(28,45,44)           106.4715         estimate D2E/DX2                !
 ! A155  A(28,45,48)           119.5537         estimate D2E/DX2                !
 ! A156  A(44,45,48)           121.3579         estimate D2E/DX2                !
 ! A157  A(43,46,44)           120.431          estimate D2E/DX2                !
 ! A158  A(43,46,61)           108.0445         estimate D2E/DX2                !
 ! A159  A(44,46,61)           119.1179         estimate D2E/DX2                !
 ! A160  A(30,47,48)           112.3665         estimate D2E/DX2                !
 ! A161  A(30,47,50)           110.3151         estimate D2E/DX2                !
 ! A162  A(30,47,72)           106.0311         estimate D2E/DX2                !
 ! A163  A(48,47,50)           101.4255         estimate D2E/DX2                !
 ! A164  A(48,47,72)           113.612          estimate D2E/DX2                !
 ! A165  A(50,47,72)           113.2238         estimate D2E/DX2                !
 ! A166  A(45,48,47)           123.0112         estimate D2E/DX2                !
 ! A167  A(45,48,62)           118.1574         estimate D2E/DX2                !
 ! A168  A(47,48,62)           111.3483         estimate D2E/DX2                !
 ! A169  A(31,49,50)           122.379          estimate D2E/DX2                !
 ! A170  A(31,49,54)           110.8267         estimate D2E/DX2                !
 ! A171  A(50,49,54)           119.2302         estimate D2E/DX2                !
 ! A172  A(47,50,49)           122.6593         estimate D2E/DX2                !
 ! A173  A(47,50,63)           110.3636         estimate D2E/DX2                !
 ! A174  A(49,50,63)           119.7721         estimate D2E/DX2                !
 ! A175  A(34,51,52)           121.5647         estimate D2E/DX2                !
 ! A176  A(34,51,54)           108.1987         estimate D2E/DX2                !
 ! A177  A(52,51,54)           119.1167         estimate D2E/DX2                !
 ! A178  A(36,52,51)           118.6136         estimate D2E/DX2                !
 ! A179  A(36,52,53)           106.7093         estimate D2E/DX2                !
 ! A180  A(51,52,53)           121.3266         estimate D2E/DX2                !
 ! A181  A(37,53,52)           108.8674         estimate D2E/DX2                !
 ! A182  A(37,53,55)           118.9986         estimate D2E/DX2                !
 ! A183  A(52,53,55)           119.5839         estimate D2E/DX2                !
 ! A184  A(49,54,51)           108.2807         estimate D2E/DX2                !
 ! A185  A(49,54,56)           121.2067         estimate D2E/DX2                !
 ! A186  A(51,54,56)           119.4147         estimate D2E/DX2                !
 ! A187  A(53,55,56)           118.8964         estimate D2E/DX2                !
 ! A188  A(53,55,60)           119.8768         estimate D2E/DX2                !
 ! A189  A(56,55,60)           108.8769         estimate D2E/DX2                !
 ! A190  A(54,56,55)           121.445          estimate D2E/DX2                !
 ! A191  A(54,56,64)           119.4139         estimate D2E/DX2                !
 ! A192  A(55,56,64)           107.3665         estimate D2E/DX2                !
 ! A193  A(39,57,58)           107.5265         estimate D2E/DX2                !
 ! A194  A(39,57,60)           119.0392         estimate D2E/DX2                !
 ! A195  A(58,57,60)           119.9954         estimate D2E/DX2                !
 ! A196  A(42,58,57)           107.7197         estimate D2E/DX2                !
 ! A197  A(42,58,59)           119.7181         estimate D2E/DX2                !
 ! A198  A(57,58,59)           120.0335         estimate D2E/DX2                !
 ! A199  A(43,59,58)           120.1326         estimate D2E/DX2                !
 ! A200  A(43,59,65)           107.2336         estimate D2E/DX2                !
 ! A201  A(58,59,65)           119.867          estimate D2E/DX2                !
 ! A202  A(55,60,57)           120.8987         estimate D2E/DX2                !
 ! A203  A(55,60,66)           106.7783         estimate D2E/DX2                !
 ! A204  A(57,60,66)           119.9467         estimate D2E/DX2                !
 ! A205  A(46,61,62)           119.602          estimate D2E/DX2                !
 ! A206  A(46,61,65)           107.8495         estimate D2E/DX2                !
 ! A207  A(62,61,65)           120.088          estimate D2E/DX2                !
 ! A208  A(48,62,61)           121.5756         estimate D2E/DX2                !
 ! A209  A(48,62,63)           107.747          estimate D2E/DX2                !
 ! A210  A(61,62,63)           119.9828         estimate D2E/DX2                !
 ! A211  A(50,63,62)           108.8064         estimate D2E/DX2                !
 ! A212  A(50,63,64)           121.6014         estimate D2E/DX2                !
 ! A213  A(62,63,64)           119.4063         estimate D2E/DX2                !
 ! A214  A(56,64,63)           118.6915         estimate D2E/DX2                !
 ! A215  A(56,64,66)           108.5234         estimate D2E/DX2                !
 ! A216  A(63,64,66)           120.9802         estimate D2E/DX2                !
 ! A217  A(59,65,61)           108.7705         estimate D2E/DX2                !
 ! A218  A(59,65,66)           119.8476         estimate D2E/DX2                !
 ! A219  A(61,65,66)           119.947          estimate D2E/DX2                !
 ! A220  A(60,66,64)           108.3833         estimate D2E/DX2                !
 ! A221  A(60,66,65)           120.1643         estimate D2E/DX2                !
 ! A222  A(64,66,65)           119.4236         estimate D2E/DX2                !
 ! D1    D(4,1,2,3)              9.5882         estimate D2E/DX2                !
 ! D2    D(4,1,2,10)          -103.6072         estimate D2E/DX2                !
 ! D3    D(4,1,2,68)           129.0908         estimate D2E/DX2                !
 ! D4    D(7,1,2,3)            122.0196         estimate D2E/DX2                !
 ! D5    D(7,1,2,10)             8.8242         estimate D2E/DX2                !
 ! D6    D(7,1,2,68)          -118.4778         estimate D2E/DX2                !
 ! D7    D(67,1,2,3)          -105.568          estimate D2E/DX2                !
 ! D8    D(67,1,2,10)          141.2366         estimate D2E/DX2                !
 ! D9    D(67,1,2,68)           13.9346         estimate D2E/DX2                !
 ! D10   D(2,1,4,5)            -11.6819         estimate D2E/DX2                !
 ! D11   D(2,1,4,6)            136.5225         estimate D2E/DX2                !
 ! D12   D(7,1,4,5)           -137.2356         estimate D2E/DX2                !
 ! D13   D(7,1,4,6)             10.9688         estimate D2E/DX2                !
 ! D14   D(67,1,4,5)           105.9079         estimate D2E/DX2                !
 ! D15   D(67,1,4,6)          -105.8878         estimate D2E/DX2                !
 ! D16   D(2,1,7,8)           -122.7197         estimate D2E/DX2                !
 ! D17   D(2,1,7,9)             -6.9456         estimate D2E/DX2                !
 ! D18   D(2,1,7,73)           116.001          estimate D2E/DX2                !
 ! D19   D(4,1,7,8)             -9.5796         estimate D2E/DX2                !
 ! D20   D(4,1,7,9)            106.1946         estimate D2E/DX2                !
 ! D21   D(4,1,7,73)          -130.8588         estimate D2E/DX2                !
 ! D22   D(67,1,7,8)           104.8316         estimate D2E/DX2                !
 ! D23   D(67,1,7,9)          -139.3942         estimate D2E/DX2                !
 ! D24   D(67,1,7,73)          -16.4476         estimate D2E/DX2                !
 ! D25   D(1,2,3,5)             -5.3661         estimate D2E/DX2                !
 ! D26   D(1,2,3,12)          -112.5957         estimate D2E/DX2                !
 ! D27   D(1,2,3,69)           123.0689         estimate D2E/DX2                !
 ! D28   D(10,2,3,5)           116.9755         estimate D2E/DX2                !
 ! D29   D(10,2,3,12)            9.7459         estimate D2E/DX2                !
 ! D30   D(10,2,3,69)         -114.5894         estimate D2E/DX2                !
 ! D31   D(68,2,3,5)          -123.7742         estimate D2E/DX2                !
 ! D32   D(68,2,3,12)          128.9962         estimate D2E/DX2                !
 ! D33   D(68,2,3,69)            4.6609         estimate D2E/DX2                !
 ! D34   D(1,2,10,11)           -8.1996         estimate D2E/DX2                !
 ! D35   D(1,2,10,13)          107.63           estimate D2E/DX2                !
 ! D36   D(1,2,10,74)         -133.5937         estimate D2E/DX2                !
 ! D37   D(3,2,10,11)         -121.9214         estimate D2E/DX2                !
 ! D38   D(3,2,10,13)           -6.0918         estimate D2E/DX2                !
 ! D39   D(3,2,10,74)          112.6846         estimate D2E/DX2                !
 ! D40   D(68,2,10,11)         118.5255         estimate D2E/DX2                !
 ! D41   D(68,2,10,13)        -125.6449         estimate D2E/DX2                !
 ! D42   D(68,2,10,74)          -6.8685         estimate D2E/DX2                !
 ! D43   D(2,3,5,4)             -1.4723         estimate D2E/DX2                !
 ! D44   D(2,3,5,15)          -147.1401         estimate D2E/DX2                !
 ! D45   D(12,3,5,4)           110.0157         estimate D2E/DX2                !
 ! D46   D(12,3,5,15)          -35.6521         estimate D2E/DX2                !
 ! D47   D(69,3,5,4)          -130.7736         estimate D2E/DX2                !
 ! D48   D(69,3,5,15)           83.5586         estimate D2E/DX2                !
 ! D49   D(2,3,12,13)          -10.3735         estimate D2E/DX2                !
 ! D50   D(2,3,12,14)          152.882          estimate D2E/DX2                !
 ! D51   D(5,3,12,13)         -121.5586         estimate D2E/DX2                !
 ! D52   D(5,3,12,14)           41.697          estimate D2E/DX2                !
 ! D53   D(69,3,12,13)         116.8596         estimate D2E/DX2                !
 ! D54   D(69,3,12,14)         -79.8849         estimate D2E/DX2                !
 ! D55   D(1,4,5,3)              8.6604         estimate D2E/DX2                !
 ! D56   D(1,4,5,15)           156.207          estimate D2E/DX2                !
 ! D57   D(6,4,5,3)           -136.4693         estimate D2E/DX2                !
 ! D58   D(6,4,5,15)            11.0773         estimate D2E/DX2                !
 ! D59   D(1,4,6,8)             -7.7266         estimate D2E/DX2                !
 ! D60   D(1,4,6,17)          -159.2858         estimate D2E/DX2                !
 ! D61   D(5,4,6,8)            137.6942         estimate D2E/DX2                !
 ! D62   D(5,4,6,17)           -13.865          estimate D2E/DX2                !
 ! D63   D(3,5,15,16)           -3.1634         estimate D2E/DX2                !
 ! D64   D(3,5,15,18)          143.947          estimate D2E/DX2                !
 ! D65   D(4,5,15,16)         -146.3567         estimate D2E/DX2                !
 ! D66   D(4,5,15,18)            0.7536         estimate D2E/DX2                !
 ! D67   D(4,6,8,7)              0.6641         estimate D2E/DX2                !
 ! D68   D(4,6,8,20)          -153.408          estimate D2E/DX2                !
 ! D69   D(17,6,8,7)           151.1421         estimate D2E/DX2                !
 ! D70   D(17,6,8,20)           -2.93           estimate D2E/DX2                !
 ! D71   D(4,6,17,18)            4.1674         estimate D2E/DX2                !
 ! D72   D(4,6,17,19)          157.4011         estimate D2E/DX2                !
 ! D73   D(8,6,17,18)         -142.8362         estimate D2E/DX2                !
 ! D74   D(8,6,17,19)           10.3976         estimate D2E/DX2                !
 ! D75   D(1,7,8,6)              5.9823         estimate D2E/DX2                !
 ! D76   D(1,7,8,20)           157.9564         estimate D2E/DX2                !
 ! D77   D(9,7,8,6)           -116.7085         estimate D2E/DX2                !
 ! D78   D(9,7,8,20)            35.2656         estimate D2E/DX2                !
 ! D79   D(73,7,8,6)           129.4395         estimate D2E/DX2                !
 ! D80   D(73,7,8,20)          -78.5864         estimate D2E/DX2                !
 ! D81   D(1,7,9,11)             4.9241         estimate D2E/DX2                !
 ! D82   D(1,7,9,22)          -162.3452         estimate D2E/DX2                !
 ! D83   D(8,7,9,11)           120.5074         estimate D2E/DX2                !
 ! D84   D(8,7,9,22)           -46.7619         estimate D2E/DX2                !
 ! D85   D(73,7,9,11)         -122.276          estimate D2E/DX2                !
 ! D86   D(73,7,9,22)           70.4547         estimate D2E/DX2                !
 ! D87   D(6,8,20,21)           -6.5404         estimate D2E/DX2                !
 ! D88   D(6,8,20,23)          147.4199         estimate D2E/DX2                !
 ! D89   D(7,8,20,21)         -156.289          estimate D2E/DX2                !
 ! D90   D(7,8,20,23)           -2.3287         estimate D2E/DX2                !
 ! D91   D(7,9,11,10)           -4.9948         estimate D2E/DX2                !
 ! D92   D(7,9,11,25)         -163.8419         estimate D2E/DX2                !
 ! D93   D(22,9,11,10)         161.6503         estimate D2E/DX2                !
 ! D94   D(22,9,11,25)           2.8031         estimate D2E/DX2                !
 ! D95   D(7,9,22,23)           30.7429         estimate D2E/DX2                !
 ! D96   D(7,9,22,24)          174.1832         estimate D2E/DX2                !
 ! D97   D(11,9,22,23)        -137.1988         estimate D2E/DX2                !
 ! D98   D(11,9,22,24)           6.2416         estimate D2E/DX2                !
 ! D99   D(2,10,11,9)            6.6016         estimate D2E/DX2                !
 ! D100  D(2,10,11,25)         166.2862         estimate D2E/DX2                !
 ! D101  D(13,10,11,9)        -110.1997         estimate D2E/DX2                !
 ! D102  D(13,10,11,25)         49.4849         estimate D2E/DX2                !
 ! D103  D(74,10,11,9)         134.2471         estimate D2E/DX2                !
 ! D104  D(74,10,11,25)        -66.0683         estimate D2E/DX2                !
 ! D105  D(2,10,13,12)           0.0432         estimate D2E/DX2                !
 ! D106  D(2,10,13,27)        -164.3168         estimate D2E/DX2                !
 ! D107  D(11,10,13,12)        124.4145         estimate D2E/DX2                !
 ! D108  D(11,10,13,27)        -39.9455         estimate D2E/DX2                !
 ! D109  D(74,10,13,12)       -120.9157         estimate D2E/DX2                !
 ! D110  D(74,10,13,27)         74.7243         estimate D2E/DX2                !
 ! D111  D(9,11,25,26)         -10.6265         estimate D2E/DX2                !
 ! D112  D(9,11,25,28)         132.1696         estimate D2E/DX2                !
 ! D113  D(10,11,25,26)       -171.6642         estimate D2E/DX2                !
 ! D114  D(10,11,25,28)        -28.8681         estimate D2E/DX2                !
 ! D115  D(3,12,13,10)           6.5649         estimate D2E/DX2                !
 ! D116  D(3,12,13,27)         171.7729         estimate D2E/DX2                !
 ! D117  D(14,12,13,10)       -157.7701         estimate D2E/DX2                !
 ! D118  D(14,12,13,27)          7.438          estimate D2E/DX2                !
 ! D119  D(3,12,14,16)          -6.6184         estimate D2E/DX2                !
 ! D120  D(3,12,14,29)        -172.3977         estimate D2E/DX2                !
 ! D121  D(13,12,14,16)        154.9649         estimate D2E/DX2                !
 ! D122  D(13,12,14,29)        -10.8144         estimate D2E/DX2                !
 ! D123  D(10,13,27,28)          3.9038         estimate D2E/DX2                !
 ! D124  D(10,13,27,30)        165.0471         estimate D2E/DX2                !
 ! D125  D(12,13,27,28)       -159.3188         estimate D2E/DX2                !
 ! D126  D(12,13,27,30)          1.8245         estimate D2E/DX2                !
 ! D127  D(12,14,16,15)        -33.7993         estimate D2E/DX2                !
 ! D128  D(12,14,16,32)       -141.2343         estimate D2E/DX2                !
 ! D129  D(12,14,16,70)         92.5312         estimate D2E/DX2                !
 ! D130  D(29,14,16,15)        131.6081         estimate D2E/DX2                !
 ! D131  D(29,14,16,32)         24.1731         estimate D2E/DX2                !
 ! D132  D(29,14,16,70)       -102.0614         estimate D2E/DX2                !
 ! D133  D(12,14,29,30)          4.8848         estimate D2E/DX2                !
 ! D134  D(12,14,29,31)        175.274          estimate D2E/DX2                !
 ! D135  D(16,14,29,30)       -160.3494         estimate D2E/DX2                !
 ! D136  D(16,14,29,31)         10.0398         estimate D2E/DX2                !
 ! D137  D(5,15,16,14)          39.7179         estimate D2E/DX2                !
 ! D138  D(5,15,16,32)         152.213          estimate D2E/DX2                !
 ! D139  D(5,15,16,70)         -83.1166         estimate D2E/DX2                !
 ! D140  D(18,15,16,14)       -110.1592         estimate D2E/DX2                !
 ! D141  D(18,15,16,32)          2.336          estimate D2E/DX2                !
 ! D142  D(18,15,16,70)        127.0064         estimate D2E/DX2                !
 ! D143  D(5,15,18,17)         -10.1971         estimate D2E/DX2                !
 ! D144  D(5,15,18,33)        -158.8978         estimate D2E/DX2                !
 ! D145  D(16,15,18,17)        140.7222         estimate D2E/DX2                !
 ! D146  D(16,15,18,33)         -7.9785         estimate D2E/DX2                !
 ! D147  D(14,16,32,33)        112.9283         estimate D2E/DX2                !
 ! D148  D(14,16,32,34)        -33.6523         estimate D2E/DX2                !
 ! D149  D(15,16,32,33)          4.113          estimate D2E/DX2                !
 ! D150  D(15,16,32,34)       -142.4676         estimate D2E/DX2                !
 ! D151  D(70,16,32,33)       -122.3857         estimate D2E/DX2                !
 ! D152  D(70,16,32,34)         91.0338         estimate D2E/DX2                !
 ! D153  D(6,17,18,15)           7.4523         estimate D2E/DX2                !
 ! D154  D(6,17,18,33)         152.8687         estimate D2E/DX2                !
 ! D155  D(19,17,18,15)       -144.9481         estimate D2E/DX2                !
 ! D156  D(19,17,18,33)          0.4683         estimate D2E/DX2                !
 ! D157  D(6,17,19,21)          -8.0824         estimate D2E/DX2                !
 ! D158  D(6,17,19,35)        -161.6079         estimate D2E/DX2                !
 ! D159  D(18,17,19,21)        143.4405         estimate D2E/DX2                !
 ! D160  D(18,17,19,35)        -10.085          estimate D2E/DX2                !
 ! D161  D(15,18,33,32)         10.5043         estimate D2E/DX2                !
 ! D162  D(15,18,33,36)        157.257          estimate D2E/DX2                !
 ! D163  D(17,18,33,32)       -138.9983         estimate D2E/DX2                !
 ! D164  D(17,18,33,36)          7.7544         estimate D2E/DX2                !
 ! D165  D(17,19,21,20)         -0.8476         estimate D2E/DX2                !
 ! D166  D(17,19,21,38)       -155.6085         estimate D2E/DX2                !
 ! D167  D(35,19,21,20)        151.9924         estimate D2E/DX2                !
 ! D168  D(35,19,21,38)         -2.7684         estimate D2E/DX2                !
 ! D169  D(17,19,35,36)         11.7971         estimate D2E/DX2                !
 ! D170  D(17,19,35,37)        152.3101         estimate D2E/DX2                !
 ! D171  D(21,19,35,36)       -141.5217         estimate D2E/DX2                !
 ! D172  D(21,19,35,37)         -1.0088         estimate D2E/DX2                !
 ! D173  D(8,20,21,19)           8.3573         estimate D2E/DX2                !
 ! D174  D(8,20,21,38)         163.3226         estimate D2E/DX2                !
 ! D175  D(23,20,21,19)       -144.5179         estimate D2E/DX2                !
 ! D176  D(23,20,21,38)         10.4474         estimate D2E/DX2                !
 ! D177  D(8,20,23,22)         -20.5872         estimate D2E/DX2                !
 ! D178  D(8,20,23,40)        -159.6581         estimate D2E/DX2                !
 ! D179  D(21,20,23,22)        133.4779         estimate D2E/DX2                !
 ! D180  D(21,20,23,40)         -5.5929         estimate D2E/DX2                !
 ! D181  D(19,21,38,39)          4.6535         estimate D2E/DX2                !
 ! D182  D(19,21,38,42)        146.3896         estimate D2E/DX2                !
 ! D183  D(20,21,38,39)       -150.7426         estimate D2E/DX2                !
 ! D184  D(20,21,38,42)         -9.0064         estimate D2E/DX2                !
 ! D185  D(9,22,23,20)           6.2837         estimate D2E/DX2                !
 ! D186  D(9,22,23,40)         149.8224         estimate D2E/DX2                !
 ! D187  D(24,22,23,20)       -141.3743         estimate D2E/DX2                !
 ! D188  D(24,22,23,40)          2.1643         estimate D2E/DX2                !
 ! D189  D(9,22,24,26)          -7.7277         estimate D2E/DX2                !
 ! D190  D(9,22,24,41)        -150.9229         estimate D2E/DX2                !
 ! D191  D(23,22,24,26)        140.2258         estimate D2E/DX2                !
 ! D192  D(23,22,24,41)         -2.9694         estimate D2E/DX2                !
 ! D193  D(20,23,40,41)        142.0356         estimate D2E/DX2                !
 ! D194  D(20,23,40,42)         -1.1647         estimate D2E/DX2                !
 ! D195  D(22,23,40,41)         -0.5207         estimate D2E/DX2                !
 ! D196  D(22,23,40,42)       -143.721          estimate D2E/DX2                !
 ! D197  D(22,24,26,25)          0.0273         estimate D2E/DX2                !
 ! D198  D(22,24,26,44)       -136.8146         estimate D2E/DX2                !
 ! D199  D(41,24,26,25)        138.7482         estimate D2E/DX2                !
 ! D200  D(41,24,26,44)          1.9063         estimate D2E/DX2                !
 ! D201  D(22,24,41,40)          2.6316         estimate D2E/DX2                !
 ! D202  D(22,24,41,43)        142.6462         estimate D2E/DX2                !
 ! D203  D(26,24,41,40)       -140.2147         estimate D2E/DX2                !
 ! D204  D(26,24,41,43)         -0.2001         estimate D2E/DX2                !
 ! D205  D(11,25,26,24)          9.1492         estimate D2E/DX2                !
 ! D206  D(11,25,26,44)        150.4555         estimate D2E/DX2                !
 ! D207  D(28,25,26,24)       -138.4762         estimate D2E/DX2                !
 ! D208  D(28,25,26,44)          2.8301         estimate D2E/DX2                !
 ! D209  D(11,25,28,27)        -11.3486         estimate D2E/DX2                !
 ! D210  D(11,25,28,45)       -150.5099         estimate D2E/DX2                !
 ! D211  D(26,25,28,27)        136.0411         estimate D2E/DX2                !
 ! D212  D(26,25,28,45)         -3.1201         estimate D2E/DX2                !
 ! D213  D(24,26,44,45)        139.0262         estimate D2E/DX2                !
 ! D214  D(24,26,44,46)         -2.7165         estimate D2E/DX2                !
 ! D215  D(25,26,44,45)         -1.4953         estimate D2E/DX2                !
 ! D216  D(25,26,44,46)       -143.238          estimate D2E/DX2                !
 ! D217  D(13,27,28,25)         23.9823         estimate D2E/DX2                !
 ! D218  D(13,27,28,45)        159.6711         estimate D2E/DX2                !
 ! D219  D(30,27,28,25)       -136.3128         estimate D2E/DX2                !
 ! D220  D(30,27,28,45)         -0.624          estimate D2E/DX2                !
 ! D221  D(13,27,30,29)         -7.6392         estimate D2E/DX2                !
 ! D222  D(13,27,30,47)       -177.7297         estimate D2E/DX2                !
 ! D223  D(28,27,30,29)        151.922          estimate D2E/DX2                !
 ! D224  D(28,27,30,47)        -18.1686         estimate D2E/DX2                !
 ! D225  D(25,28,45,44)          2.1975         estimate D2E/DX2                !
 ! D226  D(25,28,45,48)        144.52           estimate D2E/DX2                !
 ! D227  D(27,28,45,44)       -136.246          estimate D2E/DX2                !
 ! D228  D(27,28,45,48)          6.0765         estimate D2E/DX2                !
 ! D229  D(14,29,30,27)          4.2033         estimate D2E/DX2                !
 ! D230  D(14,29,30,47)        173.8071         estimate D2E/DX2                !
 ! D231  D(31,29,30,27)       -166.125          estimate D2E/DX2                !
 ! D232  D(31,29,30,47)          3.4788         estimate D2E/DX2                !
 ! D233  D(14,29,31,34)        -35.8702         estimate D2E/DX2                !
 ! D234  D(14,29,31,49)       -146.2893         estimate D2E/DX2                !
 ! D235  D(14,29,31,71)         88.7954         estimate D2E/DX2                !
 ! D236  D(30,29,31,34)        134.3363         estimate D2E/DX2                !
 ! D237  D(30,29,31,49)         23.9171         estimate D2E/DX2                !
 ! D238  D(30,29,31,71)       -100.9981         estimate D2E/DX2                !
 ! D239  D(27,30,47,48)         29.5477         estimate D2E/DX2                !
 ! D240  D(27,30,47,50)        141.9281         estimate D2E/DX2                !
 ! D241  D(27,30,47,72)        -95.1247         estimate D2E/DX2                !
 ! D242  D(29,30,47,48)       -140.4476         estimate D2E/DX2                !
 ! D243  D(29,30,47,50)        -28.0673         estimate D2E/DX2                !
 ! D244  D(29,30,47,72)         94.88           estimate D2E/DX2                !
 ! D245  D(29,31,34,32)         27.6401         estimate D2E/DX2                !
 ! D246  D(29,31,34,51)       -121.4096         estimate D2E/DX2                !
 ! D247  D(49,31,34,32)        144.5241         estimate D2E/DX2                !
 ! D248  D(49,31,34,51)         -4.5256         estimate D2E/DX2                !
 ! D249  D(71,31,34,32)        -92.9111         estimate D2E/DX2                !
 ! D250  D(71,31,34,51)        118.0392         estimate D2E/DX2                !
 ! D251  D(29,31,49,50)        -27.0957         estimate D2E/DX2                !
 ! D252  D(29,31,49,54)        122.2045         estimate D2E/DX2                !
 ! D253  D(34,31,49,50)       -142.5269         estimate D2E/DX2                !
 ! D254  D(34,31,49,54)          6.7733         estimate D2E/DX2                !
 ! D255  D(71,31,49,50)         94.3471         estimate D2E/DX2                !
 ! D256  D(71,31,49,54)       -116.3527         estimate D2E/DX2                !
 ! D257  D(16,32,33,18)         -9.0331         estimate D2E/DX2                !
 ! D258  D(16,32,33,36)       -153.923          estimate D2E/DX2                !
 ! D259  D(34,32,33,18)        139.4302         estimate D2E/DX2                !
 ! D260  D(34,32,33,36)         -5.4597         estimate D2E/DX2                !
 ! D261  D(16,32,34,31)          7.4644         estimate D2E/DX2                !
 ! D262  D(16,32,34,51)        154.0258         estimate D2E/DX2                !
 ! D263  D(33,32,34,31)       -136.6731         estimate D2E/DX2                !
 ! D264  D(33,32,34,51)          9.8882         estimate D2E/DX2                !
 ! D265  D(18,33,36,35)         -6.0716         estimate D2E/DX2                !
 ! D266  D(18,33,36,52)       -145.0563         estimate D2E/DX2                !
 ! D267  D(32,33,36,35)        135.277          estimate D2E/DX2                !
 ! D268  D(32,33,36,52)         -3.7076         estimate D2E/DX2                !
 ! D269  D(31,34,51,52)        144.2233         estimate D2E/DX2                !
 ! D270  D(31,34,51,54)          0.7936         estimate D2E/DX2                !
 ! D271  D(32,34,51,52)         -5.5595         estimate D2E/DX2                !
 ! D272  D(32,34,51,54)       -148.9893         estimate D2E/DX2                !
 ! D273  D(19,35,36,33)         -3.9471         estimate D2E/DX2                !
 ! D274  D(19,35,36,52)        138.2407         estimate D2E/DX2                !
 ! D275  D(37,35,36,33)       -149.2681         estimate D2E/DX2                !
 ! D276  D(37,35,36,52)         -7.0803         estimate D2E/DX2                !
 ! D277  D(19,35,37,39)          3.0193         estimate D2E/DX2                !
 ! D278  D(19,35,37,53)       -139.7447         estimate D2E/DX2                !
 ! D279  D(36,35,37,39)        148.0521         estimate D2E/DX2                !
 ! D280  D(36,35,37,53)          5.2881         estimate D2E/DX2                !
 ! D281  D(33,36,52,51)          8.0924         estimate D2E/DX2                !
 ! D282  D(33,36,52,53)        149.5475         estimate D2E/DX2                !
 ! D283  D(35,36,52,51)       -135.4684         estimate D2E/DX2                !
 ! D284  D(35,36,52,53)          5.9867         estimate D2E/DX2                !
 ! D285  D(35,37,39,38)         -1.1802         estimate D2E/DX2                !
 ! D286  D(35,37,39,57)       -140.8918         estimate D2E/DX2                !
 ! D287  D(53,37,39,38)        136.519          estimate D2E/DX2                !
 ! D288  D(53,37,39,57)         -3.1926         estimate D2E/DX2                !
 ! D289  D(35,37,53,52)         -1.6584         estimate D2E/DX2                !
 ! D290  D(35,37,53,55)        140.1487         estimate D2E/DX2                !
 ! D291  D(39,37,53,52)       -143.7673         estimate D2E/DX2                !
 ! D292  D(39,37,53,55)         -1.9602         estimate D2E/DX2                !
 ! D293  D(21,38,39,37)         -2.7203         estimate D2E/DX2                !
 ! D294  D(21,38,39,57)        140.9544         estimate D2E/DX2                !
 ! D295  D(42,38,39,37)       -149.3583         estimate D2E/DX2                !
 ! D296  D(42,38,39,57)         -5.6837         estimate D2E/DX2                !
 ! D297  D(21,38,42,40)          2.4801         estimate D2E/DX2                !
 ! D298  D(21,38,42,58)       -140.4909         estimate D2E/DX2                !
 ! D299  D(39,38,42,40)        149.0791         estimate D2E/DX2                !
 ! D300  D(39,38,42,58)          6.1081         estimate D2E/DX2                !
 ! D301  D(37,39,57,58)        146.762          estimate D2E/DX2                !
 ! D302  D(37,39,57,60)          5.9581         estimate D2E/DX2                !
 ! D303  D(38,39,57,58)          3.1152         estimate D2E/DX2                !
 ! D304  D(38,39,57,60)       -137.6888         estimate D2E/DX2                !
 ! D305  D(23,40,41,24)         -1.3006         estimate D2E/DX2                !
 ! D306  D(23,40,41,43)       -141.5992         estimate D2E/DX2                !
 ! D307  D(42,40,41,24)        141.591          estimate D2E/DX2                !
 ! D308  D(42,40,41,43)          1.2925         estimate D2E/DX2                !
 ! D309  D(23,40,42,38)          2.8271         estimate D2E/DX2                !
 ! D310  D(23,40,42,58)        141.7001         estimate D2E/DX2                !
 ! D311  D(41,40,42,38)       -135.7488         estimate D2E/DX2                !
 ! D312  D(41,40,42,58)          3.1242         estimate D2E/DX2                !
 ! D313  D(24,41,43,46)         -0.7188         estimate D2E/DX2                !
 ! D314  D(24,41,43,59)       -138.6948         estimate D2E/DX2                !
 ! D315  D(40,41,43,46)        134.4607         estimate D2E/DX2                !
 ! D316  D(40,41,43,59)         -3.5154         estimate D2E/DX2                !
 ! D317  D(38,42,58,57)         -4.247          estimate D2E/DX2                !
 ! D318  D(38,42,58,59)        137.6956         estimate D2E/DX2                !
 ! D319  D(40,42,58,57)       -147.2844         estimate D2E/DX2                !
 ! D320  D(40,42,58,59)         -5.3419         estimate D2E/DX2                !
 ! D321  D(41,43,46,44)         -0.1064         estimate D2E/DX2                !
 ! D322  D(41,43,46,61)       -141.8194         estimate D2E/DX2                !
 ! D323  D(59,43,46,44)        142.4472         estimate D2E/DX2                !
 ! D324  D(59,43,46,61)          0.7343         estimate D2E/DX2                !
 ! D325  D(41,43,59,58)          1.2971         estimate D2E/DX2                !
 ! D326  D(41,43,59,65)        142.8253         estimate D2E/DX2                !
 ! D327  D(46,43,59,58)       -140.9086         estimate D2E/DX2                !
 ! D328  D(46,43,59,65)          0.6196         estimate D2E/DX2                !
 ! D329  D(26,44,45,28)         -0.392          estimate D2E/DX2                !
 ! D330  D(26,44,45,48)       -141.8828         estimate D2E/DX2                !
 ! D331  D(46,44,45,28)        141.1607         estimate D2E/DX2                !
 ! D332  D(46,44,45,48)         -0.3302         estimate D2E/DX2                !
 ! D333  D(26,44,46,43)          1.8011         estimate D2E/DX2                !
 ! D334  D(26,44,46,61)        139.3973         estimate D2E/DX2                !
 ! D335  D(45,44,46,43)       -135.151          estimate D2E/DX2                !
 ! D336  D(45,44,46,61)          2.4451         estimate D2E/DX2                !
 ! D337  D(28,45,48,47)          8.3416         estimate D2E/DX2                !
 ! D338  D(28,45,48,62)       -138.8118         estimate D2E/DX2                !
 ! D339  D(44,45,48,47)        144.9965         estimate D2E/DX2                !
 ! D340  D(44,45,48,62)         -2.1569         estimate D2E/DX2                !
 ! D341  D(43,46,61,62)        140.2513         estimate D2E/DX2                !
 ! D342  D(43,46,61,65)         -1.8121         estimate D2E/DX2                !
 ! D343  D(44,46,61,62)         -2.0485         estimate D2E/DX2                !
 ! D344  D(44,46,61,65)       -144.1118         estimate D2E/DX2                !
 ! D345  D(30,47,48,45)        -25.8476         estimate D2E/DX2                !
 ! D346  D(30,47,48,62)        123.2597         estimate D2E/DX2                !
 ! D347  D(50,47,48,45)       -143.634          estimate D2E/DX2                !
 ! D348  D(50,47,48,62)          5.4733         estimate D2E/DX2                !
 ! D349  D(72,47,48,45)         94.5361         estimate D2E/DX2                !
 ! D350  D(72,47,48,62)       -116.3566         estimate D2E/DX2                !
 ! D351  D(30,47,50,49)         25.6859         estimate D2E/DX2                !
 ! D352  D(30,47,50,63)       -124.4304         estimate D2E/DX2                !
 ! D353  D(48,47,50,49)        144.9471         estimate D2E/DX2                !
 ! D354  D(48,47,50,63)         -5.1692         estimate D2E/DX2                !
 ! D355  D(72,47,50,49)        -92.9536         estimate D2E/DX2                !
 ! D356  D(72,47,50,63)        116.9301         estimate D2E/DX2                !
 ! D357  D(45,48,62,61)          2.5585         estimate D2E/DX2                !
 ! D358  D(45,48,62,63)        146.9091         estimate D2E/DX2                !
 ! D359  D(47,48,62,61)       -148.2101         estimate D2E/DX2                !
 ! D360  D(47,48,62,63)         -3.8595         estimate D2E/DX2                !
 ! D361  D(31,49,50,47)          1.8589         estimate D2E/DX2                !
 ! D362  D(31,49,50,63)        149.3023         estimate D2E/DX2                !
 ! D363  D(54,49,50,47)       -144.9927         estimate D2E/DX2                !
 ! D364  D(54,49,50,63)          2.4508         estimate D2E/DX2                !
 ! D365  D(31,49,54,51)         -6.7624         estimate D2E/DX2                !
 ! D366  D(31,49,54,56)       -150.3582         estimate D2E/DX2                !
 ! D367  D(50,49,54,51)        143.6288         estimate D2E/DX2                !
 ! D368  D(50,49,54,56)          0.033          estimate D2E/DX2                !
 ! D369  D(47,50,63,62)          3.23           estimate D2E/DX2                !
 ! D370  D(47,50,63,64)        148.1666         estimate D2E/DX2                !
 ! D371  D(49,50,63,62)       -147.872          estimate D2E/DX2                !
 ! D372  D(49,50,63,64)         -2.9354         estimate D2E/DX2                !
 ! D373  D(34,51,52,36)         -3.7217         estimate D2E/DX2                !
 ! D374  D(34,51,52,53)       -139.4013         estimate D2E/DX2                !
 ! D375  D(54,51,52,36)        135.8966         estimate D2E/DX2                !
 ! D376  D(54,51,52,53)          0.217          estimate D2E/DX2                !
 ! D377  D(34,51,54,49)          3.6273         estimate D2E/DX2                !
 ! D378  D(34,51,54,56)        147.985          estimate D2E/DX2                !
 ! D379  D(52,51,54,49)       -140.8454         estimate D2E/DX2                !
 ! D380  D(52,51,54,56)          3.5122         estimate D2E/DX2                !
 ! D381  D(36,52,53,37)         -2.6646         estimate D2E/DX2                !
 ! D382  D(36,52,53,55)       -144.2122         estimate D2E/DX2                !
 ! D383  D(51,52,53,37)        137.5152         estimate D2E/DX2                !
 ! D384  D(51,52,53,55)         -4.0324         estimate D2E/DX2                !
 ! D385  D(37,53,55,56)       -133.7291         estimate D2E/DX2                !
 ! D386  D(37,53,55,60)          4.2818         estimate D2E/DX2                !
 ! D387  D(52,53,55,56)          3.9874         estimate D2E/DX2                !
 ! D388  D(52,53,55,60)        141.9983         estimate D2E/DX2                !
 ! D389  D(49,54,56,55)        136.1482         estimate D2E/DX2                !
 ! D390  D(49,54,56,64)         -2.13           estimate D2E/DX2                !
 ! D391  D(51,54,56,55)         -3.5419         estimate D2E/DX2                !
 ! D392  D(51,54,56,64)       -141.8201         estimate D2E/DX2                !
 ! D393  D(53,55,56,54)         -0.2592         estimate D2E/DX2                !
 ! D394  D(53,55,56,64)        142.3379         estimate D2E/DX2                !
 ! D395  D(60,55,56,54)       -142.4487         estimate D2E/DX2                !
 ! D396  D(60,55,56,64)          0.1484         estimate D2E/DX2                !
 ! D397  D(53,55,60,57)         -1.4901         estimate D2E/DX2                !
 ! D398  D(53,55,60,66)       -143.495          estimate D2E/DX2                !
 ! D399  D(56,55,60,57)        140.2676         estimate D2E/DX2                !
 ! D400  D(56,55,60,66)         -1.7373         estimate D2E/DX2                !
 ! D401  D(54,56,64,63)          1.6662         estimate D2E/DX2                !
 ! D402  D(54,56,64,66)        145.0087         estimate D2E/DX2                !
 ! D403  D(55,56,64,63)       -141.8286         estimate D2E/DX2                !
 ! D404  D(55,56,64,66)          1.514          estimate D2E/DX2                !
 ! D405  D(39,57,58,42)          0.7054         estimate D2E/DX2                !
 ! D406  D(39,57,58,59)       -141.095          estimate D2E/DX2                !
 ! D407  D(60,57,58,42)        141.0643         estimate D2E/DX2                !
 ! D408  D(60,57,58,59)         -0.736          estimate D2E/DX2                !
 ! D409  D(39,57,60,55)         -3.646          estimate D2E/DX2                !
 ! D410  D(39,57,60,66)        133.4946         estimate D2E/DX2                !
 ! D411  D(58,57,60,55)       -139.5523         estimate D2E/DX2                !
 ! D412  D(58,57,60,66)         -2.4117         estimate D2E/DX2                !
 ! D413  D(42,58,59,43)          3.1415         estimate D2E/DX2                !
 ! D414  D(42,58,59,65)       -133.6067         estimate D2E/DX2                !
 ! D415  D(57,58,59,43)        140.4325         estimate D2E/DX2                !
 ! D416  D(57,58,59,65)          3.6842         estimate D2E/DX2                !
 ! D417  D(43,59,65,61)         -1.7517         estimate D2E/DX2                !
 ! D418  D(43,59,65,66)       -145.1581         estimate D2E/DX2                !
 ! D419  D(58,59,65,61)        139.8981         estimate D2E/DX2                !
 ! D420  D(58,59,65,66)         -3.5083         estimate D2E/DX2                !
 ! D421  D(55,60,66,64)          2.66           estimate D2E/DX2                !
 ! D422  D(55,60,66,65)        145.0239         estimate D2E/DX2                !
 ! D423  D(57,60,66,64)       -139.7782         estimate D2E/DX2                !
 ! D424  D(57,60,66,65)          2.5857         estimate D2E/DX2                !
 ! D425  D(46,61,62,48)         -0.4757         estimate D2E/DX2                !
 ! D426  D(46,61,62,63)       -140.6205         estimate D2E/DX2                !
 ! D427  D(65,61,62,48)        136.967          estimate D2E/DX2                !
 ! D428  D(65,61,62,63)         -3.1778         estimate D2E/DX2                !
 ! D429  D(46,61,65,59)          2.2158         estimate D2E/DX2                !
 ! D430  D(46,61,65,66)        145.5796         estimate D2E/DX2                !
 ! D431  D(62,61,65,59)       -139.6294         estimate D2E/DX2                !
[...]
 Alpha virt. eigenvalues --    1.19313   1.19925   1.20563   1.20656   1.21252
 Alpha virt. eigenvalues --    1.21628   1.21804   1.22530   1.22741   1.23178
 Alpha virt. eigenvalues --    1.23617   1.24038   1.24125   1.24683   1.25138
 Alpha virt. eigenvalues --    1.26114   1.26364   1.26608   1.27086   1.27610
 Alpha virt. eigenvalues --    1.27847   1.28150   1.28645   1.29073   1.29551
 Alpha virt. eigenvalues --    1.30469   1.30951   1.31268   1.31396   1.31524
 Alpha virt. eigenvalues --    1.32089   1.32376   1.32614   1.33190   1.33311
 Alpha virt. eigenvalues --    1.33621   1.34029   1.34226   1.34607   1.34978
 Alpha virt. eigenvalues --    1.35140   1.35331   1.35652   1.36049   1.36505
 Alpha virt. eigenvalues --    1.37073   1.37552   1.37691   1.38092   1.38333
 Alpha virt. eigenvalues --    1.38621   1.39226   1.39406   1.39796   1.40240
 Alpha virt. eigenvalues --    1.40449   1.40790   1.41095   1.41218   1.41373
 Alpha virt. eigenvalues --    1.41626   1.41699   1.41908   1.42124   1.42449
 Alpha virt. eigenvalues --    1.42922   1.43074   1.43324   1.43365   1.43767
 Alpha virt. eigenvalues --    1.43841   1.44273   1.44481   1.44625   1.45094
 Alpha virt. eigenvalues --    1.45484   1.45709   1.45750   1.45822   1.45921
 Alpha virt. eigenvalues --    1.46438   1.46764   1.46963   1.47220   1.47669
 Alpha virt. eigenvalues --    1.47940   1.48118   1.48436   1.48649   1.48767
 Alpha virt. eigenvalues --    1.49125   1.49336   1.49765   1.50141   1.50307
 Alpha virt. eigenvalues --    1.50528   1.50733   1.51270   1.51532   1.51739
 Alpha virt. eigenvalues --    1.52024   1.52364   1.52665   1.53104   1.53330
 Alpha virt. eigenvalues --    1.53497   1.53935   1.54088   1.54437   1.55157
 Alpha virt. eigenvalues --    1.55195   1.55577   1.55928   1.56346   1.56607
 Alpha virt. eigenvalues --    1.56973   1.57321   1.57576   1.58291   1.58423
 Alpha virt. eigenvalues --    1.58716   1.59191   1.59346   1.60307   1.60526
 Alpha virt. eigenvalues --    1.60926   1.61258   1.61655   1.61860   1.62439
 Alpha virt. eigenvalues --    1.63264   1.63375   1.63893   1.64035   1.64553
 Alpha virt. eigenvalues --    1.65086   1.65306   1.65589   1.65778   1.66094
 Alpha virt. eigenvalues --    1.66212   1.66653   1.67226   1.67865   1.68045
 Alpha virt. eigenvalues --    1.68594   1.68926   1.69136   1.69529   1.69726
 Alpha virt. eigenvalues --    1.70174   1.70570   1.70671   1.71074   1.71328
 Alpha virt. eigenvalues --    1.71707   1.72169   1.72627   1.73058   1.73485
 Alpha virt. eigenvalues --    1.73709   1.73826   1.74048   1.74346   1.75108
 Alpha virt. eigenvalues --    1.75234   1.75824   1.76515   1.76721   1.77432
 Alpha virt. eigenvalues --    1.77517   1.77971   1.78352   1.78858   1.79183
 Alpha virt. eigenvalues --    1.79290   1.79787   1.80391   1.80970   1.81257
 Alpha virt. eigenvalues --    1.81507   1.81925   1.82603   1.83767   1.83973
 Alpha virt. eigenvalues --    1.84211   1.85747   1.85946   1.86347   1.87251
 Alpha virt. eigenvalues --    1.87397   1.87668   1.88377   1.88516   1.89291
 Alpha virt. eigenvalues --    1.89745   1.90024   1.90400   1.90772   1.91165
 Alpha virt. eigenvalues --    1.91721   1.92237   1.92373   1.92628   1.93582
 Alpha virt. eigenvalues --    1.93888   1.94412   1.94804   1.95159   1.95802
 Alpha virt. eigenvalues --    1.96027   1.96546   1.96695   1.97650   1.99236
 Alpha virt. eigenvalues --    1.99437   1.99730   1.99912   2.00542   2.00800
 Alpha virt. eigenvalues --    2.01450   2.01646   2.01787   2.02049   2.02319
 Alpha virt. eigenvalues --    2.02773   2.02862   2.03368   2.04625   2.04900
 Alpha virt. eigenvalues --    2.05451   2.05721   2.05946   2.06320   2.06561
 Alpha virt. eigenvalues --    2.07258   2.07536   2.08044   2.08419   2.08818
 Alpha virt. eigenvalues --    2.08912   2.09940   2.10368   2.10704   2.11362
 Alpha virt. eigenvalues --    2.11646   2.12041   2.12498   2.12946   2.13295
 Alpha virt. eigenvalues --    2.13683   2.13981   2.14695   2.14832   2.15646
 Alpha virt. eigenvalues --    2.16277   2.16799   2.16883   2.17374   2.17821
 Alpha virt. eigenvalues --    2.18464   2.19033   2.19223   2.19795   2.20147
 Alpha virt. eigenvalues --    2.20330   2.20952   2.21109   2.21896   2.21966
 Alpha virt. eigenvalues --    2.22476   2.22577   2.23167   2.23450   2.24445
 Alpha virt. eigenvalues --    2.24724   2.25209   2.25846   2.26223   2.26511
 Alpha virt. eigenvalues --    2.26927   2.27242   2.27725   2.27827   2.28253
 Alpha virt. eigenvalues --    2.28860   2.29290   2.30265   2.30321   2.30866
 Alpha virt. eigenvalues --    2.31286   2.31807   2.32456   2.32717   2.32937
 Alpha virt. eigenvalues --    2.33580   2.34098   2.34424   2.34820   2.35159
 Alpha virt. eigenvalues --    2.35484   2.36278   2.36373   2.36787   2.37879
 Alpha virt. eigenvalues --    2.38211   2.38866   2.39263   2.39742   2.40229
 Alpha virt. eigenvalues --    2.40616   2.40896   2.41135   2.41334   2.41932
 Alpha virt. eigenvalues --    2.42064   2.42282   2.42744   2.43073   2.43593
 Alpha virt. eigenvalues --    2.44134   2.44933   2.45091   2.45350   2.46218
 Alpha virt. eigenvalues --    2.46369   2.46802   2.46972   2.47887   2.48472
 Alpha virt. eigenvalues --    2.48585   2.49132   2.49807   2.50149   2.50849
 Alpha virt. eigenvalues --    2.51263   2.52338   2.53137   2.53305   2.53538
 Alpha virt. eigenvalues --    2.53847   2.54243   2.54710   2.55440   2.55593
 Alpha virt. eigenvalues --    2.56083   2.56480   2.56800   2.57213   2.57699
 Alpha virt. eigenvalues --    2.58158   2.58626   2.58966   2.59410   2.59909
 Alpha virt. eigenvalues --    2.60707   2.61253   2.61521   2.62572   2.62975
 Alpha virt. eigenvalues --    2.63375   2.64029   2.64438   2.64734   2.65021
 Alpha virt. eigenvalues --    2.66366   2.66852   2.68058   2.68331   2.69171
 Alpha virt. eigenvalues --    2.69877   2.70576   2.70857   2.71925   2.72733
 Alpha virt. eigenvalues --    2.73894   2.74091   2.75559   2.76191   2.76554
 Alpha virt. eigenvalues --    2.77731   2.79378   2.79430   2.80242   2.80934
 Alpha virt. eigenvalues --    2.81612   2.81761   2.82519   2.82910   2.83079
 Alpha virt. eigenvalues --    2.84160   2.84934   2.86127   2.86537   2.86968
 Alpha virt. eigenvalues --    2.88763   2.88912   2.90041   2.91089   2.92122
 Alpha virt. eigenvalues --    2.92568   2.92997   2.93115   2.93824   2.94434
 Alpha virt. eigenvalues --    2.94839   2.95293   2.95566   2.95772   2.96245
 Alpha virt. eigenvalues --    2.96870   2.97105   2.97320   2.97773   2.98369
 Alpha virt. eigenvalues --    2.98768   2.98926   2.99177   2.99841   3.00305
 Alpha virt. eigenvalues --    3.00742   3.01173   3.01564   3.01741   3.02501
 Alpha virt. eigenvalues --    3.02871   3.02941   3.03464   3.03970   3.04154
 Alpha virt. eigenvalues --    3.04584   3.05071   3.05281   3.05891   3.05945
 Alpha virt. eigenvalues --    3.06165   3.06724   3.07042   3.07353   3.07879
 Alpha virt. eigenvalues --    3.08287   3.08923   3.09231   3.09746   3.10492
 Alpha virt. eigenvalues --    3.10795   3.10837   3.11295   3.11372   3.12013
 Alpha virt. eigenvalues --    3.12328   3.12414   3.12743   3.13274   3.13602
 Alpha virt. eigenvalues --    3.13705   3.14281   3.14445   3.14887   3.15149
 Alpha virt. eigenvalues --    3.15575   3.16370   3.16706   3.17169   3.17560
 Alpha virt. eigenvalues --    3.17763   3.18121   3.18609   3.19044   3.19939
 Alpha virt. eigenvalues --    3.20985   3.21095   3.21486   3.22300   3.24055
 Alpha virt. eigenvalues --    3.24761   3.25545   3.26144   3.28208   3.31312
 Alpha virt. eigenvalues --    3.34329   3.36342   3.36956   3.38873   3.39389
 Alpha virt. eigenvalues --    3.41115   3.42737   3.43598   3.44369   3.44977
 Alpha virt. eigenvalues --    3.46473   3.47129   3.48793   3.49018   3.49808
 Alpha virt. eigenvalues --    3.51536   3.51979   3.52398   3.53202   3.55572
 Alpha virt. eigenvalues --    3.55889   3.57672   3.58210   3.58635   3.60105
 Alpha virt. eigenvalues --    3.60326   3.61176   3.62022   3.62898   3.64866
 Alpha virt. eigenvalues --    3.65531   3.66273   3.67146   3.68202   3.69075
 Alpha virt. eigenvalues --    3.69608   3.70855   3.71641   3.71861   3.72535
 Alpha virt. eigenvalues --    3.74613   3.75717   3.76505   3.77120   3.78575
 Alpha virt. eigenvalues --    3.81563   3.82269   3.82433   3.83285   3.83642
 Alpha virt. eigenvalues --    3.84550   3.85896   3.86801   3.87196   3.87717
 Alpha virt. eigenvalues --    3.87890   3.89058   3.89243   3.89773   3.90671
 Alpha virt. eigenvalues --    3.91156   3.93236   3.94691   4.02492   4.05794
 Alpha virt. eigenvalues --    4.17850   4.21216   4.21863   4.22071   4.26103
 Alpha virt. eigenvalues --    4.27325   4.32354   4.33779   4.36036   4.37156
 Alpha virt. eigenvalues --    4.37963   4.41444   4.44112   4.46355   4.47873
 Alpha virt. eigenvalues --    4.48580   4.50228   4.54827   4.58693   4.62285
 Alpha virt. eigenvalues --    4.63305   4.65663   4.70300   4.74650   4.79408
 Alpha virt. eigenvalues --    4.80851   4.83347   4.85360   4.86213   4.95371
 Alpha virt. eigenvalues --    4.97050   5.00113   5.01890   5.04481   9.49776
 Alpha virt. eigenvalues --    9.55702   9.59618   9.62140   9.66625   9.67390
 Alpha virt. eigenvalues --    9.71155   9.72809  22.99882  23.19956  23.22450
 Alpha virt. eigenvalues --   23.23475  23.41414  23.43272  23.46455  23.50409
 Alpha virt. eigenvalues --   23.52544  23.61094  23.63232  23.66562  23.66864
 Alpha virt. eigenvalues --   23.67946  23.69687  23.70985  23.72732  23.73423
 Alpha virt. eigenvalues --   23.74406  23.76354  23.76982  23.77422  23.80135
 Alpha virt. eigenvalues --   23.81239  23.82507  23.84624  23.85169  23.86444
 Alpha virt. eigenvalues --   23.88480  23.89096  23.90524  23.91070  23.92131
 Alpha virt. eigenvalues --   23.93005  23.93707  23.94259  23.95753  23.95950
 Alpha virt. eigenvalues --   23.96620  23.97159  23.97467  23.98589  23.99193
 Alpha virt. eigenvalues --   23.99765  24.01046  24.01478  24.02482  24.02910
 Alpha virt. eigenvalues --   24.03274  24.05101  24.06200  24.06367  24.07502
 Alpha virt. eigenvalues --   24.07858  24.08272  24.09191  24.09318  24.09792
 Alpha virt. eigenvalues --   24.10978  24.11568  24.12048  24.13462  24.13665
 Alpha virt. eigenvalues --   24.14610  24.16982  24.18913  25.52644  25.54862
 Alpha virt. eigenvalues --   25.59951  25.63323  25.66946  25.71749  25.73611
 Alpha virt. eigenvalues --   25.75003  25.81259  25.83692  25.86672  25.87842
 Alpha virt. eigenvalues --   25.89612  25.92711  25.94904  26.04126  26.10696
 Alpha virt. eigenvalues --   26.19866  26.26295  26.33582  26.40656  26.48261
 Alpha virt. eigenvalues --   26.55679  26.77976 215.44068 215.50967 215.55435
 Alpha virt. eigenvalues --  215.58258 215.63479 215.64590 215.68455 215.70778
          Condensed to atoms (all electrons):
 Mulliken charges:
               1
     1  C   -0.269485
     2  C   -0.160960
     3  C   -0.493989
     4  C    0.110013
     5  C    0.228747
     6  C    0.075647
     7  C   -0.470171
     8  C    0.121528
     9  C    0.122057
    10  C   -0.489919
    11  C    0.152645
    12  C    0.198187
    13  C    0.165366
    14  C    0.240542
    15  C    0.159854
    16  C   -0.669708
    17  C    0.016083
    18  C    0.038560
    19  C    0.026489
    20  C    0.070699
    21  C    0.004425
    22  C    0.062814
    23  C    0.006005
    24  C    0.003758
    25  C    0.040000
    26  C    0.002598
    27  C    0.155664
    28  C    0.011645
    29  C    0.176882
    30  C    0.118458
    31  C   -0.676007
    32  C    0.165746
    33  C    0.019806
    34  C    0.182191
    35  C   -0.003301
    36  C   -0.006923
    37  C   -0.002098
    38  C    0.004042
    39  C   -0.004372
    40  C    0.006861
    41  C   -0.000655
    42  C   -0.010086
    43  C    0.004573
    44  C   -0.004501
    45  C    0.023562
    46  C    0.010264
    47  C   -0.657038
    48  C    0.140086
    49  C    0.174940
    50  C    0.186421
    51  C    0.039912
    52  C    0.001162
    53  C    0.000633
    54  C    0.030553
    55  C    0.003050
    56  C   -0.000875
    57  C    0.003144
    58  C    0.003776
    59  C    0.006287
    60  C    0.004312
    61  C   -0.000287
    62  C    0.037064
    63  C    0.031760
    64  C    0.001520
    65  C    0.005972
    66  C   -0.003974
    67  Cl   0.085842
    68  Cl   0.102437
    69  Cl   0.075411
    70  Cl   0.060264
    71  Cl   0.048072
    72  Cl   0.030337
    73  Cl   0.062252
    74  Cl   0.063432
 Sum of Mulliken charges =  -0.00000
 Mulliken charges with hydrogens summed into heavy atoms:
               1
     1  C   -0.269485
     2  C   -0.160960
     3  C   -0.493989
     4  C    0.110013
     5  C    0.228747
     6  C    0.075647
     7  C   -0.470171
     8  C    0.121528
     9  C    0.122057
    10  C   -0.489919
    11  C    0.152645
    12  C    0.198187
    13  C    0.165366
    14  C    0.240542
    15  C    0.159854
    16  C   -0.669708
    17  C    0.016083
    18  C    0.038560
    19  C    0.026489
    20  C    0.070699
    21  C    0.004425
    22  C    0.062814
    23  C    0.006005
    24  C    0.003758
    25  C    0.040000
    26  C    0.002598
    27  C    0.155664
    28  C    0.011645
    29  C    0.176882
    30  C    0.118458
    31  C   -0.676007
    32  C    0.165746
    33  C    0.019806
    34  C    0.182191
    35  C   -0.003301
    36  C   -0.006923
    37  C   -0.002098
    38  C    0.004042
    39  C   -0.004372
    40  C    0.006861
    41  C   -0.000655
    42  C   -0.010086
    43  C    0.004573
    44  C   -0.004501
    45  C    0.023562
    46  C    0.010264
    47  C   -0.657038
    48  C    0.140086
    49  C    0.174940
    50  C    0.186421
    51  C    0.039912
    52  C    0.001162
    53  C    0.000633
    54  C    0.030553
    55  C    0.003050
    56  C   -0.000875
    57  C    0.003144
    58  C    0.003776
    59  C    0.006287
    60  C    0.004312
    61  C   -0.000287
    62  C    0.037064
    63  C    0.031760
    64  C    0.001520
    65  C    0.005972
    66  C   -0.003974
    67  Cl   0.085842
    68  Cl   0.102437
    69  Cl   0.075411
    70  Cl   0.060264
    71  Cl   0.048072
    72  Cl   0.030337
    73  Cl   0.062252
    74  Cl   0.063432
 Electronic spatial extent (au):  <R**2>=          36112.0360
 Charge=              0.0000 electrons
 Dipole moment (field-independent basis, Debye):
    X=              3.9603    Y=             -3.2248    Z=             -2.1939  Tot=              5.5584
 Quadrupole moment (field-independent basis, Debye-Ang):
   XX=           -483.1604   YY=           -486.9141   ZZ=           -474.4066
   XY=             -5.3512   XZ=             -0.1178   YZ=             -4.1563
 Traceless Quadrupole moment (field-independent basis, Debye-Ang):
   XX=             -1.6667   YY=             -5.4204   ZZ=              7.0871
   XY=             -5.3512   XZ=             -0.1178   YZ=             -4.1563
 Octapole moment (field-independent basis, Debye-Ang**2):
  XXX=            -87.2437  YYY=             25.1029  ZZZ=              8.3421  XYY=            -42.7174
  XXY=             27.2861  XXZ=              2.9082  XZZ=            -51.3399  YZZ=              8.1085
  YYZ=             11.5223  XYZ=            -12.9872
 Hexadecapole moment (field-independent basis, Debye-Ang**3):
 XXXX=         -23510.0047 YYYY=         -16710.4875 ZZZZ=         -12290.4283 XXXY=             52.1023
 XXXZ=              6.3886 YYYX=             -9.5988 YYYZ=             69.7659 ZZZX=              1.1911
 ZZZY=             23.5137 XXYY=          -6733.2924 XXZZ=          -5978.8489 YYZZ=          -4841.3988
 XXYZ=             -4.7497 YYXZ=            -38.6892 ZZXY=             10.3420
 N-N= 1.532608136803D+04 E-N=-4.522905138687D+04  KE= 6.178359190310D+03
 No NMR shielding tensors so no spin-rotation constants.
 Leave Link  601 at Fri Jul 15 12:23:02 2022, MaxMem=  1342177280 cpu:              59.8 elap:               1.5
 (Enter /home/mkliu/g16/l9999.exe)
 1\1\GINC-NODE06\FOpt\RB3LYP\6-311G(d,p)\C66Cl8\MKLIU\15-Jul-2022\0\\#P
  opt b3lyp/6-311G(d, p) empiricaldispersion=GD3\\force\\0,1\C,-1.35947
 11294,1.8834436017,-3.978744883\C,0.2011639393,2.3041662012,-4.1120675
 315\C,0.9603784593,0.8750941785,-4.3145786426\C,-1.3042888446,0.402245
 6315,-3.8728805289\C,-0.0982131043,-0.1727089065,-4.1792336064\C,-2.18
 69437748,-0.1372600204,-2.9349069436\C,-2.195075782,2.2778242391,-2.67
 92082639\C,-2.7309703824,0.9222439236,-2.1656740536\C,-1.3942154265,2.
 892659657,-1.5578287997\C,0.8666309957,2.894109463,-2.7765948496\C,-0.
 0528057754,3.1778277559,-1.6086450556\C,1.8209924332,0.6964501301,-3.0
 840833328\C,1.8358785163,1.8295461568,-2.3085348569\C,2.2002247093,-0.
 5464803404,-2.545758181\C,0.1806140549,-1.425913649,-3.6544709615\C,1.
 5857803688,-1.8052967623,-3.1809676589\C,-1.9663688092,-1.4311446133,-
 2.4033292142\C,-0.781839999,-2.0891208467,-2.8718618063\C,-2.492739067
 7,-1.7376134071,-1.0901576087\C,-3.115510945,0.7042426725,-0.857745078
 3\C,-3.0941799425,-0.6603380223,-0.3063114464\C,-2.0626138713,2.860680
 1686,-0.2796651586\C,-2.9471280986,1.8214904733,0.0519894478\C,-1.4014
 73493,3.2868356229,0.932071184\C,0.6504206317,3.4206791599,-0.36951117
 55\C,-0.0516326928,3.5710132621,0.8906638358\C,2.3774204248,1.81469535
 07,-1.0142682429\C,1.8929195841,2.8370744918,-0.1047400377\C,2.8114928
 205,-0.5804789201,-1.2747282956\C,2.9459154253,0.6143792479,-0.5212235
 975\C,3.1264119554,-1.9402666515,-0.6280556852\C,1.2886207816,-2.82727
 09958,-2.1087089797\C,-0.1203972744,-3.0566893065,-2.0362649456\C,2.04
 01440449,-2.9489231085,-0.9784376767\C,-1.9488877122,-2.8583500981,-0.
 4040105739\C,-0.7218541516,-3.4895480914,-0.8723690851\C,-1.9435732255
 ,-2.9332052356,1.0169045242\C,-3.1507718428,-0.8065818562,1.0982015515
 \C,-2.5477114951,-1.9186292058,1.7625762165\C,-2.9087708653,1.61986188
 31,1.4841349976\C,-1.9497161054,2.5430465185,2.0491164419\C,-3.0264665
 139,0.3448080592,1.9941507883\C,-1.1281528982,2.1409400982,3.096473409
 4\C,0.8157391767,3.1218533207,1.9548237796\C,2.0322005419,2.6566600473
 ,1.3228176947\C,0.2922211287,2.4392984814,3.0499162898\C,3.4566420124,
 0.5932477855,0.9200193679\C,2.6952279608,1.5618078904,1.8193564321\C,3
 .0101932288,-1.8842635697,0.8867085933\C,3.1852662611,-0.7336342294,1.
 5967548427\C,1.4533577093,-3.4790117093,0.2144185049\C,0.0899805643,-3
 .8006667789,0.2663056058\C,-0.6766178966,-3.4932281628,1.4530234626\C,
 2.0852334917,-2.8720541869,1.3576434782\C,-0.050549685,-2.982289157,2.
 5832330856\C,1.3651951416,-2.6741129053,2.5410880875\C,-1.9484156295,-
 1.4650094031,3.0011665398\C,-2.2442833407,-0.0563817042,3.1429532579\C
 ,-1.2855467503,0.8151102564,3.6653578518\C,-0.7033220837,-1.961226226,
 3.3852770906\C,1.0014135822,1.3007287381,3.5810983241\C,2.1896507485,0
 .8818430195,2.967407855\C,2.4834785911,-0.527577246,2.829092681\C,1.58
 28756,-1.4794315187,3.3077060616\C,0.030328167,0.306853347,4.000325218
 2\C,0.3134936443,-1.0503441907,3.8702336017\Cl,-2.3084535485,2.2084496
 214,-5.497982221\Cl,0.4427631604,3.4079242384,-5.4875609853\Cl,1.94952
 27233,0.7186784812,-5.8210205669\Cl,2.6564391076,-2.516804845,-4.48844
 98704\Cl,4.8057322905,-2.483798619,-1.1582805761\Cl,5.2706095087,0.995
 3357277,0.907644055\Cl,-3.5762132145,3.4534891277,-2.9945841687\Cl,1.8
 198968577,4.466974479,-3.0485311124\\Version=ES64L-G16RevA.03\State=1-
 A\HF=-6197.2114933\RMSD=9.758e-09\RMSF=4.126e-05\Dipole=-1.2797172,-0.
 726606,1.6176242\Quadrupole=-4.7173789,2.7184983,1.9988806,4.5435351,-
 0.8793548,3.1492886\PG=C01 [X(C66Cl8)]\\@


 BE LIKE A POSTAGE STAMP.  STICK TO ONE THING UNTIL
 YOU GET THERE -- JOSH BILLINGS
 Job cpu time:       2 days 22 hours  4 minutes 12.4 seconds.
 Elapsed time:       0 days  1 hours 27 minutes 47.6 seconds.
 File lengths (MBytes):  RWF=   1193 Int=      0 D2E=      0 Chk=    146 Scr=      1
 Normal termination of Gaussian 16 at Fri Jul 15 12:23:04 2022.
