 Entering Gaussian System, Link 0=g16
 Input=drgjuhv7icni8_addon_9.gjf
 Output=drgjuhv7icni8_addon_9.log
 Initial command:
 /home/mkliu/g16/l1.exe "/data/scratch/Gau-180238.inp" -scrdir="/data/scratch/"
 Entering Link 1 = /home/mkliu/g16/l1.exe PID=    180239.
  
 Copyright (c) 1988,1990,1992,1993,1995,1998,2003,2009,2016,
            Gaussian, Inc.  All Rights Reserved.
  
 This is part of the Gaussian(R) 16 program.  It is based on
 the Gaussian(R) 09 system (copyright 2009, Gaussian, Inc.),
 the Gaussian(R) 03 system (copyright 2003, Gaussian, Inc.),
 the Gaussian(R) 98 system (copyright 1998, Gaussian, Inc.),
 the Gaussian(R) 94 system (copyright 1995, Gaussian, Inc.),
 the Gaussian 92(TM) system (copyright 1992, Gaussian, Inc.),
 the Gaussian 90(TM) system (copyright 1990, Gaussian, Inc.),
 the Gaussian 88(TM) system (copyright 1988, Gaussian, Inc.),
 the Gaussian 86(TM) system (copyright 1986, Carnegie Mellon
 University), and the Gaussian 82(TM) system (copyright 1983,
 Carnegie Mellon University). Gaussian is a federally registered
 trademark of Gaussian, Inc.
  
 This software contains proprietary and confidential information,
 including trade secrets, belonging to Gaussian, Inc.
  
 This software is provided under written license and may be
 used, copied, transmitted, or stored only in accord with that
 written license.
  
 The following legend is applicable only to US Government
 contracts under FAR:
  
                    RESTRICTED RIGHTS LEGEND
  
 Use, reproduction and disclosure by the US Government is
 subject to restrictions as set forth in subparagraphs (a)
 and (c) of the Commercial Computer Software - Restricted
 Rights clause in FAR 52.227-19.
  
 Gaussian, Inc.
 340 Quinnipiac St., Bldg. 40, Wallingford CT 06492
  
  
 ---------------------------------------------------------------
 Warning -- This program may not be used in any manner that
 competes with the business of Gaussian, Inc. or will provide
 assistance to any competitor of Gaussian, Inc.  The licensee
 of this program is prohibited from giving any competitor of
 Gaussian, Inc. access to this program.  By using this program,
 the user acknowledges that Gaussian, Inc. is engaged in the
 business of creating and licensing software in the field of
 computational chemistry and represents and warrants to the
 licensee that it is not a competitor of Gaussian, Inc. and that
 it will not use this program in any manner prohibited above.
 ---------------------------------------------------------------
  

 Cite this work as:
 Gaussian 16, Revision A.03,
 M. J. Frisch, G. W. Trucks, H. B. Schlegel, G. E. Scuseria, 
 M. A. Robb, J. R. Cheeseman, G. Scalmani, V. Barone, 
 G. A. Petersson, H. Nakatsuji, X. Li, M. Caricato, A. V. Marenich, 
 J. Bloino, B. G. Janesko, R. Gomperts, B. Mennucci, H. P. Hratchian, 
 J. V. Ortiz, A. F. Izmaylov, J. L. Sonnenberg, D. Williams-Young, 
 F. Ding, F. Lipparini, F. Egidi, J. Goings, B. Peng, A. Petrone, 
 T. Henderson, D. Ranasinghe, V. G. Zakrzewski, J. Gao, N. Rega, 
 G. Zheng, W. Liang, M. Hada, M. Ehara, K. Toyota, R. Fukuda, 
 J. Hasegawa, M. Ishida, T. Nakajima, Y. Honda, O. Kitao, H. Nakai, 
 T. Vreven, K. Throssell, J. A. Montgomery, Jr., J. E. Peralta, 
 F. Ogliaro, M. J. Bearpark, J. J. Heyd, E. N. Brothers, K. N. Kudin, 
 V. N. Staroverov, T. A. Keith, R. Kobayashi, J. Normand, 
 K. Raghavachari, A. P. Rendell, J. C. Burant, S. S. Iyengar, 
 J. Tomasi, M. Cossi, J. M. Millam, M. Klene, C. Adamo, R. Cammi, 
 J. W. Ochterski, R. L. Martin, K. Morokuma, O. Farkas, 
 J. B. Foresman, and D. J. Fox, Gaussian, Inc., Wallingford CT, 2016.
 
 ******************************************
 Gaussian 16:  ES64L-G16RevA.03 25-Dec-2016
                15-Jul-2022 
 ******************************************
 %mem=10GB
 %chk=drgjuhv7icni8_addon_9.chk
 %nprocshared=48
 Will use up to   48 processors via shared memory.
 -------------------------------------------------
 #P opt b3lyp/6-311G(d, p) empiricaldispersion=GD3
 -------------------------------------------------
 1/18=20,19=15,26=3,38=1/1,3;
 2/9=110,12=2,17=6,18=5,40=1/2;
 3/5=4,6=6,7=101,11=2,25=1,30=1,71=1,74=-5,124=31/1,2,3;
 4//1;
 5/5=2,38=5/2;
 6/7=2,8=2,9=2,10=2,28=1/1;
 7//1,2,3,16;
 1/18=20,19=15,26=3/3(2);
 2/9=110/2;
 99//99;
 2/9=110/2;
 3/5=4,6=6,7=101,11=2,25=1,30=1,71=1,74=-5,124=31/1,2,3;
 4/5=5,16=3,69=1/1;
 5/5=2,38=5/2;
 7//1,2,3,16;
 1/18=20,19=15,26=3/3(-5);
 2/9=110/2;
 6/7=2,8=2,9=2,10=2,19=2,28=1/1;
 99/9=1/99;
 Leave Link    1 at Fri Jul 15 04:19:13 2022, MaxMem=  1342177280 cpu:               2.1 elap:               0.1
 (Enter /home/mkliu/g16/l101.exe)
 -----
 force
 -----
 Symbolic Z-matrix:
 Charge =  0 Multiplicity = 2
 C                    -1.34167   1.87047  -3.94896 
 C                     0.1797    2.27742  -4.07488 
 C                     0.94622   0.90998  -4.27604 
 C                    -1.27289   0.39098  -3.82639 
 C                    -0.06761  -0.16515  -4.13608 
 C                    -2.12813  -0.13247  -2.87055 
 C                    -2.17197   2.26381  -2.70059 
 C                    -2.69121   0.93798  -2.12845 
 C                    -1.40216   2.82903  -1.52588 
 C                     0.83481   2.87851  -2.78801 
 C                    -0.02606   3.13367  -1.57309 
 C                     1.75939   0.69778  -3.03893 
 C                     1.77586   1.82714  -2.25887 
 C                     2.14983  -0.53986  -2.52196 
 C                     0.20891  -1.40739  -3.60311 
 C                     1.60209  -1.80561  -3.166 
 C                    -1.91706  -1.40719  -2.34598 
 C                    -0.75158  -2.06427  -2.81187 
 C                    -2.46426  -1.69699  -1.04752 
 C                    -3.10872   0.70478  -0.84868 
 C                    -3.07446  -0.63561  -0.28969 
 C                    -2.04581   2.80782  -0.31329 
 C                    -3.21354   1.90267   0.05361 
 C                    -1.36742   3.16149   0.87957 
 C                     0.65839   3.37294  -0.40442 
 C                    -0.0212    3.44066   0.82883 
 C                     2.36253   1.79785  -1.00844 
 C                     2.1003    2.98652  -0.13327 
 C                     2.79127  -0.57347  -1.27433 
 C                     2.9035    0.61206  -0.5062 
 C                     3.11757  -1.92107  -0.63926 
 C                     1.29906  -2.81968  -2.10257 
 C                    -0.10804  -3.04038  -2.00841 
 C                     2.04018  -2.92169  -0.97381 
 C                    -1.92625  -2.81701  -0.3819 
 C                    -0.71817  -3.44712  -0.84811 
 C                    -1.93236  -2.89873   1.03873 
 C                    -3.15484  -0.79427   1.10382 
 C                    -2.54969  -1.89895   1.76609 
 C                    -2.93457   1.60781   1.49032 
 C                    -1.92895   2.4752    1.99843 
 C                    -3.04099   0.3489    1.99977 
 C                    -1.09157   2.08691   3.04391 
 C                     0.84273   3.03401   1.89726 
 C                     2.06609   2.64197   1.32076 
 C                     0.30065   2.37371   3.00087 
 C                     3.25067   0.53682   0.92241 
 C                     2.72716   1.53116   1.80034 
 C                     3.01876  -1.90137   0.86035 
 C                     3.18902  -0.73371   1.57262 
 C                     1.4497   -3.46478   0.20983 
 C                     0.10244  -3.76301   0.27601 
 C                    -0.67053  -3.45868   1.44637 
 C                     2.09225  -2.86132   1.34092 
 C                    -0.03788  -2.94842   2.56165 
 C                     1.36153  -2.65542   2.51351 
 C                    -1.939    -1.44947   2.99196 
 C                    -2.2307   -0.05122   3.12088 
 C                    -1.2635    0.79053   3.63707 
 C                    -0.69983  -1.94089   3.35814 
 C                     1.02411   1.26129   3.55344 
 C                     2.21342   0.85705   2.97716 
 C                     2.50095  -0.53963   2.83407 
 C                     1.58002  -1.46915   3.27878 
 C                     0.04233   0.29688   3.97466 
 C                     0.31944  -1.05349   3.83985 
 Cl                   -2.23722   2.22647  -5.46647 
 Cl                    0.40451   3.33458  -5.48126 
 Cl                    1.93535   0.77528  -5.74373 
 Cl                    2.69871  -2.40286  -4.44633 
 Cl                   -3.48762   3.42454  -3.06191 
 Cl                   -4.84351   2.65956  -0.15954 
 Cl                    4.75797  -2.41725  -1.2518 
 Cl                    1.72986   4.39356  -3.15876 
 Cl                    3.32214   4.29065  -0.4173 
 
 ITRead=  0  0  0  0  0  0  0  0  0  0  0  0  0  0  0  0  0  0  0  0
 ITRead=  0  0  0  0  0  0  0  0  0  0  0  0  0  0  0  0  0  0  0  0
 ITRead=  0  0  0  0  0  0  0  0  0  0  0  0  0  0  0  0  0  0  0  0
 ITRead=  0  0  0  0  0  0  0  0  0  0  0  0  0  0  0
 MicOpt= -1 -1 -1 -1 -1 -1 -1 -1 -1 -1 -1 -1 -1 -1 -1 -1 -1 -1 -1 -1
 MicOpt= -1 -1 -1 -1 -1 -1 -1 -1 -1 -1 -1 -1 -1 -1 -1 -1 -1 -1 -1 -1
 MicOpt= -1 -1 -1 -1 -1 -1 -1 -1 -1 -1 -1 -1 -1 -1 -1 -1 -1 -1 -1 -1
 MicOpt= -1 -1 -1 -1 -1 -1 -1 -1 -1 -1 -1 -1 -1 -1 -1
 NAtoms=     75 NQM=       75 NQMF=       0 NMMI=      0 NMMIF=      0
                NMic=       0 NMicF=      0.
                    Isotopes and Nuclear Properties:
 (Nuclear quadrupole moments (NQMom) in fm**2, nuclear magnetic moments (NMagM)
  in nuclear magnetons)

  Atom         1           2           3           4           5           6           7           8           9          10
 IAtWgt=          12          12          12          12          12          12          12          12          12          12
 AtmWgt=  12.0000000  12.0000000  12.0000000  12.0000000  12.0000000  12.0000000  12.0000000  12.0000000  12.0000000  12.0000000
 NucSpn=           0           0           0           0           0           0           0           0           0           0
 AtZEff=  -0.0000000  -0.0000000  -0.0000000  -0.0000000  -0.0000000  -0.0000000  -0.0000000  -0.0000000  -0.0000000  -0.0000000
 NQMom=    0.0000000   0.0000000   0.0000000   0.0000000   0.0000000   0.0000000   0.0000000   0.0000000   0.0000000   0.0000000
 NMagM=    0.0000000   0.0000000   0.0000000   0.0000000   0.0000000   0.0000000   0.0000000   0.0000000   0.0000000   0.0000000
 AtZNuc=   6.0000000   6.0000000   6.0000000   6.0000000   6.0000000   6.0000000   6.0000000   6.0000000   6.0000000   6.0000000

  Atom        11          12          13          14          15          16          17          18          19          20
 IAtWgt=          12          12          12          12          12          12          12          12          12          12
 AtmWgt=  12.0000000  12.0000000  12.0000000  12.0000000  12.0000000  12.0000000  12.0000000  12.0000000  12.0000000  12.0000000
 NucSpn=           0           0           0           0           0           0           0           0           0           0
 AtZEff=  -0.0000000  -0.0000000  -0.0000000  -0.0000000  -0.0000000  -0.0000000  -0.0000000  -0.0000000  -0.0000000  -0.0000000
 NQMom=    0.0000000   0.0000000   0.0000000   0.0000000   0.0000000   0.0000000   0.0000000   0.0000000   0.0000000   0.0000000
 NMagM=    0.0000000   0.0000000   0.0000000   0.0000000   0.0000000   0.0000000   0.0000000   0.0000000   0.0000000   0.0000000
 AtZNuc=   6.0000000   6.0000000   6.0000000   6.0000000   6.0000000   6.0000000   6.0000000   6.0000000   6.0000000   6.0000000

  Atom        21          22          23          24          25          26          27          28          29          30
 IAtWgt=          12          12          12          12          12          12          12          12          12          12
 AtmWgt=  12.0000000  12.0000000  12.0000000  12.0000000  12.0000000  12.0000000  12.0000000  12.0000000  12.0000000  12.0000000
 NucSpn=           0           0           0           0           0           0           0           0           0           0
 AtZEff=  -0.0000000  -0.0000000  -0.0000000  -0.0000000  -0.0000000  -0.0000000  -0.0000000  -0.0000000  -0.0000000  -0.0000000
 NQMom=    0.0000000   0.0000000   0.0000000   0.0000000   0.0000000   0.0000000   0.0000000   0.0000000   0.0000000   0.0000000
 NMagM=    0.0000000   0.0000000   0.0000000   0.0000000   0.0000000   0.0000000   0.0000000   0.0000000   0.0000000   0.0000000
 AtZNuc=   6.0000000   6.0000000   6.0000000   6.0000000   6.0000000   6.0000000   6.0000000   6.0000000   6.0000000   6.0000000

  Atom        31          32          33          34          35          36          37          38          39          40
 IAtWgt=          12          12          12          12          12          12          12          12          12          12
 AtmWgt=  12.0000000  12.0000000  12.0000000  12.0000000  12.0000000  12.0000000  12.0000000  12.0000000  12.0000000  12.0000000
 NucSpn=           0           0           0           0           0           0           0           0           0           0
 AtZEff=  -0.0000000  -0.0000000  -0.0000000  -0.0000000  -0.0000000  -0.0000000  -0.0000000  -0.0000000  -0.0000000  -0.0000000
 NQMom=    0.0000000   0.0000000   0.0000000   0.0000000   0.0000000   0.0000000   0.0000000   0.0000000   0.0000000   0.0000000
 NMagM=    0.0000000   0.0000000   0.0000000   0.0000000   0.0000000   0.0000000   0.0000000   0.0000000   0.0000000   0.0000000
 AtZNuc=   6.0000000   6.0000000   6.0000000   6.0000000   6.0000000   6.0000000   6.0000000   6.0000000   6.0000000   6.0000000

  Atom        41          42          43          44          45          46          47          48          49          50
 IAtWgt=          12          12          12          12          12          12          12          12          12          12
 AtmWgt=  12.0000000  12.0000000  12.0000000  12.0000000  12.0000000  12.0000000  12.0000000  12.0000000  12.0000000  12.0000000
 NucSpn=           0           0           0           0           0           0           0           0           0           0
 AtZEff=  -0.0000000  -0.0000000  -0.0000000  -0.0000000  -0.0000000  -0.0000000  -0.0000000  -0.0000000  -0.0000000  -0.0000000
 NQMom=    0.0000000   0.0000000   0.0000000   0.0000000   0.0000000   0.0000000   0.0000000   0.0000000   0.0000000   0.0000000
 NMagM=    0.0000000   0.0000000   0.0000000   0.0000000   0.0000000   0.0000000   0.0000000   0.0000000   0.0000000   0.0000000
 AtZNuc=   6.0000000   6.0000000   6.0000000   6.0000000   6.0000000   6.0000000   6.0000000   6.0000000   6.0000000   6.0000000

  Atom        51          52          53          54          55          56          57          58          59          60
 IAtWgt=          12          12          12          12          12          12          12          12          12          12
 AtmWgt=  12.0000000  12.0000000  12.0000000  12.0000000  12.0000000  12.0000000  12.0000000  12.0000000  12.0000000  12.0000000
 NucSpn=           0           0           0           0           0           0           0           0           0           0
 AtZEff=  -0.0000000  -0.0000000  -0.0000000  -0.0000000  -0.0000000  -0.0000000  -0.0000000  -0.0000000  -0.0000000  -0.0000000
 NQMom=    0.0000000   0.0000000   0.0000000   0.0000000   0.0000000   0.0000000   0.0000000   0.0000000   0.0000000   0.0000000
 NMagM=    0.0000000   0.0000000   0.0000000   0.0000000   0.0000000   0.0000000   0.0000000   0.0000000   0.0000000   0.0000000
 AtZNuc=   6.0000000   6.0000000   6.0000000   6.0000000   6.0000000   6.0000000   6.0000000   6.0000000   6.0000000   6.0000000

  Atom        61          62          63          64          65          66          67          68          69          70
 IAtWgt=          12          12          12          12          12          12          35          35          35          35
 AtmWgt=  12.0000000  12.0000000  12.0000000  12.0000000  12.0000000  12.0000000  34.9688527  34.9688527  34.9688527  34.9688527
 NucSpn=           0           0           0           0           0           0           3           3           3           3
 AtZEff=  -0.0000000  -0.0000000  -0.0000000  -0.0000000  -0.0000000  -0.0000000  -0.0000000  -0.0000000  -0.0000000  -0.0000000
 NQMom=    0.0000000   0.0000000   0.0000000   0.0000000   0.0000000   0.0000000  -8.1650000  -8.1650000  -8.1650000  -8.1650000
 NMagM=    0.0000000   0.0000000   0.0000000   0.0000000   0.0000000   0.0000000   0.8218740   0.8218740   0.8218740   0.8218740
 AtZNuc=   6.0000000   6.0000000   6.0000000   6.0000000   6.0000000   6.0000000  17.0000000  17.0000000  17.0000000  17.0000000

  Atom        71          72          73          74          75
 IAtWgt=          35          35          35          35          35
 AtmWgt=  34.9688527  34.9688527  34.9688527  34.9688527  34.9688527
 NucSpn=           3           3           3           3           3
 AtZEff=  -0.0000000  -0.0000000  -0.0000000  -0.0000000  -0.0000000
 NQMom=   -8.1650000  -8.1650000  -8.1650000  -8.1650000  -8.1650000
 NMagM=    0.8218740   0.8218740   0.8218740   0.8218740   0.8218740
 AtZNuc=  17.0000000  17.0000000  17.0000000  17.0000000  17.0000000
 Leave Link  101 at Fri Jul 15 04:19:13 2022, MaxMem=  1342177280 cpu:              12.9 elap:               0.3
 (Enter /home/mkliu/g16/l103.exe)

 GradGradGradGradGradGradGradGradGradGradGradGradGradGradGradGradGradGrad
 Berny optimization.
 Initialization pass.
                           ----------------------------
                           !    Initial Parameters    !
                           ! (Angstroms and Degrees)  !
 --------------------------                            --------------------------
 ! Name  Definition              Value          Derivative Info.                !
 --------------------------------------------------------------------------------
 ! R1    R(1,2)                  1.5799         estimate D2E/DX2                !
 ! R2    R(1,4)                  1.4862         estimate D2E/DX2                !
 ! R3    R(1,7)                  1.55           estimate D2E/DX2                !
 ! R4    R(1,67)                 1.7977         estimate D2E/DX2                !
 ! R5    R(2,3)                  1.5805         estimate D2E/DX2                !
 ! R6    R(2,10)                 1.5641         estimate D2E/DX2                !
 ! R7    R(2,68)                 1.7737         estimate D2E/DX2                !
 ! R8    R(3,5)                  1.4844         estimate D2E/DX2                !
 ! R9    R(3,12)                 1.4956         estimate D2E/DX2                !
 ! R10   R(3,69)                 1.775          estimate D2E/DX2                !
 ! R11   R(4,5)                  1.363          estimate D2E/DX2                !
 ! R12   R(4,6)                  1.3853         estimate D2E/DX2                !
 ! R13   R(5,15)                 1.3797         estimate D2E/DX2                !
 ! R14   R(6,8)                  1.419          estimate D2E/DX2                !
 ! R15   R(6,17)                 1.3945         estimate D2E/DX2                !
 ! R16   R(7,8)                  1.5345         estimate D2E/DX2                !
 ! R17   R(7,9)                  1.5139         estimate D2E/DX2                !
 ! R18   R(7,71)                 1.7913         estimate D2E/DX2                !
 ! R19   R(8,20)                 1.3662         estimate D2E/DX2                !
 ! R20   R(9,11)                 1.4102         estimate D2E/DX2                !
 ! R21   R(9,22)                 1.373          estimate D2E/DX2                !
 ! R22   R(10,11)                1.5107         estimate D2E/DX2                !
 ! R23   R(10,13)                1.507          estimate D2E/DX2                !
 ! R24   R(10,74)                1.7983         estimate D2E/DX2                !
 ! R25   R(11,25)                1.3753         estimate D2E/DX2                !
 ! R26   R(12,13)                1.3727         estimate D2E/DX2                !
 ! R27   R(12,14)                1.3969         estimate D2E/DX2                !
 ! R28   R(13,27)                1.3815         estimate D2E/DX2                !
 ! R29   R(14,16)                1.5221         estimate D2E/DX2                !
 ! R30   R(14,29)                1.4033         estimate D2E/DX2                !
 ! R31   R(15,16)                1.5135         estimate D2E/DX2                !
 ! R32   R(15,18)                1.4072         estimate D2E/DX2                !
 ! R33   R(16,32)                1.5004         estimate D2E/DX2                !
 ! R34   R(16,70)                1.7884         estimate D2E/DX2                !
 ! R35   R(17,18)                1.4167         estimate D2E/DX2                !
 ! R36   R(17,19)                1.4385         estimate D2E/DX2                !
 ! R37   R(18,33)                1.4186         estimate D2E/DX2                !
 ! R38   R(19,21)                1.4399         estimate D2E/DX2                !
 ! R39   R(19,35)                1.4096         estimate D2E/DX2                !
 ! R40   R(20,21)                1.4527         estimate D2E/DX2                !
 ! R41   R(20,23)                1.5033         estimate D2E/DX2                !
 ! R42   R(21,38)                1.4048         estimate D2E/DX2                !
 ! R43   R(22,23)                1.5223         estimate D2E/DX2                !
 ! R44   R(22,24)                1.4171         estimate D2E/DX2                !
 ! R45   R(23,40)                1.493          estimate D2E/DX2                !
 ! R46   R(23,72)                1.8097         estimate D2E/DX2                !
 ! R47   R(24,26)                1.3758         estimate D2E/DX2                !
 ! R48   R(24,41)                1.4276         estimate D2E/DX2                !
 ! R49   R(25,26)                1.4097         estimate D2E/DX2                !
 ! R50   R(25,28)                1.5172         estimate D2E/DX2                !
 ! R51   R(26,44)                1.4329         estimate D2E/DX2                !
 ! R52   R(27,28)                1.4992         estimate D2E/DX2                !
 ! R53   R(27,30)                1.3968         estimate D2E/DX2                !
 ! R54   R(28,45)                1.4947         estimate D2E/DX2                !
 ! R55   R(28,75)                1.8095         estimate D2E/DX2                !
 ! R56   R(29,30)                1.4171         estimate D2E/DX2                !
 ! R57   R(29,31)                1.5251         estimate D2E/DX2                !
 ! R58   R(30,47)                1.4721         estimate D2E/DX2                !
 ! R59   R(31,34)                1.508          estimate D2E/DX2                !
 ! R60   R(31,49)                1.503          estimate D2E/DX2                !
 ! R61   R(31,73)                1.82           estimate D2E/DX2                !
 ! R62   R(32,33)                1.4274         estimate D2E/DX2                !
 ! R63   R(32,34)                1.3542         estimate D2E/DX2                !
 ! R64   R(33,36)                1.3726         estimate D2E/DX2                !
 ! R65   R(34,51)                1.4299         estimate D2E/DX2                !
 ! R66   R(35,36)                1.4401         estimate D2E/DX2                !
 ! R67   R(35,37)                1.423          estimate D2E/DX2                !
 ! R68   R(36,52)                1.4272         estimate D2E/DX2                !
 ! R69   R(37,39)                1.3819         estimate D2E/DX2                !
 ! R70   R(37,53)                1.4394         estimate D2E/DX2                !
 ! R71   R(38,39)                1.4231         estimate D2E/DX2                !
 ! R72   R(38,42)                1.4569         estimate D2E/DX2                !
 ! R73   R(39,57)                1.4414         estimate D2E/DX2                !
 ! R74   R(40,41)                1.4219         estimate D2E/DX2                !
 ! R75   R(40,42)                1.3622         estimate D2E/DX2                !
 ! R76   R(41,43)                1.3946         estimate D2E/DX2                !
 ! R77   R(42,58)                1.44           estimate D2E/DX2                !
 ! R78   R(43,46)                1.4221         estimate D2E/DX2                !
 ! R79   R(43,59)                1.436          estimate D2E/DX2                !
 ! R80   R(44,45)                1.4081         estimate D2E/DX2                !
 ! R81   R(44,46)                1.3956         estimate D2E/DX2                !
 ! R82   R(45,48)                1.3787         estimate D2E/DX2                !
 ! R83   R(46,61)                1.4374         estimate D2E/DX2                !
 ! R84   R(47,48)                1.426          estimate D2E/DX2                !
 ! R85   R(47,50)                1.4286         estimate D2E/DX2                !
 ! R86   R(48,62)                1.4503         estimate D2E/DX2                !
 ! R87   R(49,50)                1.3783         estimate D2E/DX2                !
 ! R88   R(49,54)                1.418          estimate D2E/DX2                !
 ! R89   R(50,63)                1.45           estimate D2E/DX2                !
 ! R90   R(51,52)                1.3815         estimate D2E/DX2                !
 ! R91   R(51,54)                1.434          estimate D2E/DX2                !
 ! R92   R(52,53)                1.4352         estimate D2E/DX2                !
 ! R93   R(53,55)                1.38           estimate D2E/DX2                !
 ! R94   R(54,56)                1.3969         estimate D2E/DX2                !
 ! R95   R(55,56)                1.4306         estimate D2E/DX2                !
 ! R96   R(55,60)                1.4449         estimate D2E/DX2                !
 ! R97   R(56,64)                1.4285         estimate D2E/DX2                !
 ! R98   R(57,58)                1.4342         estimate D2E/DX2                !
 ! R99   R(57,60)                1.3824         estimate D2E/DX2                !
 ! R100  R(58,59)                1.3822         estimate D2E/DX2                !
 ! R101  R(59,65)                1.4363         estimate D2E/DX2                !
 ! R102  R(60,66)                1.4347         estimate D2E/DX2                !
 ! R103  R(61,62)                1.382          estimate D2E/DX2                !
 ! R104  R(61,65)                1.4392         estimate D2E/DX2                !
 ! R105  R(62,63)                1.4331         estimate D2E/DX2                !
 ! R106  R(63,64)                1.382          estimate D2E/DX2                !
 ! R107  R(64,66)                1.4411         estimate D2E/DX2                !
 ! R108  R(65,66)                1.3851         estimate D2E/DX2                !
 ! A1    A(2,1,4)              102.6169         estimate D2E/DX2                !
 ! A2    A(2,1,7)              120.9749         estimate D2E/DX2                !
 ! A3    A(2,1,67)             111.1882         estimate D2E/DX2                !
 ! A4    A(4,1,7)              102.1807         estimate D2E/DX2                !
 ! A5    A(4,1,67)             106.8473         estimate D2E/DX2                !
 ! A6    A(7,1,67)             111.2703         estimate D2E/DX2                !
 ! A7    A(1,2,3)              104.7332         estimate D2E/DX2                !
 ! A8    A(1,2,10)             115.8955         estimate D2E/DX2                !
 ! A9    A(1,2,68)             109.8023         estimate D2E/DX2                !
 ! A10   A(3,2,10)             103.5375         estimate D2E/DX2                !
 ! A11   A(3,2,68)             110.6885         estimate D2E/DX2                !
 ! A12   A(10,2,68)            111.7289         estimate D2E/DX2                !
 ! A13   A(2,3,5)              106.4642         estimate D2E/DX2                !
 ! A14   A(2,3,12)             106.3308         estimate D2E/DX2                !
 ! A15   A(2,3,69)             116.1784         estimate D2E/DX2                !
 ! A16   A(5,3,12)             100.9879         estimate D2E/DX2                !
 ! A17   A(5,3,69)             113.804          estimate D2E/DX2                !
 ! A18   A(12,3,69)            111.7283         estimate D2E/DX2                !
 ! A19   A(1,4,5)              115.3637         estimate D2E/DX2                !
 ! A20   A(1,4,6)              113.86           estimate D2E/DX2                !
 ! A21   A(5,4,6)              123.2646         estimate D2E/DX2                !
 ! A22   A(3,5,4)              109.26           estimate D2E/DX2                !
 ! A23   A(3,5,15)             123.4812         estimate D2E/DX2                !
 ! A24   A(4,5,15)             117.1805         estimate D2E/DX2                !
 ! A25   A(4,6,8)              108.7095         estimate D2E/DX2                !
 ! A26   A(4,6,17)             120.7648         estimate D2E/DX2                !
 ! A27   A(8,6,17)             123.566          estimate D2E/DX2                !
 ! A28   A(1,7,8)              105.2058         estimate D2E/DX2                !
 ! A29   A(1,7,9)              116.5697         estimate D2E/DX2                !
 ! A30   A(1,7,71)             113.2916         estimate D2E/DX2                !
 ! A31   A(8,7,9)              101.8487         estimate D2E/DX2                !
 ! A32   A(8,7,71)             112.7394         estimate D2E/DX2                !
 ! A33   A(9,7,71)             106.7414         estimate D2E/DX2                !
 ! A34   A(6,8,7)              108.815          estimate D2E/DX2                !
 ! A35   A(6,8,20)             118.8409         estimate D2E/DX2                !
 ! A36   A(7,8,20)             126.8797         estimate D2E/DX2                !
 ! A37   A(7,9,11)             123.4261         estimate D2E/DX2                !
 ! A38   A(7,9,22)             116.1762         estimate D2E/DX2                !
 ! A39   A(11,9,22)            119.3641         estimate D2E/DX2                !
 ! A40   A(2,10,11)            119.2021         estimate D2E/DX2                !
 ! A41   A(2,10,13)            106.3986         estimate D2E/DX2                !
 ! A42   A(2,10,74)            111.26           estimate D2E/DX2                !
 ! A43   A(11,10,13)           101.0292         estimate D2E/DX2                !
 ! A44   A(11,10,74)           107.886          estimate D2E/DX2                !
 ! A45   A(13,10,74)           110.4483         estimate D2E/DX2                !
 ! A46   A(9,11,10)            123.127          estimate D2E/DX2                !
 ! A47   A(9,11,25)            119.6543         estimate D2E/DX2                !
 ! A48   A(10,11,25)           115.4144         estimate D2E/DX2                !
 ! A49   A(3,12,13)            111.0915         estimate D2E/DX2                !
 ! A50   A(3,12,14)            125.7174         estimate D2E/DX2                !
 ! A51   A(13,12,14)           121.0154         estimate D2E/DX2                !
 ! A52   A(10,13,12)           111.5295         estimate D2E/DX2                !
 ! A53   A(10,13,27)           126.7112         estimate D2E/DX2                !
 ! A54   A(12,13,27)           120.1328         estimate D2E/DX2                !
 ! A55   A(12,14,16)           118.6575         estimate D2E/DX2                !
 ! A56   A(12,14,29)           118.555          estimate D2E/DX2                !
 ! A57   A(16,14,29)           121.383          estimate D2E/DX2                !
 ! A58   A(5,15,16)            122.2043         estimate D2E/DX2                !
 ! A59   A(5,15,18)            120.0466         estimate D2E/DX2                !
 ! A60   A(16,15,18)           110.0659         estimate D2E/DX2                !
 ! A61   A(14,16,15)           103.5712         estimate D2E/DX2                !
 ! A62   A(14,16,32)           109.5615         estimate D2E/DX2                !
 ! A63   A(14,16,70)           111.0971         estimate D2E/DX2                !
 ! A64   A(15,16,32)           101.3397         estimate D2E/DX2                !
 ! A65   A(15,16,70)           116.4586         estimate D2E/DX2                !
 ! A66   A(32,16,70)           113.9251         estimate D2E/DX2                !
 ! A67   A(6,17,18)            115.1364         estimate D2E/DX2                !
 ! A68   A(6,17,19)            117.7824         estimate D2E/DX2                !
 ! A69   A(18,17,19)           121.0849         estimate D2E/DX2                !
 ! A70   A(15,18,17)           121.9999         estimate D2E/DX2                !
 ! A71   A(15,18,33)           109.2701         estimate D2E/DX2                !
 ! A72   A(17,18,33)           120.4025         estimate D2E/DX2                !
 ! A73   A(17,19,21)           119.1946         estimate D2E/DX2                !
 ! A74   A(17,19,35)           116.1748         estimate D2E/DX2                !
 ! A75   A(21,19,35)           119.9289         estimate D2E/DX2                !
 ! A76   A(8,20,21)            120.7135         estimate D2E/DX2                !
 ! A77   A(8,20,23)            116.5842         estimate D2E/DX2                !
 ! A78   A(21,20,23)           120.392          estimate D2E/DX2                !
 ! A79   A(19,21,20)           119.1846         estimate D2E/DX2                !
 ! A80   A(19,21,38)           117.5867         estimate D2E/DX2                !
 ! A81   A(20,21,38)           118.9839         estimate D2E/DX2                !
 ! A82   A(9,22,23)            125.5658         estimate D2E/DX2                !
 ! A83   A(9,22,24)            121.007          estimate D2E/DX2                !
 ! A84   A(23,22,24)           108.2231         estimate D2E/DX2                !
 ! A85   A(20,23,22)           106.0            estimate D2E/DX2                !
 ! A86   A(20,23,40)           114.0276         estimate D2E/DX2                !
 ! A87   A(20,23,72)           108.9875         estimate D2E/DX2                !
 ! A88   A(22,23,40)           101.89           estimate D2E/DX2                !
 ! A89   A(22,23,72)           114.4447         estimate D2E/DX2                !
 ! A90   A(40,23,72)           111.3607         estimate D2E/DX2                !
 ! A91   A(22,24,26)           119.2101         estimate D2E/DX2                !
 ! A92   A(22,24,41)           110.5749         estimate D2E/DX2                !
 ! A93   A(26,24,41)           120.7522         estimate D2E/DX2                !
 ! A94   A(11,25,26)           120.7847         estimate D2E/DX2                !
 ! A95   A(11,25,28)           125.4868         estimate D2E/DX2                !
 ! A96   A(26,25,28)           108.3028         estimate D2E/DX2                !
 ! A97   A(24,26,25)           119.6187         estimate D2E/DX2                !
 ! A98   A(24,26,44)           120.3223         estimate D2E/DX2                !
 ! A99   A(25,26,44)           110.3651         estimate D2E/DX2                !
 ! A100  A(13,27,28)           115.93           estimate D2E/DX2                !
 ! A101  A(13,27,30)           120.525          estimate D2E/DX2                !
 ! A102  A(28,27,30)           122.0693         estimate D2E/DX2                !
 ! A103  A(25,28,27)           105.2983         estimate D2E/DX2                !
 ! A104  A(25,28,45)           102.1699         estimate D2E/DX2                !
 ! A105  A(25,28,75)           115.4746         estimate D2E/DX2                !
 ! A106  A(27,28,45)           112.8993         estimate D2E/DX2                !
 ! A107  A(27,28,75)           111.204          estimate D2E/DX2                !
 ! A108  A(45,28,75)           109.5288         estimate D2E/DX2                !
 ! A109  A(14,29,30)           119.8745         estimate D2E/DX2                !
 ! A110  A(14,29,31)           119.2885         estimate D2E/DX2                !
 ! A111  A(30,29,31)           119.7739         estimate D2E/DX2                !
 ! A112  A(27,30,29)           118.9896         estimate D2E/DX2                !
 ! A113  A(27,30,47)           118.9255         estimate D2E/DX2                !
 ! A114  A(29,30,47)           120.1295         estimate D2E/DX2                !
 ! A115  A(29,31,34)           109.9432         estimate D2E/DX2                !
 ! A116  A(29,31,49)           112.945          estimate D2E/DX2                !
 ! A117  A(29,31,73)           107.0735         estimate D2E/DX2                !
 ! A118  A(34,31,49)           100.5497         estimate D2E/DX2                !
 ! A119  A(34,31,73)           112.8545         estimate D2E/DX2                !
 ! A120  A(49,31,73)           113.4929         estimate D2E/DX2                !
 ! A121  A(16,32,33)           110.5088         estimate D2E/DX2                !
 ! A122  A(16,32,34)           122.0857         estimate D2E/DX2                !
 ! A123  A(33,32,34)           118.2211         estimate D2E/DX2                !
 ! A124  A(18,33,32)           107.6644         estimate D2E/DX2                !
 ! A125  A(18,33,36)           118.7517         estimate D2E/DX2                !
 ! A126  A(32,33,36)           122.6674         estimate D2E/DX2                !
 ! A127  A(31,34,32)           121.7335         estimate D2E/DX2                !
 ! A128  A(31,34,51)           111.3105         estimate D2E/DX2                !
 ! A129  A(32,34,51)           119.511          estimate D2E/DX2                !
 ! A130  A(19,35,36)           120.996          estimate D2E/DX2                !
 ! A131  A(19,35,37)           121.0256         estimate D2E/DX2                !
 ! A132  A(36,35,37)           107.5579         estimate D2E/DX2                !
 ! A133  A(33,36,35)           121.1251         estimate D2E/DX2                !
 ! A134  A(33,36,52)           118.4139         estimate D2E/DX2                !
 ! A135  A(35,36,52)           108.9178         estimate D2E/DX2                !
 ! A136  A(35,37,39)           119.0667         estimate D2E/DX2                !
 ! A137  A(35,37,53)           107.5358         estimate D2E/DX2                !
 ! A138  A(39,37,53)           121.6003         estimate D2E/DX2                !
 ! A139  A(21,38,39)           121.6666         estimate D2E/DX2                !
 ! A140  A(21,38,42)           121.1269         estimate D2E/DX2                !
 ! A141  A(39,38,42)           106.8385         estimate D2E/DX2                !
 ! A142  A(37,39,38)           120.4393         estimate D2E/DX2                !
 ! A143  A(37,39,57)           118.9441         estimate D2E/DX2                !
 ! A144  A(38,39,57)           109.5051         estimate D2E/DX2                !
 ! A145  A(23,40,41)           110.8269         estimate D2E/DX2                !
 ! A146  A(23,40,42)           121.8579         estimate D2E/DX2                !
 ! A147  A(41,40,42)           119.0358         estimate D2E/DX2                !
 ! A148  A(24,41,40)           106.9402         estimate D2E/DX2                !
 ! A149  A(24,41,43)           119.0245         estimate D2E/DX2                !
 ! A150  A(40,41,43)           121.5122         estimate D2E/DX2                !
 ! A151  A(38,42,40)           120.0832         estimate D2E/DX2                !
 ! A152  A(38,42,58)           107.7422         estimate D2E/DX2                !
 ! A153  A(40,42,58)           120.2648         estimate D2E/DX2                !
 ! A154  A(41,43,46)           120.5953         estimate D2E/DX2                !
 ! A155  A(41,43,59)           119.283          estimate D2E/DX2                !
 ! A156  A(46,43,59)           108.1665         estimate D2E/DX2                !
 ! A157  A(26,44,45)           107.3114         estimate D2E/DX2                !
 ! A158  A(26,44,46)           119.3206         estimate D2E/DX2                !
 ! A159  A(45,44,46)           121.9708         estimate D2E/DX2                !
 ! A160  A(28,45,44)           110.7316         estimate D2E/DX2                !
 ! A161  A(28,45,48)           120.8721         estimate D2E/DX2                !
 ! A162  A(44,45,48)           119.8998         estimate D2E/DX2                !
 ! A163  A(43,46,44)           119.9733         estimate D2E/DX2                !
 ! A164  A(43,46,61)           108.9667         estimate D2E/DX2                !
 ! A165  A(44,46,61)           118.3356         estimate D2E/DX2                !
 ! A166  A(30,47,48)           118.3747         estimate D2E/DX2                !
 ! A167  A(30,47,50)           118.4878         estimate D2E/DX2                !
 ! A168  A(48,47,50)           108.9106         estimate D2E/DX2                !
 ! A169  A(45,48,47)           121.5782         estimate D2E/DX2                !
 ! A170  A(45,48,62)           119.1371         estimate D2E/DX2                !
 ! A171  A(47,48,62)           107.7884         estimate D2E/DX2                !
 ! A172  A(31,49,50)           121.2375         estimate D2E/DX2                !
 ! A173  A(31,49,54)           111.8522         estimate D2E/DX2                !
 ! A174  A(50,49,54)           118.6244         estimate D2E/DX2                !
 ! A175  A(47,50,49)           121.5721         estimate D2E/DX2                !
 ! A176  A(47,50,63)           107.302          estimate D2E/DX2                !
 ! A177  A(49,50,63)           120.2891         estimate D2E/DX2                !
 ! A178  A(34,51,52)           121.6268         estimate D2E/DX2                !
 ! A179  A(34,51,54)           107.9413         estimate D2E/DX2                !
 ! A180  A(52,51,54)           119.3434         estimate D2E/DX2                !
 ! A181  A(36,52,51)           118.3746         estimate D2E/DX2                !
 ! A182  A(36,52,53)           106.6004         estimate D2E/DX2                !
 ! A183  A(51,52,53)           121.2339         estimate D2E/DX2                !
 ! A184  A(37,53,52)           108.8857         estimate D2E/DX2                !
 ! A185  A(37,53,55)           119.1371         estimate D2E/DX2                !
 ! A186  A(52,53,55)           119.3755         estimate D2E/DX2                !
 ! A187  A(49,54,51)           108.0791         estimate D2E/DX2                !
 ! A188  A(49,54,56)           121.7677         estimate D2E/DX2                !
 ! A189  A(51,54,56)           119.3235         estimate D2E/DX2                !
 ! A190  A(53,55,56)           119.8001         estimate D2E/DX2                !
 ! A191  A(53,55,60)           119.5582         estimate D2E/DX2                !
 ! A192  A(56,55,60)           108.8986         estimate D2E/DX2                !
 ! A193  A(54,56,55)           120.6487         estimate D2E/DX2                !
 ! A194  A(54,56,64)           119.478          estimate D2E/DX2                !
 ! A195  A(55,56,64)           107.558          estimate D2E/DX2                !
 ! A196  A(39,57,58)           107.1151         estimate D2E/DX2                !
 ! A197  A(39,57,60)           119.6165         estimate D2E/DX2                !
 ! A198  A(58,57,60)           120.3365         estimate D2E/DX2                !
 ! A199  A(42,58,57)           108.3836         estimate D2E/DX2                !
 ! A200  A(42,58,59)           121.0172         estimate D2E/DX2                !
 ! A201  A(57,58,59)           119.0116         estimate D2E/DX2                !
 ! A202  A(43,59,58)           118.6404         estimate D2E/DX2                !
 ! A203  A(43,59,65)           107.3696         estimate D2E/DX2                !
 ! A204  A(58,59,65)           120.9758         estimate D2E/DX2                !
 ! A205  A(55,60,57)           120.8313         estimate D2E/DX2                !
 ! A206  A(55,60,66)           106.9121         estimate D2E/DX2                !
 ! A207  A(57,60,66)           120.3895         estimate D2E/DX2                !
 ! A208  A(46,61,62)           119.9463         estimate D2E/DX2                !
 ! A209  A(46,61,65)           106.7235         estimate D2E/DX2                !
 ! A210  A(62,61,65)           120.8689         estimate D2E/DX2                !
 ! A211  A(48,62,61)           120.4809         estimate D2E/DX2                !
 ! A212  A(48,62,63)           107.5122         estimate D2E/DX2                !
 ! A213  A(61,62,63)           119.9571         estimate D2E/DX2                !
 ! A214  A(50,63,62)           108.2113         estimate D2E/DX2                !
 ! A215  A(50,63,64)           120.4083         estimate D2E/DX2                !
 ! A216  A(62,63,64)           119.3181         estimate D2E/DX2                !
 ! A217  A(56,64,63)           119.2141         estimate D2E/DX2                !
 ! A218  A(56,64,66)           108.3195         estimate D2E/DX2                !
 ! A219  A(63,64,66)           120.9449         estimate D2E/DX2                !
 ! A220  A(59,65,61)           108.7294         estimate D2E/DX2                !
 ! A221  A(59,65,66)           119.6114         estimate D2E/DX2                !
 ! A222  A(61,65,66)           119.2304         estimate D2E/DX2                !
 ! A223  A(60,66,64)           108.1996         estimate D2E/DX2                !
 ! A224  A(60,66,65)           119.5744         estimate D2E/DX2                !
 ! A225  A(64,66,65)           119.6118         estimate D2E/DX2                !
 ! D1    D(4,1,2,3)             10.2081         estimate D2E/DX2                !
 ! D2    D(4,1,2,10)          -103.1651         estimate D2E/DX2                !
 ! D3    D(4,1,2,68)           129.0858         estimate D2E/DX2                !
 ! D4    D(7,1,2,3)            122.9474         estimate D2E/DX2                !
 ! D5    D(7,1,2,10)             9.5743         estimate D2E/DX2                !
 ! D6    D(7,1,2,68)          -118.1749         estimate D2E/DX2                !
 ! D7    D(67,1,2,3)          -103.7015         estimate D2E/DX2                !
 ! D8    D(67,1,2,10)          142.9253         estimate D2E/DX2                !
 ! D9    D(67,1,2,68)           15.1762         estimate D2E/DX2                !
 ! D10   D(2,1,4,5)            -13.3128         estimate D2E/DX2                !
 ! D11   D(2,1,4,6)            137.5459         estimate D2E/DX2                !
 ! D12   D(7,1,4,5)           -139.3181         estimate D2E/DX2                !
 ! D13   D(7,1,4,6)             11.5406         estimate D2E/DX2                !
 ! D14   D(67,1,4,5)           103.7372         estimate D2E/DX2                !
 ! D15   D(67,1,4,6)          -105.4041         estimate D2E/DX2                !
 ! D16   D(2,1,7,8)           -122.3823         estimate D2E/DX2                !
 ! D17   D(2,1,7,9)            -10.4303         estimate D2E/DX2                !
 ! D18   D(2,1,7,71)           114.0368         estimate D2E/DX2                !
 ! D19   D(4,1,7,8)             -9.4154         estimate D2E/DX2                !
 ! D20   D(4,1,7,9)            102.5366         estimate D2E/DX2                !
 ! D21   D(4,1,7,71)          -132.9963         estimate D2E/DX2                !
 ! D22   D(67,1,7,8)           104.3004         estimate D2E/DX2                !
 ! D23   D(67,1,7,9)          -143.7476         estimate D2E/DX2                !
 ! D24   D(67,1,7,71)          -19.2805         estimate D2E/DX2                !
 ! D25   D(1,2,3,5)             -5.0488         estimate D2E/DX2                !
 ! D26   D(1,2,3,12)          -112.1284         estimate D2E/DX2                !
 ! D27   D(1,2,3,69)           122.8488         estimate D2E/DX2                !
 ! D28   D(10,2,3,5)           116.8079         estimate D2E/DX2                !
 ! D29   D(10,2,3,12)            9.7284         estimate D2E/DX2                !
 ! D30   D(10,2,3,69)         -115.2944         estimate D2E/DX2                !
 ! D31   D(68,2,3,5)          -123.3265         estimate D2E/DX2                !
 ! D32   D(68,2,3,12)          129.5939         estimate D2E/DX2                !
 ! D33   D(68,2,3,69)            4.5712         estimate D2E/DX2                !
 ! D34   D(1,2,10,11)           -4.8813         estimate D2E/DX2                !
 ! D35   D(1,2,10,13)          108.2565         estimate D2E/DX2                !
 ! D36   D(1,2,10,74)         -131.3941         estimate D2E/DX2                !
 ! D37   D(3,2,10,11)         -118.94           estimate D2E/DX2                !
 ! D38   D(3,2,10,13)           -5.8022         estimate D2E/DX2                !
 ! D39   D(3,2,10,74)          114.5472         estimate D2E/DX2                !
 ! D40   D(68,2,10,11)         121.9078         estimate D2E/DX2                !
 ! D41   D(68,2,10,13)        -124.9544         estimate D2E/DX2                !
 ! D42   D(68,2,10,74)          -4.605          estimate D2E/DX2                !
 ! D43   D(2,3,5,4)             -2.761          estimate D2E/DX2                !
 ! D44   D(2,3,5,15)          -146.979          estimate D2E/DX2                !
 ! D45   D(12,3,5,4)           108.0975         estimate D2E/DX2                !
 ! D46   D(12,3,5,15)          -36.1205         estimate D2E/DX2                !
 ! D47   D(69,3,5,4)          -132.0457         estimate D2E/DX2                !
 ! D48   D(69,3,5,15)           83.7363         estimate D2E/DX2                !
 ! D49   D(2,3,12,13)          -10.7871         estimate D2E/DX2                !
 ! D50   D(2,3,12,14)          152.4566         estimate D2E/DX2                !
 ! D51   D(5,3,12,13)         -121.7484         estimate D2E/DX2                !
 ! D52   D(5,3,12,14)           41.4953         estimate D2E/DX2                !
 ! D53   D(69,3,12,13)         116.9214         estimate D2E/DX2                !
 ! D54   D(69,3,12,14)         -79.8349         estimate D2E/DX2                !
 ! D55   D(1,4,5,3)             10.584          estimate D2E/DX2                !
 ! D56   D(1,4,5,15)           157.339          estimate D2E/DX2                !
 ! D57   D(6,4,5,3)           -137.2334         estimate D2E/DX2                !
 ! D58   D(6,4,5,15)             9.5215         estimate D2E/DX2                !
 ! D59   D(1,4,6,8)             -8.8226         estimate D2E/DX2                !
 ! D60   D(1,4,6,17)          -160.5797         estimate D2E/DX2                !
 ! D61   D(5,4,6,8)            139.4247         estimate D2E/DX2                !
 ! D62   D(5,4,6,17)           -12.3323         estimate D2E/DX2                !
 ! D63   D(3,5,15,16)           -2.7832         estimate D2E/DX2                !
 ! D64   D(3,5,15,18)          143.5993         estimate D2E/DX2                !
 ! D65   D(4,5,15,16)         -144.4307         estimate D2E/DX2                !
 ! D66   D(4,5,15,18)            1.9519         estimate D2E/DX2                !
 ! D67   D(4,6,8,7)              1.8504         estimate D2E/DX2                !
 ! D68   D(4,6,8,20)          -153.8523         estimate D2E/DX2                !
 ! D69   D(17,6,8,7)           152.6417         estimate D2E/DX2                !
 ! D70   D(17,6,8,20)           -3.061          estimate D2E/DX2                !
 ! D71   D(4,6,17,18)            3.0506         estimate D2E/DX2                !
 ! D72   D(4,6,17,19)          156.1547         estimate D2E/DX2                !
 ! D73   D(8,6,17,18)         -144.4085         estimate D2E/DX2                !
 ! D74   D(8,6,17,19)            8.6956         estimate D2E/DX2                !
 ! D75   D(1,7,8,6)              5.1279         estimate D2E/DX2                !
 ! D76   D(1,7,8,20)           158.3456         estimate D2E/DX2                !
 ! D77   D(9,7,8,6)           -116.92           estimate D2E/DX2                !
 ! D78   D(9,7,8,20)            36.2977         estimate D2E/DX2                !
 ! D79   D(71,7,8,6)           129.0598         estimate D2E/DX2                !
 ! D80   D(71,7,8,20)          -77.7225         estimate D2E/DX2                !
 ! D81   D(1,7,9,11)             6.7699         estimate D2E/DX2                !
 ! D82   D(1,7,9,22)          -161.5004         estimate D2E/DX2                !
 ! D83   D(8,7,9,11)           120.6335         estimate D2E/DX2                !
 ! D84   D(8,7,9,22)           -47.6368         estimate D2E/DX2                !
 ! D85   D(71,7,9,11)         -120.9716         estimate D2E/DX2                !
 ! D86   D(71,7,9,22)           70.758          estimate D2E/DX2                !
 ! D87   D(6,8,20,21)           -4.7195         estimate D2E/DX2                !
 ! D88   D(6,8,20,23)          158.0862         estimate D2E/DX2                !
 ! D89   D(7,8,20,21)         -155.5812         estimate D2E/DX2                !
 ! D90   D(7,8,20,23)            7.2245         estimate D2E/DX2                !
 ! D91   D(7,9,11,10)           -2.3575         estimate D2E/DX2                !
 ! D92   D(7,9,11,25)         -166.348          estimate D2E/DX2                !
 ! D93   D(22,9,11,10)         165.5588         estimate D2E/DX2                !
 ! D94   D(22,9,11,25)           1.5683         estimate D2E/DX2                !
 ! D95   D(7,9,22,23)           20.9868         estimate D2E/DX2                !
 ! D96   D(7,9,22,24)          172.422          estimate D2E/DX2                !
 ! D97   D(11,9,22,23)        -147.7872         estimate D2E/DX2                !
 ! D98   D(11,9,22,24)           3.6481         estimate D2E/DX2                !
 ! D99   D(2,10,11,9)            1.3921         estimate D2E/DX2                !
 ! D100  D(2,10,11,25)         166.0041         estimate D2E/DX2                !
 ! D101  D(13,10,11,9)        -114.6129         estimate D2E/DX2                !
 ! D102  D(13,10,11,25)         49.9991         estimate D2E/DX2                !
 ! D103  D(74,10,11,9)         129.4799         estimate D2E/DX2                !
 ! D104  D(74,10,11,25)        -65.908          estimate D2E/DX2                !
 ! D105  D(2,10,13,12)          -0.4996         estimate D2E/DX2                !
 ! D106  D(2,10,13,27)        -165.8188         estimate D2E/DX2                !
 ! D107  D(11,10,13,12)        124.6357         estimate D2E/DX2                !
 ! D108  D(11,10,13,27)        -40.6835         estimate D2E/DX2                !
 ! D109  D(74,10,13,12)       -121.3717         estimate D2E/DX2                !
 ! D110  D(74,10,13,27)         73.3092         estimate D2E/DX2                !
 ! D111  D(9,11,25,26)          -5.9561         estimate D2E/DX2                !
 ! D112  D(9,11,25,28)         144.9329         estimate D2E/DX2                !
 ! D113  D(10,11,25,26)       -171.1401         estimate D2E/DX2                !
 ! D114  D(10,11,25,28)        -20.2511         estimate D2E/DX2                !
 ! D115  D(3,12,13,10)           7.216          estimate D2E/DX2                !
 ! D116  D(3,12,13,27)         173.6295         estimate D2E/DX2                !
 ! D117  D(14,12,13,10)       -156.9338         estimate D2E/DX2                !
 ! D118  D(14,12,13,27)          9.4797         estimate D2E/DX2                !
 ! D119  D(3,12,14,16)          -6.6663         estimate D2E/DX2                !
 ! D120  D(3,12,14,29)        -173.3354         estimate D2E/DX2                !
 ! D121  D(13,12,14,16)        155.0416         estimate D2E/DX2                !
 ! D122  D(13,12,14,29)        -11.6275         estimate D2E/DX2                !
 ! D123  D(10,13,27,28)         -4.4183         estimate D2E/DX2                !
 ! D124  D(10,13,27,30)        162.0049         estimate D2E/DX2                !
 ! D125  D(12,13,27,28)       -168.6            estimate D2E/DX2                !
 ! D126  D(12,13,27,30)         -2.1768         estimate D2E/DX2                !
 ! D127  D(12,14,16,15)        -33.6826         estimate D2E/DX2                !
 ! D128  D(12,14,16,32)       -141.1665         estimate D2E/DX2                !
 ! D129  D(12,14,16,70)         92.0787         estimate D2E/DX2                !
 ! D130  D(29,14,16,15)        132.5941         estimate D2E/DX2                !
 ! D131  D(29,14,16,32)         25.1102         estimate D2E/DX2                !
 ! D132  D(29,14,16,70)       -101.6446         estimate D2E/DX2                !
 ! D133  D(12,14,29,30)          6.6222         estimate D2E/DX2                !
 ! D134  D(12,14,29,31)        174.8085         estimate D2E/DX2                !
 ! D135  D(16,14,29,30)       -159.6682         estimate D2E/DX2                !
 ! D136  D(16,14,29,31)          8.5182         estimate D2E/DX2                !
 ! D137  D(5,15,16,14)          39.1151         estimate D2E/DX2                !
 ! D138  D(5,15,16,32)         152.6747         estimate D2E/DX2                !
 ! D139  D(5,15,16,70)         -83.1439         estimate D2E/DX2                !
 ! D140  D(18,15,16,14)       -110.2066         estimate D2E/DX2                !
 ! D141  D(18,15,16,32)          3.353          estimate D2E/DX2                !
 ! D142  D(18,15,16,70)        127.5344         estimate D2E/DX2                !
 ! D143  D(5,15,18,17)         -10.9369         estimate D2E/DX2                !
 ! D144  D(5,15,18,33)        -159.2166         estimate D2E/DX2                !
 ! D145  D(16,15,18,17)        139.1462         estimate D2E/DX2                !
 ! D146  D(16,15,18,33)         -9.1335         estimate D2E/DX2                !
 ! D147  D(14,16,32,33)        112.5245         estimate D2E/DX2                !
 ! D148  D(14,16,32,34)        -33.6166         estimate D2E/DX2                !
 ! D149  D(15,16,32,33)          3.5442         estimate D2E/DX2                !
 ! D150  D(15,16,32,34)       -142.5969         estimate D2E/DX2                !
 ! D151  D(70,16,32,33)       -122.3373         estimate D2E/DX2                !
 ! D152  D(70,16,32,34)         91.5216         estimate D2E/DX2                !
 ! D153  D(6,17,18,15)           8.1313         estimate D2E/DX2                !
 ! D154  D(6,17,18,33)         153.0006         estimate D2E/DX2                !
 ! D155  D(19,17,18,15)       -144.0075         estimate D2E/DX2                !
 ! D156  D(19,17,18,33)          0.8617         estimate D2E/DX2                !
 ! D157  D(6,17,19,21)          -6.5197         estimate D2E/DX2                !
 ! D158  D(6,17,19,35)        -162.2291         estimate D2E/DX2                !
 ! D159  D(18,17,19,21)        144.9125         estimate D2E/DX2                !
 ! D160  D(18,17,19,35)        -10.7969         estimate D2E/DX2                !
 ! D161  D(15,18,33,32)         11.2213         estimate D2E/DX2                !
 ! D162  D(15,18,33,36)        156.3917         estimate D2E/DX2                !
 ! D163  D(17,18,33,32)       -137.6495         estimate D2E/DX2                !
 ! D164  D(17,18,33,36)          7.5209         estimate D2E/DX2                !
 ! D165  D(17,19,21,20)         -0.6973         estimate D2E/DX2                !
 ! D166  D(17,19,21,38)       -157.339          estimate D2E/DX2                !
 ! D167  D(35,19,21,20)        154.0895         estimate D2E/DX2                !
 ! D168  D(35,19,21,38)         -2.5522         estimate D2E/DX2                !
 ! D169  D(17,19,35,36)         12.7498         estimate D2E/DX2                !
 ! D170  D(17,19,35,37)        153.2851         estimate D2E/DX2                !
 ! D171  D(21,19,35,36)       -142.7708         estimate D2E/DX2                !
 ! D172  D(21,19,35,37)         -2.2355         estimate D2E/DX2                !
 ! D173  D(8,20,21,19)           6.4987         estimate D2E/DX2                !
 ! D174  D(8,20,21,38)         162.8132         estimate D2E/DX2                !
 ! D175  D(23,20,21,19)       -155.6544         estimate D2E/DX2                !
 ! D176  D(23,20,21,38)          0.6601         estimate D2E/DX2                !
 ! D177  D(8,20,23,22)         -37.1675         estimate D2E/DX2                !
 ! D178  D(8,20,23,40)        -148.4216         estimate D2E/DX2                !
 ! D179  D(8,20,23,72)          86.4692         estimate D2E/DX2                !
 ! D180  D(21,20,23,22)        125.6968         estimate D2E/DX2                !
 ! D181  D(21,20,23,40)         14.4427         estimate D2E/DX2                !
 ! D182  D(21,20,23,72)       -110.6664         estimate D2E/DX2                !
 ! D183  D(19,21,38,39)          5.7196         estimate D2E/DX2                !
 ! D184  D(19,21,38,42)        146.0796         estimate D2E/DX2                !
 ! D185  D(20,21,38,39)       -150.9702         estimate D2E/DX2                !
 ! D186  D(20,21,38,42)        -10.6103         estimate D2E/DX2                !
 ! D187  D(9,22,23,20)          24.6358         estimate D2E/DX2                !
 ! D188  D(9,22,23,40)         144.1901         estimate D2E/DX2                !
 ! D189  D(9,22,23,72)         -95.5062         estimate D2E/DX2                !
 ! D190  D(24,22,23,20)       -129.8036         estimate D2E/DX2                !
 ! D191  D(24,22,23,40)        -10.2493         estimate D2E/DX2                !
 ! D192  D(24,22,23,72)        110.0544         estimate D2E/DX2                !
 ! D193  D(9,22,24,26)          -4.4843         estimate D2E/DX2                !
 ! D194  D(9,22,24,41)        -151.164          estimate D2E/DX2                !
 ! D195  D(23,22,24,26)        151.343          estimate D2E/DX2                !
 ! D196  D(23,22,24,41)          4.6633         estimate D2E/DX2                !
 ! D197  D(20,23,40,41)        126.39           estimate D2E/DX2                !
 ! D198  D(20,23,40,42)        -21.5808         estimate D2E/DX2                !
 ! D199  D(22,23,40,41)         12.6699         estimate D2E/DX2                !
 ! D200  D(22,23,40,42)       -135.3009         estimate D2E/DX2                !
 ! D201  D(72,23,40,41)       -109.7709         estimate D2E/DX2                !
 ! D202  D(72,23,40,42)        102.2583         estimate D2E/DX2                !
 ! D203  D(22,24,26,25)          0.1098         estimate D2E/DX2                !
 ! D204  D(22,24,26,44)       -142.6643         estimate D2E/DX2                !
 ! D205  D(41,24,26,25)        143.3525         estimate D2E/DX2                !
 ! D206  D(41,24,26,44)          0.5785         estimate D2E/DX2                !
 ! D207  D(22,24,41,40)          3.4234         estimate D2E/DX2                !
 ! D208  D(22,24,41,43)        145.9721         estimate D2E/DX2                !
 ! D209  D(26,24,41,40)       -142.6648         estimate D2E/DX2                !
 ! D210  D(26,24,41,43)         -0.1161         estimate D2E/DX2                !
 ! D211  D(11,25,26,24)          5.106          estimate D2E/DX2                !
 ! D212  D(11,25,26,44)        151.2562         estimate D2E/DX2                !
 ! D213  D(28,25,26,24)       -150.2334         estimate D2E/DX2                !
 ! D214  D(28,25,26,44)         -4.0832         estimate D2E/DX2                !
 ! D215  D(11,25,28,27)        -26.9517         estimate D2E/DX2                !
 ! D216  D(11,25,28,45)       -145.0946         estimate D2E/DX2                !
 ! D217  D(11,25,28,75)         96.1194         estimate D2E/DX2                !
 ! D218  D(26,25,28,27)        126.9301         estimate D2E/DX2                !
 ! D219  D(26,25,28,45)          8.7873         estimate D2E/DX2                !
 ! D220  D(26,25,28,75)       -109.9987         estimate D2E/DX2                !
 ! D221  D(24,26,44,45)        143.0419         estimate D2E/DX2                !
 ! D222  D(24,26,44,46)         -1.1669         estimate D2E/DX2                !
 ! D223  D(25,26,44,45)         -2.8347         estimate D2E/DX2                !
 ! D224  D(25,26,44,46)       -147.0435         estimate D2E/DX2                !
 ! D225  D(13,27,28,25)         37.7273         estimate D2E/DX2                !
 ! D226  D(13,27,28,45)        148.3857         estimate D2E/DX2                !
 ! D227  D(13,27,28,75)        -88.0342         estimate D2E/DX2                !
 ! D228  D(30,27,28,25)       -128.4672         estimate D2E/DX2                !
 ! D229  D(30,27,28,45)        -17.8087         estimate D2E/DX2                !
 ! D230  D(30,27,28,75)        105.7714         estimate D2E/DX2                !
 ! D231  D(13,27,30,29)         -2.6481         estimate D2E/DX2                !
 ! D232  D(13,27,30,47)       -166.767          estimate D2E/DX2                !
 ! D233  D(28,27,30,29)        162.9258         estimate D2E/DX2                !
 ! D234  D(28,27,30,47)         -1.1932         estimate D2E/DX2                !
 ! D235  D(25,28,45,44)        -10.7902         estimate D2E/DX2                !
 ! D236  D(25,28,45,48)        137.1242         estimate D2E/DX2                !
 ! D237  D(27,28,45,44)       -123.3779         estimate D2E/DX2                !
 ! D238  D(27,28,45,48)         24.5366         estimate D2E/DX2                !
 ! D239  D(75,28,45,44)        112.1214         estimate D2E/DX2                !
 ! D240  D(75,28,45,48)        -99.9641         estimate D2E/DX2                !
 ! D241  D(14,29,30,27)          0.3288         estimate D2E/DX2                !
 ! D242  D(14,29,30,47)        164.2525         estimate D2E/DX2                !
 ! D243  D(31,29,30,27)       -167.7999         estimate D2E/DX2                !
 ! D244  D(31,29,30,47)         -3.8762         estimate D2E/DX2                !
 ! D245  D(14,29,31,34)        -34.6061         estimate D2E/DX2                !
 ! D246  D(14,29,31,49)       -146.0206         estimate D2E/DX2                !
 ! D247  D(14,29,31,73)         88.3271         estimate D2E/DX2                !
 ! D248  D(30,29,31,34)        133.5923         estimate D2E/DX2                !
 ! D249  D(30,29,31,49)         22.1778         estimate D2E/DX2                !
 ! D250  D(30,29,31,73)       -103.4745         estimate D2E/DX2                !
 ! D251  D(27,30,47,48)         15.3483         estimate D2E/DX2                !
 ! D252  D(27,30,47,50)        150.763          estimate D2E/DX2                !
 ! D253  D(29,30,47,48)       -148.5857         estimate D2E/DX2                !
 ! D254  D(29,30,47,50)        -13.1709         estimate D2E/DX2                !
 ! D255  D(29,31,34,32)         27.3429         estimate D2E/DX2                !
 ! D256  D(29,31,34,51)       -122.3036         estimate D2E/DX2                !
 ! D257  D(49,31,34,32)        146.6456         estimate D2E/DX2                !
 ! D258  D(49,31,34,51)         -3.0009         estimate D2E/DX2                !
 ! D259  D(73,31,34,32)        -92.1207         estimate D2E/DX2                !
 ! D260  D(73,31,34,51)        118.2329         estimate D2E/DX2                !
 ! D261  D(29,31,49,50)        -25.76           estimate D2E/DX2                !
 ! D262  D(29,31,49,54)        122.1161         estimate D2E/DX2                !
 ! D263  D(34,31,49,50)       -142.8639         estimate D2E/DX2                !
 ! D264  D(34,31,49,54)          5.0122         estimate D2E/DX2                !
 ! D265  D(73,31,49,50)         96.3571         estimate D2E/DX2                !
 ! D266  D(73,31,49,54)       -115.7668         estimate D2E/DX2                !
 ! D267  D(16,32,33,18)         -9.1174         estimate D2E/DX2                !
 ! D268  D(16,32,33,36)       -152.6182         estimate D2E/DX2                !
 ! D269  D(34,32,33,18)        138.4892         estimate D2E/DX2                !
 ! D270  D(34,32,33,36)         -5.0116         estimate D2E/DX2                !
 ! D271  D(16,32,34,31)          7.1899         estimate D2E/DX2                !
 ! D272  D(16,32,34,51)        154.4405         estimate D2E/DX2                !
 ! D273  D(33,32,34,31)       -136.4943         estimate D2E/DX2                !
 ! D274  D(33,32,34,51)         10.7563         estimate D2E/DX2                !
 ! D275  D(18,33,36,35)         -5.6066         estimate D2E/DX2                !
 ! D276  D(18,33,36,52)       -144.8325         estimate D2E/DX2                !
 ! D277  D(32,33,36,35)        134.1175         estimate D2E/DX2                !
 ! D278  D(32,33,36,52)         -5.1083         estimate D2E/DX2                !
 ! D279  D(31,34,51,52)        143.6408         estimate D2E/DX2                !
 ! D280  D(31,34,51,54)          0.0946         estimate D2E/DX2                !
 ! D281  D(32,34,51,52)         -6.7645         estimate D2E/DX2                !
 ! D282  D(32,34,51,54)       -150.3108         estimate D2E/DX2                !
 ! D283  D(19,35,36,33)         -4.8559         estimate D2E/DX2                !
 ! D284  D(19,35,36,52)        137.7566         estimate D2E/DX2                !
 ! D285  D(37,35,36,33)       -150.0159         estimate D2E/DX2                !
 ! D286  D(37,35,36,52)         -7.4034         estimate D2E/DX2                !
 ! D287  D(19,35,37,39)          3.9636         estimate D2E/DX2                !
 ! D288  D(19,35,37,53)       -139.5836         estimate D2E/DX2                !
 ! D289  D(36,35,37,39)        149.1112         estimate D2E/DX2                !
 ! D290  D(36,35,37,53)          5.564          estimate D2E/DX2                !
 ! D291  D(33,36,52,51)          9.1072         estimate D2E/DX2                !
 ! D292  D(33,36,52,53)        150.002          estimate D2E/DX2                !
 ! D293  D(35,36,52,51)       -134.666          estimate D2E/DX2                !
 ! D294  D(35,36,52,53)          6.2288         estimate D2E/DX2                !
 ! D295  D(35,37,39,38)         -0.8412         estimate D2E/DX2                !
 ! D296  D(35,37,39,57)       -140.9729         estimate D2E/DX2                !
 ! D297  D(53,37,39,38)        137.4627         estimate D2E/DX2                !
 ! D298  D(53,37,39,57)         -2.669          estimate D2E/DX2                !
 ! D299  D(35,37,53,52)         -1.7687         estimate D2E/DX2                !
 ! D300  D(35,37,53,55)        139.8827         estimate D2E/DX2                !
 ! D301  D(39,37,53,52)       -144.1981         estimate D2E/DX2                !
 ! D302  D(39,37,53,55)         -2.5468         estimate D2E/DX2                !
 ! D303  D(21,38,39,37)         -4.1104         estimate D2E/DX2                !
 ! D304  D(21,38,39,57)        139.3692         estimate D2E/DX2                !
 ! D305  D(42,38,39,37)       -149.32           estimate D2E/DX2                !
 ! D306  D(42,38,39,57)         -5.8404         estimate D2E/DX2                !
 ! D307  D(21,38,42,40)          3.981          estimate D2E/DX2                !
 ! D308  D(21,38,42,58)       -138.8527         estimate D2E/DX2                !
 ! D309  D(39,38,42,40)        149.4186         estimate D2E/DX2                !
 ! D310  D(39,38,42,58)          6.5848         estimate D2E/DX2                !
 ! D311  D(37,39,57,58)        146.9616         estimate D2E/DX2                !
 ! D312  D(37,39,57,60)          5.4303         estimate D2E/DX2                !
 ! D313  D(38,39,57,58)          2.8578         estimate D2E/DX2                !
 ! D314  D(38,39,57,60)       -138.6735         estimate D2E/DX2                !
 ! D315  D(23,40,41,24)        -10.4641         estimate D2E/DX2                !
 ! D316  D(23,40,41,43)       -151.8775         estimate D2E/DX2                !
 ! D317  D(42,40,41,24)        138.5243         estimate D2E/DX2                !
 ! D318  D(42,40,41,43)         -2.8891         estimate D2E/DX2                !
 ! D319  D(23,40,42,38)         13.0354         estimate D2E/DX2                !
 ! D320  D(23,40,42,58)        151.2614         estimate D2E/DX2                !
 ! D321  D(41,40,42,38)       -132.4265         estimate D2E/DX2                !
 ! D322  D(41,40,42,58)          5.7995         estimate D2E/DX2                !
 ! D323  D(24,41,43,46)          0.2383         estimate D2E/DX2                !
 ! D324  D(24,41,43,59)       -138.0802         estimate D2E/DX2                !
 ! D325  D(40,41,43,46)        137.2127         estimate D2E/DX2                !
 ! D326  D(40,41,43,59)         -1.1059         estimate D2E/DX2                !
 ! D327  D(38,42,58,57)         -4.9134         estimate D2E/DX2                !
 ! D328  D(38,42,58,59)        137.8518         estimate D2E/DX2                !
 ! D329  D(40,42,58,57)       -147.667          estimate D2E/DX2                !
 ! D330  D(40,42,58,59)         -4.9018         estimate D2E/DX2                !
 ! D331  D(41,43,46,44)         -0.8388         estimate D2E/DX2                !
 ! D332  D(41,43,46,61)       -141.878          estimate D2E/DX2                !
 ! D333  D(59,43,46,44)        141.5399         estimate D2E/DX2                !
 ! D334  D(59,43,46,61)          0.5007         estimate D2E/DX2                !
 ! D335  D(41,43,59,58)          2.0573         estimate D2E/DX2                !
 ! D336  D(41,43,59,65)        143.8037         estimate D2E/DX2                !
 ! D337  D(46,43,59,58)       -140.8979         estimate D2E/DX2                !
 ! D338  D(46,43,59,65)          0.8485         estimate D2E/DX2                !
 ! D339  D(26,44,45,28)          8.8316         estimate D2E/DX2                !
 ! D340  D(26,44,45,48)       -139.4379         estimate D2E/DX2                !
 ! D341  D(46,44,45,28)        151.8839         estimate D2E/DX2                !
 ! D342  D(46,44,45,48)          3.6144         estimate D2E/DX2                !
 ! D343  D(26,44,46,43)          1.2838         estimate D2E/DX2                !
 ! D344  D(26,44,46,61)        138.7832         estimate D2E/DX2                !
 ! D345  D(45,44,46,43)       -137.5554         estimate D2E/DX2                !
 ! D346  D(45,44,46,61)         -0.056          estimate D2E/DX2                !
 ! D347  D(28,45,48,47)        -11.9885         estimate D2E/DX2                !
 ! D348  D(28,45,48,62)       -150.8572         estimate D2E/DX2                !
 ! D349  D(44,45,48,47)        133.0472         estimate D2E/DX2                !
 ! D350  D(44,45,48,62)         -5.8215         estimate D2E/DX2                !
 ! D351  D(43,46,61,62)        140.6714         estimate D2E/DX2                !
 ! D352  D(43,46,61,65)         -1.6428         estimate D2E/DX2                !
 ! D353  D(44,46,61,62)         -1.097          estimate D2E/DX2                !
 ! D354  D(44,46,61,65)       -143.4113         estimate D2E/DX2                !
 ! D355  D(30,47,48,45)         -8.8368         estimate D2E/DX2                !
 ! D356  D(30,47,48,62)        134.0497         estimate D2E/DX2                !
 ! D357  D(50,47,48,45)       -148.131          estimate D2E/DX2                !
 ! D358  D(50,47,48,62)         -5.2445         estimate D2E/DX2                !
 ! D359  D(30,47,50,49)         10.1687         estimate D2E/DX2                !
 ! D360  D(30,47,50,63)       -134.0715         estimate D2E/DX2                !
 ! D361  D(48,47,50,49)        149.4101         estimate D2E/DX2                !
 ! D362  D(48,47,50,63)          5.1699         estimate D2E/DX2                !
 ! D363  D(45,48,62,61)          4.7002         estimate D2E/DX2                !
 ! D364  D(45,48,62,63)        147.1962         estimate D2E/DX2                !
 ! D365  D(47,48,62,61)       -139.2476         estimate D2E/DX2                !
 ! D366  D(47,48,62,63)          3.2484         estimate D2E/DX2                !
 ! D367  D(31,49,50,47)         10.258          estimate D2E/DX2                !
 ! D368  D(31,49,50,63)        150.006          estimate D2E/DX2                !
 ! D369  D(54,49,50,47)       -135.5295         estimate D2E/DX2                !
 ! D370  D(54,49,50,63)          4.2186         estimate D2E/DX2                !
 ! D371  D(31,49,54,51)         -5.3018         estimate D2E/DX2                !
 ! D372  D(31,49,54,56)       -149.213          estimate D2E/DX2                !
 ! D373  D(50,49,54,51)        143.5022         estimate D2E/DX2                !
 ! D374  D(50,49,54,56)         -0.409          estimate D2E/DX2                !
 ! D375  D(47,50,63,62)         -3.1067         estimate D2E/DX2                !
 ! D376  D(47,50,63,64)        139.1522         estimate D2E/DX2                !
 ! D377  D(49,50,63,62)       -147.895          estimate D2E/DX2                !
 ! D378  D(49,50,63,64)         -5.6361         estimate D2E/DX2                !
 ! D379  D(34,51,52,36)         -3.4477         estimate D2E/DX2                !
 ! D380  D(34,51,52,53)       -138.4629         estimate D2E/DX2                !
 ! D381  D(54,51,52,36)        136.1251         estimate D2E/DX2                !
 ! D382  D(54,51,52,53)          1.1099         estimate D2E/DX2                !
 ! D383  D(34,51,54,49)          3.1352         estimate D2E/DX2                !
 ! D384  D(34,51,54,56)        148.0781         estimate D2E/DX2                !
 ! D385  D(52,51,54,49)       -141.3867         estimate D2E/DX2                !
 ! D386  D(52,51,54,56)          3.5563         estimate D2E/DX2                !
 ! D387  D(36,52,53,37)         -2.7529         estimate D2E/DX2                !
 ! D388  D(36,52,53,55)       -144.2983         estimate D2E/DX2                !
 ! D389  D(51,52,53,37)        136.7777         estimate D2E/DX2                !
 ! D390  D(51,52,53,55)         -4.7677         estimate D2E/DX2                !
 ! D391  D(37,53,55,56)       -133.9826         estimate D2E/DX2                !
 ! D392  D(37,53,55,60)          4.9456         estimate D2E/DX2                !
 ! D393  D(52,53,55,56)          3.6671         estimate D2E/DX2                !
 ! D394  D(52,53,55,60)        142.5953         estimate D2E/DX2                !
 ! D395  D(49,54,56,55)        135.4019         estimate D2E/DX2                !
 ! D396  D(49,54,56,64)         -2.1379         estimate D2E/DX2                !
 ! D397  D(51,54,56,55)         -4.6384         estimate D2E/DX2                !
 ! D398  D(51,54,56,64)       -142.1781         estimate D2E/DX2                !
 ! D399  D(53,55,56,54)          0.9909         estimate D2E/DX2                !
 ! D400  D(53,55,56,64)        142.937          estimate D2E/DX2                !
 ! D401  D(60,55,56,54)       -141.8477         estimate D2E/DX2                !
 ! D402  D(60,55,56,64)          0.0983         estimate D2E/DX2                !
 ! D403  D(53,55,60,57)         -2.191          estimate D2E/DX2                !
 ! D404  D(53,55,60,66)       -145.0584         estimate D2E/DX2                !
 ! D405  D(56,55,60,57)        140.752          estimate D2E/DX2                !
 ! D406  D(56,55,60,66)         -2.1155         estimate D2E/DX2                !
 ! D407  D(54,56,64,63)          0.7522         estimate D2E/DX2                !
 ! D408  D(54,56,64,66)        144.4355         estimate D2E/DX2                !
 ! D409  D(55,56,64,63)       -141.7193         estimate D2E/DX2                !
 ! D410  D(55,56,64,66)          1.964          estimate D2E/DX2                !
 ! D411  D(39,57,58,42)          1.3383         estimate D2E/DX2                !
 ! D412  D(39,57,58,59)       -142.2938         estimate D2E/DX2                !
 ! D413  D(60,57,58,42)        142.5376         estimate D2E/DX2                !
 ! D414  D(60,57,58,59)         -1.0944         estimate D2E/DX2                !
 ! D415  D(39,57,60,55)         -3.0618         estimate D2E/DX2                !
 ! D416  D(39,57,60,66)        134.9062         estimate D2E/DX2                !
 ! D417  D(58,57,60,55)       -139.5218         estimate D2E/DX2                !
 ! D418  D(58,57,60,66)         -1.5538         estimate D2E/DX2                !
 ! D419  D(42,58,59,43)          0.8427         estimate D2E/DX2                !
 ! D420  D(42,58,59,65)       -135.5905         estimate D2E/DX2                !
 ! D421  D(57,58,59,43)        139.8023         estimate D2E/DX2                !
 ! D422  D(57,58,59,65)          3.3691         estimate D2E/DX2                !
 ! D423  D(43,59,65,61)         -1.8809         estimate D2E/DX2                !
 ! D424  D(43,59,65,66)       -143.6743         estimate D2E/DX2                !
 ! D425  D(58,59,65,61)        138.79           estimate D2E/DX2                !
[...]
              Bcc     0.0325     4.365     1.557     1.456  0.6625 -0.2193  0.7162
 
              Baa    -0.0622    -8.350    -2.979    -2.785 -0.3267  0.8814  0.3411
    14 C(13)  Bbb     0.0283     3.791     1.353     1.265 -0.1985 -0.4168  0.8870
              Bcc     0.0340     4.558     1.627     1.521  0.9240  0.2221  0.3112
 
              Baa    -0.0108    -1.449    -0.517    -0.483  0.2262  0.8211  0.5241
    15 C(13)  Bbb    -0.0104    -1.398    -0.499    -0.466  0.8665  0.0762 -0.4933
              Bcc     0.0212     2.847     1.016     0.949  0.4450 -0.5657  0.6943
 
              Baa    -0.0008    -0.109    -0.039    -0.036  0.6271 -0.5630 -0.5383
    16 C(13)  Bbb    -0.0007    -0.097    -0.035    -0.032  0.6744  0.7383  0.0135
              Bcc     0.0015     0.206     0.074     0.069  0.3898 -0.3715  0.8426
 
              Baa    -0.0038    -0.504    -0.180    -0.168  0.0160  0.9938 -0.1101
    17 C(13)  Bbb    -0.0031    -0.420    -0.150    -0.140  0.9631 -0.0449 -0.2654
              Bcc     0.0069     0.925     0.330     0.308  0.2687  0.1018  0.9578
 
              Baa    -0.0108    -1.445    -0.516    -0.482  0.3624 -0.3205  0.8752
    18 C(13)  Bbb     0.0051     0.687     0.245     0.229  0.4072  0.8991  0.1607
              Bcc     0.0056     0.758     0.271     0.253  0.8384 -0.2982 -0.4563
 
              Baa    -0.0140    -1.872    -0.668    -0.624  0.0967  0.3303  0.9389
    19 C(13)  Bbb     0.0061     0.823     0.294     0.275  0.8458 -0.5245  0.0974
              Bcc     0.0078     1.049     0.374     0.350  0.5246  0.7847 -0.3301
 
              Baa    -0.0213    -2.862    -1.021    -0.955  0.2736  0.6884  0.6718
    20 C(13)  Bbb     0.0094     1.266     0.452     0.422 -0.1130  0.7166 -0.6882
              Bcc     0.0119     1.596     0.569     0.532  0.9552 -0.1124 -0.2739
 
              Baa    -0.0271    -3.635    -1.297    -1.213  0.8689 -0.4791  0.1241
    21 C(13)  Bbb    -0.0267    -3.589    -1.281    -1.197  0.4624  0.6966 -0.5485
              Bcc     0.0538     7.224     2.578     2.410  0.1764  0.5340  0.8269
 
              Baa    -0.0072    -0.964    -0.344    -0.322  0.7576 -0.5845 -0.2906
    22 C(13)  Bbb    -0.0059    -0.786    -0.280    -0.262  0.3305 -0.0404  0.9429
              Bcc     0.0130     1.750     0.624     0.584  0.5629  0.8104 -0.1625
 
              Baa    -0.0009    -0.126    -0.045    -0.042  0.9205  0.0445 -0.3882
    23 C(13)  Bbb    -0.0003    -0.038    -0.013    -0.013  0.3538 -0.5163  0.7799
              Bcc     0.0012     0.164     0.059     0.055  0.1658  0.8552  0.4910
 
              Baa    -0.0159    -2.139    -0.763    -0.714  0.3543  0.7951 -0.4922
    24 C(13)  Bbb     0.0070     0.936     0.334     0.312  0.9248 -0.2197  0.3107
              Bcc     0.0090     1.203     0.429     0.401 -0.1389  0.5652  0.8132
 
              Baa    -0.0172    -2.309    -0.824    -0.770 -0.4528 -0.2152  0.8652
    25 C(13)  Bbb     0.0045     0.601     0.214     0.200  0.7023 -0.6840  0.1974
              Bcc     0.0127     1.708     0.609     0.570  0.5493  0.6970  0.4609
 
              Baa    -0.0224    -3.005    -1.072    -1.002  0.9156 -0.3277  0.2330
    26 C(13)  Bbb    -0.0195    -2.613    -0.932    -0.872  0.0917  0.7343  0.6726
              Bcc     0.0419     5.618     2.005     1.874 -0.3915 -0.5945  0.7024
 
              Baa    -0.0714    -9.585    -3.420    -3.197  0.5259  0.7931 -0.3074
    27 C(13)  Bbb    -0.0675    -9.059    -3.233    -3.022  0.7767 -0.3005  0.5536
              Bcc     0.1389    18.644     6.653     6.219 -0.3467  0.5299  0.7740
 
              Baa    -0.0084    -1.125    -0.401    -0.375 -0.0353  0.4877  0.8723
    28 C(13)  Bbb     0.0013     0.179     0.064     0.060 -0.4530  0.7702 -0.4489
              Bcc     0.0071     0.946     0.338     0.316  0.8908  0.4110 -0.1937
 
              Baa    -0.0611    -8.203    -2.927    -2.736 -0.0185 -0.4571  0.8892
    29 C(13)  Bbb    -0.0589    -7.908    -2.822    -2.638  0.9759  0.1850  0.1154
              Bcc     0.1201    16.111     5.749     5.374 -0.2173  0.8699  0.4427
 
              Baa    -0.0761   -10.217    -3.646    -3.408 -0.1734  0.7132  0.6792
    30 C(13)  Bbb     0.0307     4.118     1.469     1.374  0.4100  0.6793 -0.6086
              Bcc     0.0455     6.099     2.176     2.034  0.8955 -0.1729  0.4102
 
              Baa    -0.0068    -0.915    -0.327    -0.305  0.2975  0.6912  0.6585
    31 C(13)  Bbb     0.0006     0.076     0.027     0.025  0.8697  0.0884 -0.4856
              Bcc     0.0063     0.840     0.300     0.280 -0.3939  0.7172 -0.5749
 
              Baa    -0.0016    -0.211    -0.075    -0.070  0.8240 -0.1304 -0.5514
    32 C(13)  Bbb    -0.0007    -0.099    -0.035    -0.033  0.3027  0.9239  0.2340
              Bcc     0.0023     0.310     0.111     0.103  0.4789 -0.3597  0.8008
 
              Baa    -0.0062    -0.836    -0.298    -0.279  0.9818  0.1155 -0.1510
    33 C(13)  Bbb    -0.0055    -0.735    -0.262    -0.245 -0.0157  0.8406  0.5414
              Bcc     0.0117     1.571     0.560     0.524  0.1894 -0.5292  0.8271
 
              Baa    -0.0064    -0.862    -0.307    -0.287  0.9840  0.1088  0.1413
    34 C(13)  Bbb    -0.0050    -0.669    -0.239    -0.223 -0.1770  0.6921  0.6998
              Bcc     0.0114     1.531     0.546     0.511  0.0217  0.7136 -0.7002
 
              Baa    -0.0204    -2.739    -0.977    -0.914  0.9418 -0.3224  0.0954
    35 C(13)  Bbb    -0.0198    -2.663    -0.950    -0.888  0.3305  0.9398 -0.0871
              Bcc     0.0403     5.402     1.928     1.802 -0.0616  0.1135  0.9916
 
              Baa    -0.0048    -0.645    -0.230    -0.215 -0.1651 -0.3943  0.9040
    36 C(13)  Bbb     0.0013     0.176     0.063     0.059  0.9671  0.1153  0.2269
              Bcc     0.0035     0.469     0.167     0.157 -0.1937  0.9117  0.3623
 
              Baa    -0.0177    -2.369    -0.845    -0.790 -0.4123  0.1508  0.8985
    37 C(13)  Bbb     0.0083     1.117     0.398     0.372 -0.4274  0.8389 -0.3369
              Bcc     0.0093     1.253     0.447     0.418  0.8046  0.5229  0.2814
 
              Baa    -0.0299    -4.018    -1.434    -1.340 -0.0524  0.6319  0.7733
    38 C(13)  Bbb     0.0138     1.845     0.658     0.615  0.5998  0.6390 -0.4815
              Bcc     0.0162     2.173     0.775     0.725  0.7984 -0.4386  0.4125
 
              Baa    -0.0093    -1.243    -0.443    -0.414  0.7299  0.6805 -0.0648
    39 C(13)  Bbb    -0.0086    -1.160    -0.414    -0.387  0.5312 -0.5049  0.6804
              Bcc     0.0179     2.403     0.857     0.801 -0.4303  0.5310  0.7300
 
              Baa    -0.0258    -3.459    -1.234    -1.154 -0.0558  0.9880  0.1441
    40 C(13)  Bbb     0.0116     1.557     0.556     0.520  0.8412 -0.0312  0.5399
              Bcc     0.0142     1.902     0.679     0.634 -0.5379 -0.1513  0.8293
 
              Baa    -0.0205    -2.756    -0.983    -0.919  0.9048  0.0727  0.4197
    41 C(13)  Bbb    -0.0193    -2.592    -0.925    -0.864 -0.4244  0.2366  0.8740
              Bcc     0.0399     5.348     1.908     1.784  0.0358  0.9689 -0.2449
 
              Baa    -0.0217    -2.916    -1.041    -0.973  0.7115  0.4776 -0.5154
    42 C(13)  Bbb    -0.0206    -2.770    -0.988    -0.924  0.6579 -0.1951  0.7274
              Bcc     0.0424     5.686     2.029     1.897 -0.2469  0.8566  0.4530
 
              Baa    -0.0242    -3.246    -1.158    -1.083 -0.2835  0.8437 -0.4559
    43 C(13)  Bbb     0.0103     1.378     0.492     0.460  0.9324  0.1314 -0.3367
              Bcc     0.0139     1.868     0.666     0.623  0.2242  0.5205  0.8239
 
              Baa    -0.0512    -6.868    -2.451    -2.291 -0.0294 -0.3422  0.9392
    44 C(13)  Bbb     0.0202     2.709     0.967     0.904  0.9289  0.3377  0.1521
              Bcc     0.0310     4.158     1.484     1.387 -0.3692  0.8768  0.3080
 
              Baa    -0.1169   -15.684    -5.596    -5.231  0.8789  0.4736  0.0570
    45 C(13)  Bbb    -0.1111   -14.908    -5.320    -4.973 -0.4713  0.8806 -0.0492
              Bcc     0.2280    30.592    10.916    10.204 -0.0735  0.0164  0.9972
 
              Baa    -0.0519    -6.961    -2.484    -2.322  0.9603  0.1680 -0.2228
    46 C(13)  Bbb    -0.0490    -6.582    -2.348    -2.195  0.0016  0.7951  0.6064
              Bcc     0.1009    13.542     4.832     4.517  0.2791 -0.5827  0.7633
 
              Baa    -0.2696   -36.177   -12.909   -12.067  0.8975 -0.3062  0.3175
    47 C(13)  Bbb    -0.2627   -35.254   -12.579   -11.759  0.4393  0.6859 -0.5802
              Bcc     0.5323    71.431    25.488    23.827 -0.0401  0.6602  0.7500
 
              Baa    -0.0965   -12.945    -4.619    -4.318  0.1305  0.3447  0.9296
    48 C(13)  Bbb     0.0367     4.928     1.758     1.644  0.9912 -0.0676 -0.1141
              Bcc     0.0597     8.017     2.861     2.674  0.0235  0.9363 -0.3505
 
              Baa    -0.1053   -14.126    -5.041    -4.712  0.4355 -0.4897  0.7554
    49 C(13)  Bbb    -0.1005   -13.485    -4.812    -4.498  0.7950 -0.1844 -0.5779
              Bcc     0.2058    27.611     9.852     9.210  0.4223  0.8522  0.3090
 
              Baa    -0.0917   -12.307    -4.392    -4.105  0.3310  0.6905  0.6431
    50 C(13)  Bbb     0.0340     4.564     1.629     1.522 -0.6167  0.6742 -0.4065
              Bcc     0.0577     7.743     2.763     2.583  0.7142  0.2620 -0.6490
 
              Baa    -0.0192    -2.573    -0.918    -0.858  0.8424 -0.3255  0.4294
    51 C(13)  Bbb    -0.0172    -2.306    -0.823    -0.769 -0.1972  0.5553  0.8079
              Bcc     0.0364     4.878     1.741     1.627  0.5014  0.7653 -0.4035
 
              Baa    -0.0148    -1.988    -0.709    -0.663 -0.5470 -0.4856  0.6819
    52 C(13)  Bbb     0.0059     0.786     0.281     0.262  0.7959 -0.0490  0.6035
              Bcc     0.0090     1.201     0.429     0.401 -0.2596  0.8728  0.4133
 
              Baa    -0.0274    -3.682    -1.314    -1.228  0.6288 -0.5727  0.5260
    53 C(13)  Bbb    -0.0262    -3.520    -1.256    -1.174  0.3507  0.8126  0.4655
              Bcc     0.0537     7.203     2.570     2.403 -0.6940 -0.1082  0.7118
 
              Baa    -0.0444    -5.954    -2.125    -1.986  0.6470  0.7616  0.0367
    54 C(13)  Bbb     0.0174     2.340     0.835     0.780  0.4599 -0.4281  0.7780
              Bcc     0.0269     3.615     1.290     1.206 -0.6082  0.4865  0.6272
 
              Baa    -0.0256    -3.434    -1.225    -1.145  0.8956  0.2013 -0.3967
    55 C(13)  Bbb     0.0109     1.467     0.524     0.489 -0.3348  0.8923 -0.3029
              Bcc     0.0147     1.967     0.702     0.656  0.2930  0.4041  0.8665
 
              Baa    -0.0464    -6.228    -2.222    -2.077 -0.4072  0.7745 -0.4840
    56 C(13)  Bbb    -0.0438    -5.882    -2.099    -1.962 -0.1421  0.4698  0.8713
              Bcc     0.0902    12.110     4.321     4.039  0.9022  0.4236 -0.0813
 
              Baa    -0.0124    -1.670    -0.596    -0.557  0.7607 -0.4643 -0.4536
    57 C(13)  Bbb     0.0060     0.812     0.290     0.271  0.0441  0.7341 -0.6776
              Bcc     0.0064     0.858     0.306     0.286  0.6476  0.4954  0.5789
 
              Baa    -0.0139    -1.868    -0.667    -0.623 -0.5139  0.8430  0.1586
    58 C(13)  Bbb     0.0062     0.828     0.295     0.276 -0.5614 -0.4704  0.6808
              Bcc     0.0078     1.040     0.371     0.347  0.6486  0.2608  0.7151
 
              Baa    -0.0118    -1.577    -0.563    -0.526  0.7662  0.5370 -0.3530
    59 C(13)  Bbb    -0.0111    -1.495    -0.534    -0.499  0.2072  0.3136  0.9267
              Bcc     0.0229     3.072     1.096     1.025 -0.6083  0.7831 -0.1290
 
              Baa    -0.0042    -0.566    -0.202    -0.189  0.1973  0.9099 -0.3648
    60 C(13)  Bbb    -0.0041    -0.556    -0.199    -0.186  0.4175  0.2588  0.8711
              Bcc     0.0084     1.122     0.400     0.374  0.8870 -0.3241 -0.3288
 
              Baa    -0.0221    -2.964    -1.058    -0.989  0.4142 -0.2993  0.8596
    61 C(13)  Bbb     0.0097     1.307     0.466     0.436 -0.5008  0.7137  0.4898
              Bcc     0.0123     1.657     0.591     0.553  0.7600  0.6334 -0.1457
 
              Baa    -0.0244    -3.281    -1.171    -1.094  0.7789 -0.2434 -0.5780
    62 C(13)  Bbb    -0.0223    -2.998    -1.070    -1.000  0.2292  0.9683 -0.0989
              Bcc     0.0468     6.279     2.240     2.094  0.5837 -0.0555  0.8100
 
              Baa    -0.0289    -3.881    -1.385    -1.295 -0.2974  0.9434 -0.1467
    63 C(13)  Bbb    -0.0273    -3.659    -1.306    -1.221 -0.5278 -0.0344  0.8487
              Bcc     0.0562     7.541     2.691     2.515  0.7956  0.3298  0.5082
 
              Baa    -0.0256    -3.429    -1.224    -1.144  0.8797  0.3803  0.2854
    64 C(13)  Bbb     0.0118     1.577     0.563     0.526 -0.4291  0.8935  0.1321
              Bcc     0.0138     1.852     0.661     0.618 -0.2047 -0.2387  0.9493
 
              Baa    -0.0057    -0.759    -0.271    -0.253  0.6712 -0.4479  0.5906
    65 C(13)  Bbb     0.0025     0.335     0.119     0.112 -0.5430  0.2453  0.8031
              Bcc     0.0032     0.424     0.151     0.141  0.5046  0.8598  0.0786
 
              Baa    -0.0051    -0.690    -0.246    -0.230  0.9604  0.0238  0.2775
    66 C(13)  Bbb     0.0024     0.327     0.117     0.109  0.0864  0.9217 -0.3781
              Bcc     0.0027     0.363     0.130     0.121 -0.2648  0.3871  0.8832
 
              Baa    -0.0152    -0.795    -0.284    -0.265  0.2981 -0.3985  0.8674
    67 Cl(35) Bbb    -0.0140    -0.735    -0.262    -0.245 -0.3865  0.7805  0.4914
              Bcc     0.0292     1.530     0.546     0.510  0.8728  0.4817 -0.0787
 
              Baa    -0.0018    -0.094    -0.033    -0.031  0.6735 -0.4798  0.5623
    68 Cl(35) Bbb    -0.0000    -0.003    -0.001    -0.001 -0.3639  0.4469  0.8172
              Bcc     0.0018     0.096     0.034     0.032  0.6434  0.7551 -0.1264
 
              Baa    -0.0425    -2.224    -0.794    -0.742  0.0768  0.7878  0.6112
    69 Cl(35) Bbb    -0.0344    -1.800    -0.642    -0.600 -0.4782 -0.5088  0.7159
              Bcc     0.0769     4.024     1.436     1.342  0.8749 -0.3472  0.3377
 
              Baa    -0.0281    -1.468    -0.524    -0.490 -0.3224  0.6848 -0.6536
    70 Cl(35) Bbb     0.0107     0.558     0.199     0.186  0.9312  0.1051 -0.3491
              Bcc     0.0174     0.910     0.325     0.304  0.1704  0.7211  0.6715
 
              Baa    -0.0122    -0.638    -0.228    -0.213  0.4288  0.5189  0.7395
    71 Cl(35) Bbb    -0.0003    -0.016    -0.006    -0.005 -0.5719  0.7896 -0.2224
              Bcc     0.0125     0.654     0.233     0.218  0.6993  0.3275 -0.6354
 
              Baa    -0.0251    -1.313    -0.469    -0.438  0.5790  0.8091  0.1001
    72 Cl(35) Bbb     0.0083     0.432     0.154     0.144  0.6589 -0.5368  0.5269
              Bcc     0.0168     0.881     0.314     0.294 -0.4801  0.2391  0.8440
 
              Baa    -0.1016    -5.316    -1.897    -1.773  0.0983 -0.0329  0.9946
    73 Cl(35) Bbb    -0.0874    -4.576    -1.633    -1.526  0.9931  0.0678 -0.0959
              Bcc     0.1890     9.892     3.530     3.300 -0.0642  0.9972  0.0393
 
              Baa    -0.0276    -1.442    -0.515    -0.481  0.6824  0.4781 -0.5530
    74 Cl(35) Bbb     0.0097     0.510     0.182     0.170 -0.6714  0.7091 -0.2154
              Bcc     0.0178     0.932     0.333     0.311  0.2891  0.5183  0.8049
 
              Baa    -0.1480    -7.747    -2.764    -2.584  0.6417  0.6570  0.3957
    75 Cl(35) Bbb    -0.1270    -6.647    -2.372    -2.217 -0.4811  0.7467 -0.4594
              Bcc     0.2750    14.394     5.136     4.801 -0.5973  0.1044  0.7952
 

 ---------------------------------------------------------------------------------

 No NMR shielding tensors so no spin-rotation constants.
 Leave Link  601 at Fri Jul 15 07:13:34 2022, MaxMem=  1342177280 cpu:             120.1 elap:               2.8
 (Enter /home/mkliu/g16/l9999.exe)
 1\1\GINC-NODE06\FOpt\UB3LYP\6-311G(d,p)\C66Cl9(2)\MKLIU\15-Jul-2022\0\
 \#P opt b3lyp/6-311G(d, p) empiricaldispersion=GD3\\force\\0,2\C,-1.35
 83467353,1.8731987322,-3.9712887451\C,0.1953740375,2.2981365766,-4.116
 6450224\C,0.9633743944,0.8761771574,-4.3062075464\C,-1.2950801454,0.39
 95607151,-3.8480120414\C,-0.0893937911,-0.1753059123,-4.1661326969\C,-
 2.1732725557,-0.1370827474,-2.9139248257\C,-2.2029702408,2.2848682671,
 -2.6799976959\C,-2.7291633814,0.9232937219,-2.1407858247\C,-1.41208416
 88,2.8955614592,-1.5394827614\C,0.8714610337,2.9152035473,-2.790264871
 2\C,-0.0315933941,3.1987170128,-1.5956185877\C,1.8240776335,0.70873166
 99,-3.0778135761\C,1.8530363362,1.8507114759,-2.3053518401\C,2.2005524
 955,-0.5409392818,-2.5385143613\C,0.1908277717,-1.4240754281,-3.645647
 1005\C,1.5935385092,-1.8052745151,-3.1780916403\C,-1.9514215649,-1.429
 0656669,-2.3888386931\C,-0.7741138685,-2.0902510298,-2.8629822068\C,-2
 .4803380851,-1.7372505401,-1.0788118937\C,-3.1343258375,0.693335201,-0
 .8543056036\C,-3.0913113459,-0.6607214285,-0.2992410173\C,-2.062822232
 2,2.8680906098,-0.3020062722\C,-3.2176747951,1.9123705534,0.0496030289
 \C,-1.3914409969,3.2134578271,0.8768937254\C,0.6535393265,3.4539700294
 ,-0.400352637\C,-0.0227587754,3.5036599804,0.8268780198\C,2.4138095288
 ,1.8379967367,-1.0266761323\C,2.1057006334,3.0218889958,-0.1340206276\
 C,2.8127671648,-0.5820628278,-1.2793635972\C,2.9597367971,0.6284605414
 ,-0.5127446304\C,3.1185809952,-1.941794048,-0.6294714092\C,1.294935510
 3,-2.8347962196,-2.1108514075\C,-0.1157029241,-3.0641621428,-2.0367410
 976\C,2.0440182971,-2.9589235013,-0.981847317\C,-1.9400773674,-2.86118
 96006,-0.4016377558\C,-0.717042237,-3.495392569,-0.872348002\C,-1.9352
 404759,-2.9373366291,1.0204868042\C,-3.1609168921,-0.820862986,1.10580
 82069\C,-2.5473897007,-1.9263019866,1.7610723443\C,-2.9244342678,1.602
 0229434,1.5012912389\C,-1.9343865395,2.4893690532,2.011709185\C,-3.032
 8077995,0.3350213761,2.0049326319\C,-1.1089654991,2.1124502479,3.06900
 62792\C,0.8401116231,3.0719512344,1.9116318541\C,2.0615416939,2.650351
 883,1.3255503689\C,0.3113032473,2.4121984316,3.0198131116\C,3.25271462
 73,0.5440291845,0.905732556\C,2.7175424352,1.5395950678,1.806018712\C,
 3.012258771,-1.9002187008,0.8826584793\C,3.179290919,-0.727160032,1.58
 40815085\C,1.4589288448,-3.4920716035,0.2130655261\C,0.095498003,-3.80
 72210022,0.2673493883\C,-0.6696147769,-3.4994127268,1.4550014123\C,2.0
 9366891,-2.8832461562,1.3571308197\C,-0.0387424649,-2.9855475568,2.583
 2162682\C,1.3743232313,-2.683438564,2.5442886766\C,-1.9337052169,-1.46
 52619827,2.9989448651\C,-2.2314431091,-0.0629714047,3.1397382425\C,-1.
 2702068321,0.8092758651,3.6636822664\C,-0.6921878496,-1.9638914626,3.3
 853538087\C,1.0244114552,1.293120587,3.5843873079\C,2.214711649,0.8712
 854821,2.9905507227\C,2.5039931504,-0.5338508269,2.8545375023\C,1.5966
 624251,-1.4851492355,3.317273229\C,0.0444701357,0.3039647321,4.0070665
 375\C,0.3267410794,-1.05338212,3.8724474774\Cl,-2.3114518126,2.1510530
 971,-5.5026529866\Cl,0.4157743085,3.3735080384,-5.5194626763\Cl,1.9568
 320611,0.7127969349,-5.811989491\Cl,2.6728235512,-2.5061750336,-4.4819
 380802\Cl,-3.5455350654,3.4629285174,-3.0606707904\Cl,-4.9043818544,2.
 6822648783,-0.0218288471\Cl,4.8139560504,-2.4793025503,-1.1566759282\C
 l,1.7668852553,4.4796876394,-3.1431347886\Cl,3.4009794496,4.3496953691
 ,-0.2835090949\\Version=ES64L-G16RevA.03\State=2-A\HF=-6657.4395001\S2
 =0.784349\S2-1=0.\S2A=0.751145\RMSD=8.913e-09\RMSF=1.937e-05\Dipole=-0
 .5623626,-1.1050193,1.6465449\Quadrupole=-6.4319269,2.1358395,4.296087
 4,5.374871,2.7715315,1.226403\PG=C01 [X(C66Cl9)]\\@


 SUCCESS IS NEVER CERTAIN,
 FAILURE IS NEVER FINAL.
 Job cpu time:       5 days 18 hours 44 minutes 23.7 seconds.
 Elapsed time:       0 days  2 hours 53 minutes 43.1 seconds.
 File lengths (MBytes):  RWF=   2194 Int=      0 D2E=      0 Chk=    198 Scr=      1
 Normal termination of Gaussian 16 at Fri Jul 15 07:13:37 2022.
