 Entering Gaussian System, Link 0=g16
 Input=drgjuecxjgdmo_addon_9.gjf
 Output=drgjuecxjgdmo_addon_9.log
 Initial command:
 /home/mkliu/g16/l1.exe "/data/scratch/Gau-103757.inp" -scrdir="/data/scratch/"
 Entering Link 1 = /home/mkliu/g16/l1.exe PID=    103758.
  
 Copyright (c) 1988,1990,1992,1993,1995,1998,2003,2009,2016,
            Gaussian, Inc.  All Rights Reserved.
  
 This is part of the Gaussian(R) 16 program.  It is based on
 the Gaussian(R) 09 system (copyright 2009, Gaussian, Inc.),
 the Gaussian(R) 03 system (copyright 2003, Gaussian, Inc.),
 the Gaussian(R) 98 system (copyright 1998, Gaussian, Inc.),
 the Gaussian(R) 94 system (copyright 1995, Gaussian, Inc.),
 the Gaussian 92(TM) system (copyright 1992, Gaussian, Inc.),
 the Gaussian 90(TM) system (copyright 1990, Gaussian, Inc.),
 the Gaussian 88(TM) system (copyright 1988, Gaussian, Inc.),
 the Gaussian 86(TM) system (copyright 1986, Carnegie Mellon
 University), and the Gaussian 82(TM) system (copyright 1983,
 Carnegie Mellon University). Gaussian is a federally registered
 trademark of Gaussian, Inc.
  
 This software contains proprietary and confidential information,
 including trade secrets, belonging to Gaussian, Inc.
  
 This software is provided under written license and may be
 used, copied, transmitted, or stored only in accord with that
 written license.
  
 The following legend is applicable only to US Government
 contracts under FAR:
  
                    RESTRICTED RIGHTS LEGEND
  
 Use, reproduction and disclosure by the US Government is
 subject to restrictions as set forth in subparagraphs (a)
 and (c) of the Commercial Computer Software - Restricted
 Rights clause in FAR 52.227-19.
  
 Gaussian, Inc.
 340 Quinnipiac St., Bldg. 40, Wallingford CT 06492
  
  
 ---------------------------------------------------------------
 Warning -- This program may not be used in any manner that
 competes with the business of Gaussian, Inc. or will provide
 assistance to any competitor of Gaussian, Inc.  The licensee
 of this program is prohibited from giving any competitor of
 Gaussian, Inc. access to this program.  By using this program,
 the user acknowledges that Gaussian, Inc. is engaged in the
 business of creating and licensing software in the field of
 computational chemistry and represents and warrants to the
 licensee that it is not a competitor of Gaussian, Inc. and that
 it will not use this program in any manner prohibited above.
 ---------------------------------------------------------------
  

 Cite this work as:
 Gaussian 16, Revision A.03,
 M. J. Frisch, G. W. Trucks, H. B. Schlegel, G. E. Scuseria, 
 M. A. Robb, J. R. Cheeseman, G. Scalmani, V. Barone, 
 G. A. Petersson, H. Nakatsuji, X. Li, M. Caricato, A. V. Marenich, 
 J. Bloino, B. G. Janesko, R. Gomperts, B. Mennucci, H. P. Hratchian, 
 J. V. Ortiz, A. F. Izmaylov, J. L. Sonnenberg, D. Williams-Young, 
 F. Ding, F. Lipparini, F. Egidi, J. Goings, B. Peng, A. Petrone, 
 T. Henderson, D. Ranasinghe, V. G. Zakrzewski, J. Gao, N. Rega, 
 G. Zheng, W. Liang, M. Hada, M. Ehara, K. Toyota, R. Fukuda, 
 J. Hasegawa, M. Ishida, T. Nakajima, Y. Honda, O. Kitao, H. Nakai, 
 T. Vreven, K. Throssell, J. A. Montgomery, Jr., J. E. Peralta, 
 F. Ogliaro, M. J. Bearpark, J. J. Heyd, E. N. Brothers, K. N. Kudin, 
 V. N. Staroverov, T. A. Keith, R. Kobayashi, J. Normand, 
 K. Raghavachari, A. P. Rendell, J. C. Burant, S. S. Iyengar, 
 J. Tomasi, M. Cossi, J. M. Millam, M. Klene, C. Adamo, R. Cammi, 
 J. W. Ochterski, R. L. Martin, K. Morokuma, O. Farkas, 
 J. B. Foresman, and D. J. Fox, Gaussian, Inc., Wallingford CT, 2016.
 
 ******************************************
 Gaussian 16:  ES64L-G16RevA.03 25-Dec-2016
                16-Jul-2022 
 ******************************************
 %mem=10GB
 %chk=drgjuecxjgdmo_addon_9.chk
 %nprocshared=48
 Will use up to   48 processors via shared memory.
 -------------------------------------------------
 #P opt b3lyp/6-311G(d, p) empiricaldispersion=GD3
 -------------------------------------------------
 1/18=20,19=15,26=3,38=1/1,3;
 2/9=110,12=2,17=6,18=5,40=1/2;
 3/5=4,6=6,7=101,11=2,25=1,30=1,71=1,74=-5,124=31/1,2,3;
 4//1;
 5/5=2,38=5/2;
 6/7=2,8=2,9=2,10=2,28=1/1;
 7//1,2,3,16;
 1/18=20,19=15,26=3/3(2);
 2/9=110/2;
 99//99;
 2/9=110/2;
 3/5=4,6=6,7=101,11=2,25=1,30=1,71=1,74=-5,124=31/1,2,3;
 4/5=5,16=3,69=1/1;
 5/5=2,38=5/2;
 7//1,2,3,16;
 1/18=20,19=15,26=3/3(-5);
 2/9=110/2;
 6/7=2,8=2,9=2,10=2,19=2,28=1/1;
 99/9=1/99;
 Leave Link    1 at Sat Jul 16 14:12:36 2022, MaxMem=  1342177280 cpu:               2.2 elap:               0.1
 (Enter /home/mkliu/g16/l101.exe)
 -----
 force
 -----
 Symbolic Z-matrix:
 Charge =  0 Multiplicity = 2
 C                    -1.3302    1.87375  -3.9453 
 C                     0.19656   2.2885   -4.0446 
 C                     0.95292   0.91572  -4.25938 
 C                    -1.28135   0.39103  -3.83412 
 C                    -0.06294  -0.15456  -4.12409 
 C                    -2.12591  -0.12778  -2.87122 
 C                    -2.17029   2.26549  -2.70016 
 C                    -2.689     0.94449  -2.12631 
 C                    -1.41756   2.84958  -1.52553 
 C                     0.85061   2.87124  -2.74781 
 C                    -0.05859   3.15618  -1.58071 
 C                     1.77634   0.67478  -3.02472 
 C                     1.78243   1.79893  -2.24545 
 C                     2.17509  -0.56418  -2.51671 
 C                     0.21828  -1.39841  -3.59208 
 C                     1.61097  -1.81502  -3.16957 
 C                    -1.91223  -1.40198  -2.34183 
 C                    -0.73713  -2.04931  -2.79742 
 C                    -2.46246  -1.68761  -1.04592 
 C                    -3.10401   0.71966  -0.84643 
 C                    -3.07384  -0.62538  -0.28712 
 C                    -2.06724   2.83507  -0.30062 
 C                    -3.22708   1.91689   0.05609 
 C                    -1.39514   3.20236   0.88866 
 C                     0.63273   3.38755  -0.37908 
 C                    -0.05079   3.50701   0.86304 
 C                     2.33922   1.75968  -0.97495 
 C                     1.91163   2.80646  -0.09039 
 C                     2.80854  -0.61696  -1.26306 
 C                     2.93014   0.56512  -0.52349 
 C                     3.14631  -1.96038  -0.63421 
 C                     1.31473  -2.82315  -2.09737 
 C                    -0.09416  -3.02447  -1.99369 
 C                     2.05789  -2.9456   -0.9702 
 C                    -1.92533  -2.80766  -0.37847 
 C                    -0.71238  -3.43727  -0.84142 
 C                    -1.93842  -2.89312   1.03894 
 C                    -3.16317  -0.78786   1.10207 
 C                    -2.55811  -1.89308   1.7667 
 C                    -2.94401   1.62069   1.49126 
 C                    -1.9476    2.49619   2.0089 
 C                    -3.05032   0.3614    2. 
 C                    -1.11474   2.10182   3.04871 
 C                     0.81932   3.06663   1.91202 
 C                     2.05705   2.62045   1.31387 
 C                     0.29492   2.39086   2.99138 
 C                     3.47836   0.56626   0.89212 
 C                     2.7337    1.51702   1.79108 
 C                     3.02948  -1.89946   0.86691 
 C                     3.20044  -0.748     1.56312 
 C                     1.45853  -3.47468   0.21808 
 C                     0.10326  -3.76114   0.27909 
 C                    -0.6741   -3.45425   1.44752 
 C                     2.09104  -2.87119   1.34529 
 C                    -0.04916  -2.94388   2.56256 
 C                     1.35608  -2.6489    2.49988 
 C                    -1.95297  -1.44019   2.9913 
 C                    -2.24203  -0.03962   3.11895 
 C                    -1.27357   0.80822   3.62688 
 C                    -0.71127  -1.93284   3.35176 
 C                     1.01769   1.27215   3.53208 
 C                     2.20408   0.85732   2.92601 
 C                     2.48682  -0.54145   2.78658 
 C                     1.56938  -1.45975   3.25203 
 C                     0.04436   0.3117    3.94547 
 C                     0.31329  -1.04005   3.81123 
 Cl                   -2.20018   2.24706  -5.46841 
 Cl                    0.43186   3.37777  -5.42632 
 Cl                    1.94909   0.80243  -5.72226 
 Cl                    2.68602  -2.42939  -4.46446 
 Cl                   -3.49767   3.4111   -3.07702 
 Cl                   -4.86847   2.65018  -0.16201 
 Cl                    4.78744  -2.43875  -1.20865 
 Cl                    5.25282   0.93177   0.74722 
 Cl                    1.80771   4.37848  -3.07935 
 
 ITRead=  0  0  0  0  0  0  0  0  0  0  0  0  0  0  0  0  0  0  0  0
 ITRead=  0  0  0  0  0  0  0  0  0  0  0  0  0  0  0  0  0  0  0  0
 ITRead=  0  0  0  0  0  0  0  0  0  0  0  0  0  0  0  0  0  0  0  0
 ITRead=  0  0  0  0  0  0  0  0  0  0  0  0  0  0  0
 MicOpt= -1 -1 -1 -1 -1 -1 -1 -1 -1 -1 -1 -1 -1 -1 -1 -1 -1 -1 -1 -1
 MicOpt= -1 -1 -1 -1 -1 -1 -1 -1 -1 -1 -1 -1 -1 -1 -1 -1 -1 -1 -1 -1
 MicOpt= -1 -1 -1 -1 -1 -1 -1 -1 -1 -1 -1 -1 -1 -1 -1 -1 -1 -1 -1 -1
 MicOpt= -1 -1 -1 -1 -1 -1 -1 -1 -1 -1 -1 -1 -1 -1 -1
 NAtoms=     75 NQM=       75 NQMF=       0 NMMI=      0 NMMIF=      0
                NMic=       0 NMicF=      0.
                    Isotopes and Nuclear Properties:
 (Nuclear quadrupole moments (NQMom) in fm**2, nuclear magnetic moments (NMagM)
  in nuclear magnetons)

  Atom         1           2           3           4           5           6           7           8           9          10
 IAtWgt=          12          12          12          12          12          12          12          12          12          12
 AtmWgt=  12.0000000  12.0000000  12.0000000  12.0000000  12.0000000  12.0000000  12.0000000  12.0000000  12.0000000  12.0000000
 NucSpn=           0           0           0           0           0           0           0           0           0           0
 AtZEff=  -0.0000000  -0.0000000  -0.0000000  -0.0000000  -0.0000000  -0.0000000  -0.0000000  -0.0000000  -0.0000000  -0.0000000
 NQMom=    0.0000000   0.0000000   0.0000000   0.0000000   0.0000000   0.0000000   0.0000000   0.0000000   0.0000000   0.0000000
 NMagM=    0.0000000   0.0000000   0.0000000   0.0000000   0.0000000   0.0000000   0.0000000   0.0000000   0.0000000   0.0000000
 AtZNuc=   6.0000000   6.0000000   6.0000000   6.0000000   6.0000000   6.0000000   6.0000000   6.0000000   6.0000000   6.0000000

  Atom        11          12          13          14          15          16          17          18          19          20
 IAtWgt=          12          12          12          12          12          12          12          12          12          12
 AtmWgt=  12.0000000  12.0000000  12.0000000  12.0000000  12.0000000  12.0000000  12.0000000  12.0000000  12.0000000  12.0000000
 NucSpn=           0           0           0           0           0           0           0           0           0           0
 AtZEff=  -0.0000000  -0.0000000  -0.0000000  -0.0000000  -0.0000000  -0.0000000  -0.0000000  -0.0000000  -0.0000000  -0.0000000
 NQMom=    0.0000000   0.0000000   0.0000000   0.0000000   0.0000000   0.0000000   0.0000000   0.0000000   0.0000000   0.0000000
 NMagM=    0.0000000   0.0000000   0.0000000   0.0000000   0.0000000   0.0000000   0.0000000   0.0000000   0.0000000   0.0000000
 AtZNuc=   6.0000000   6.0000000   6.0000000   6.0000000   6.0000000   6.0000000   6.0000000   6.0000000   6.0000000   6.0000000

  Atom        21          22          23          24          25          26          27          28          29          30
 IAtWgt=          12          12          12          12          12          12          12          12          12          12
 AtmWgt=  12.0000000  12.0000000  12.0000000  12.0000000  12.0000000  12.0000000  12.0000000  12.0000000  12.0000000  12.0000000
 NucSpn=           0           0           0           0           0           0           0           0           0           0
 AtZEff=  -0.0000000  -0.0000000  -0.0000000  -0.0000000  -0.0000000  -0.0000000  -0.0000000  -0.0000000  -0.0000000  -0.0000000
 NQMom=    0.0000000   0.0000000   0.0000000   0.0000000   0.0000000   0.0000000   0.0000000   0.0000000   0.0000000   0.0000000
 NMagM=    0.0000000   0.0000000   0.0000000   0.0000000   0.0000000   0.0000000   0.0000000   0.0000000   0.0000000   0.0000000
 AtZNuc=   6.0000000   6.0000000   6.0000000   6.0000000   6.0000000   6.0000000   6.0000000   6.0000000   6.0000000   6.0000000

  Atom        31          32          33          34          35          36          37          38          39          40
 IAtWgt=          12          12          12          12          12          12          12          12          12          12
 AtmWgt=  12.0000000  12.0000000  12.0000000  12.0000000  12.0000000  12.0000000  12.0000000  12.0000000  12.0000000  12.0000000
 NucSpn=           0           0           0           0           0           0           0           0           0           0
 AtZEff=  -0.0000000  -0.0000000  -0.0000000  -0.0000000  -0.0000000  -0.0000000  -0.0000000  -0.0000000  -0.0000000  -0.0000000
 NQMom=    0.0000000   0.0000000   0.0000000   0.0000000   0.0000000   0.0000000   0.0000000   0.0000000   0.0000000   0.0000000
 NMagM=    0.0000000   0.0000000   0.0000000   0.0000000   0.0000000   0.0000000   0.0000000   0.0000000   0.0000000   0.0000000
 AtZNuc=   6.0000000   6.0000000   6.0000000   6.0000000   6.0000000   6.0000000   6.0000000   6.0000000   6.0000000   6.0000000

  Atom        41          42          43          44          45          46          47          48          49          50
 IAtWgt=          12          12          12          12          12          12          12          12          12          12
 AtmWgt=  12.0000000  12.0000000  12.0000000  12.0000000  12.0000000  12.0000000  12.0000000  12.0000000  12.0000000  12.0000000
 NucSpn=           0           0           0           0           0           0           0           0           0           0
 AtZEff=  -0.0000000  -0.0000000  -0.0000000  -0.0000000  -0.0000000  -0.0000000  -0.0000000  -0.0000000  -0.0000000  -0.0000000
 NQMom=    0.0000000   0.0000000   0.0000000   0.0000000   0.0000000   0.0000000   0.0000000   0.0000000   0.0000000   0.0000000
 NMagM=    0.0000000   0.0000000   0.0000000   0.0000000   0.0000000   0.0000000   0.0000000   0.0000000   0.0000000   0.0000000
 AtZNuc=   6.0000000   6.0000000   6.0000000   6.0000000   6.0000000   6.0000000   6.0000000   6.0000000   6.0000000   6.0000000

  Atom        51          52          53          54          55          56          57          58          59          60
 IAtWgt=          12          12          12          12          12          12          12          12          12          12
 AtmWgt=  12.0000000  12.0000000  12.0000000  12.0000000  12.0000000  12.0000000  12.0000000  12.0000000  12.0000000  12.0000000
 NucSpn=           0           0           0           0           0           0           0           0           0           0
 AtZEff=  -0.0000000  -0.0000000  -0.0000000  -0.0000000  -0.0000000  -0.0000000  -0.0000000  -0.0000000  -0.0000000  -0.0000000
 NQMom=    0.0000000   0.0000000   0.0000000   0.0000000   0.0000000   0.0000000   0.0000000   0.0000000   0.0000000   0.0000000
 NMagM=    0.0000000   0.0000000   0.0000000   0.0000000   0.0000000   0.0000000   0.0000000   0.0000000   0.0000000   0.0000000
 AtZNuc=   6.0000000   6.0000000   6.0000000   6.0000000   6.0000000   6.0000000   6.0000000   6.0000000   6.0000000   6.0000000

  Atom        61          62          63          64          65          66          67          68          69          70
 IAtWgt=          12          12          12          12          12          12          35          35          35          35
 AtmWgt=  12.0000000  12.0000000  12.0000000  12.0000000  12.0000000  12.0000000  34.9688527  34.9688527  34.9688527  34.9688527
 NucSpn=           0           0           0           0           0           0           3           3           3           3
 AtZEff=  -0.0000000  -0.0000000  -0.0000000  -0.0000000  -0.0000000  -0.0000000  -0.0000000  -0.0000000  -0.0000000  -0.0000000
 NQMom=    0.0000000   0.0000000   0.0000000   0.0000000   0.0000000   0.0000000  -8.1650000  -8.1650000  -8.1650000  -8.1650000
 NMagM=    0.0000000   0.0000000   0.0000000   0.0000000   0.0000000   0.0000000   0.8218740   0.8218740   0.8218740   0.8218740
 AtZNuc=   6.0000000   6.0000000   6.0000000   6.0000000   6.0000000   6.0000000  17.0000000  17.0000000  17.0000000  17.0000000

  Atom        71          72          73          74          75
 IAtWgt=          35          35          35          35          35
 AtmWgt=  34.9688527  34.9688527  34.9688527  34.9688527  34.9688527
 NucSpn=           3           3           3           3           3
 AtZEff=  -0.0000000  -0.0000000  -0.0000000  -0.0000000  -0.0000000
 NQMom=   -8.1650000  -8.1650000  -8.1650000  -8.1650000  -8.1650000
 NMagM=    0.8218740   0.8218740   0.8218740   0.8218740   0.8218740
 AtZNuc=  17.0000000  17.0000000  17.0000000  17.0000000  17.0000000
 Leave Link  101 at Sat Jul 16 14:12:36 2022, MaxMem=  1342177280 cpu:              13.1 elap:               0.3
 (Enter /home/mkliu/g16/l103.exe)

 GradGradGradGradGradGradGradGradGradGradGradGradGradGradGradGradGradGrad
 Berny optimization.
 Initialization pass.
                           ----------------------------
                           !    Initial Parameters    !
                           ! (Angstroms and Degrees)  !
 --------------------------                            --------------------------
 ! Name  Definition              Value          Derivative Info.                !
 --------------------------------------------------------------------------------
 ! R1    R(1,2)                  1.5852         estimate D2E/DX2                !
 ! R2    R(1,4)                  1.4877         estimate D2E/DX2                !
 ! R3    R(1,7)                  1.5523         estimate D2E/DX2                !
 ! R4    R(1,67)                 1.7933         estimate D2E/DX2                !
 ! R5    R(2,3)                  1.582          estimate D2E/DX2                !
 ! R6    R(2,10)                 1.5649         estimate D2E/DX2                !
 ! R7    R(2,68)                 1.7751         estimate D2E/DX2                !
 ! R8    R(3,5)                  1.4818         estimate D2E/DX2                !
 ! R9    R(3,12)                 1.5035         estimate D2E/DX2                !
 ! R10   R(3,69)                 1.7735         estimate D2E/DX2                !
 ! R11   R(4,5)                  1.3661         estimate D2E/DX2                !
 ! R12   R(4,6)                  1.3819         estimate D2E/DX2                !
 ! R13   R(5,15)                 1.3818         estimate D2E/DX2                !
 ! R14   R(6,8)                  1.4219         estimate D2E/DX2                !
 ! R15   R(6,17)                 1.3962         estimate D2E/DX2                !
 ! R16   R(7,8)                  1.5308         estimate D2E/DX2                !
 ! R17   R(7,9)                  1.5125         estimate D2E/DX2                !
 ! R18   R(7,71)                 1.7934         estimate D2E/DX2                !
 ! R19   R(8,20)                 1.3641         estimate D2E/DX2                !
 ! R20   R(9,11)                 1.3942         estimate D2E/DX2                !
 ! R21   R(9,22)                 1.3866         estimate D2E/DX2                !
 ! R22   R(10,11)                1.5066         estimate D2E/DX2                !
 ! R23   R(10,13)                1.5068         estimate D2E/DX2                !
 ! R24   R(10,75)                1.816          estimate D2E/DX2                !
 ! R25   R(11,25)                1.4055         estimate D2E/DX2                !
 ! R26   R(12,13)                1.3679         estimate D2E/DX2                !
 ! R27   R(12,14)                1.3972         estimate D2E/DX2                !
 ! R28   R(13,27)                1.3877         estimate D2E/DX2                !
 ! R29   R(14,16)                1.5196         estimate D2E/DX2                !
 ! R30   R(14,29)                1.4056         estimate D2E/DX2                !
 ! R31   R(15,16)                1.5138         estimate D2E/DX2                !
 ! R32   R(15,18)                1.4028         estimate D2E/DX2                !
 ! R33   R(16,32)                1.5012         estimate D2E/DX2                !
 ! R34   R(16,70)                1.7916         estimate D2E/DX2                !
 ! R35   R(17,18)                1.4169         estimate D2E/DX2                !
 ! R36   R(17,19)                1.4366         estimate D2E/DX2                !
 ! R37   R(18,33)                1.4179         estimate D2E/DX2                !
 ! R38   R(19,21)                1.4415         estimate D2E/DX2                !
 ! R39   R(19,35)                1.4102         estimate D2E/DX2                !
 ! R40   R(20,21)                1.457          estimate D2E/DX2                !
 ! R41   R(20,23)                1.5043         estimate D2E/DX2                !
 ! R42   R(21,38)                1.4015         estimate D2E/DX2                !
 ! R43   R(22,23)                1.5217         estimate D2E/DX2                !
 ! R44   R(22,24)                1.4146         estimate D2E/DX2                !
 ! R45   R(23,40)                1.4925         estimate D2E/DX2                !
 ! R46   R(23,72)                1.8109         estimate D2E/DX2                !
 ! R47   R(24,26)                1.3787         estimate D2E/DX2                !
 ! R48   R(24,41)                1.4349         estimate D2E/DX2                !
 ! R49   R(25,26)                1.4228         estimate D2E/DX2                !
 ! R50   R(25,28)                1.4341         estimate D2E/DX2                !
 ! R51   R(26,44)                1.4323         estimate D2E/DX2                !
 ! R52   R(27,28)                1.4356         estimate D2E/DX2                !
 ! R53   R(27,30)                1.4071         estimate D2E/DX2                !
 ! R54   R(28,45)                1.424          estimate D2E/DX2                !
 ! R55   R(29,30)                1.3997         estimate D2E/DX2                !
 ! R56   R(29,31)                1.5213         estimate D2E/DX2                !
 ! R57   R(30,47)                1.5181         estimate D2E/DX2                !
 ! R58   R(31,34)                1.5061         estimate D2E/DX2                !
 ! R59   R(31,49)                1.5069         estimate D2E/DX2                !
 ! R60   R(31,73)                1.8034         estimate D2E/DX2                !
 ! R61   R(32,33)                1.427          estimate D2E/DX2                !
 ! R62   R(32,34)                1.3557         estimate D2E/DX2                !
 ! R63   R(33,36)                1.3713         estimate D2E/DX2                !
 ! R64   R(34,51)                1.4322         estimate D2E/DX2                !
 ! R65   R(35,36)                1.4429         estimate D2E/DX2                !
 ! R66   R(35,37)                1.42           estimate D2E/DX2                !
 ! R67   R(36,52)                1.4233         estimate D2E/DX2                !
 ! R68   R(37,39)                1.3834         estimate D2E/DX2                !
 ! R69   R(37,53)                1.4423         estimate D2E/DX2                !
 ! R70   R(38,39)                1.4246         estimate D2E/DX2                !
 ! R71   R(38,42)                1.4628         estimate D2E/DX2                !
 ! R72   R(39,57)                1.4391         estimate D2E/DX2                !
 ! R73   R(40,41)                1.4238         estimate D2E/DX2                !
 ! R74   R(40,42)                1.3623         estimate D2E/DX2                !
 ! R75   R(41,43)                1.3894         estimate D2E/DX2                !
 ! R76   R(42,58)                1.4374         estimate D2E/DX2                !
 ! R77   R(43,46)                1.4401         estimate D2E/DX2                !
 ! R78   R(43,59)                1.4258         estimate D2E/DX2                !
 ! R79   R(44,45)                1.4453         estimate D2E/DX2                !
 ! R80   R(44,46)                1.3772         estimate D2E/DX2                !
 ! R81   R(45,48)                1.3795         estimate D2E/DX2                !
 ! R82   R(46,61)                1.4374         estimate D2E/DX2                !
 ! R83   R(47,48)                1.5055         estimate D2E/DX2                !
 ! R84   R(47,50)                1.5016         estimate D2E/DX2                !
 ! R85   R(47,74)                1.8175         estimate D2E/DX2                !
 ! R86   R(48,62)                1.4155         estimate D2E/DX2                !
 ! R87   R(49,50)                1.3564         estimate D2E/DX2                !
 ! R88   R(49,54)                1.4331         estimate D2E/DX2                !
 ! R89   R(50,63)                1.4314         estimate D2E/DX2                !
 ! R90   R(51,52)                1.3866         estimate D2E/DX2                !
 ! R91   R(51,54)                1.4265         estimate D2E/DX2                !
 ! R92   R(52,53)                1.4366         estimate D2E/DX2                !
 ! R93   R(53,55)                1.3763         estimate D2E/DX2                !
 ! R94   R(54,56)                1.3866         estimate D2E/DX2                !
 ! R95   R(55,56)                1.4372         estimate D2E/DX2                !
 ! R96   R(55,60)                1.4434         estimate D2E/DX2                !
 ! R97   R(56,64)                1.4231         estimate D2E/DX2                !
 ! R98   R(57,58)                1.4358         estimate D2E/DX2                !
 ! R99   R(57,60)                1.3836         estimate D2E/DX2                !
 ! R100  R(58,59)                1.3837         estimate D2E/DX2                !
 ! R101  R(59,65)                1.4439         estimate D2E/DX2                !
 ! R102  R(60,66)                1.4345         estimate D2E/DX2                !
 ! R103  R(61,62)                1.3953         estimate D2E/DX2                !
 ! R104  R(61,65)                1.4285         estimate D2E/DX2                !
 ! R105  R(62,63)                1.4339         estimate D2E/DX2                !
 ! R106  R(63,64)                1.379          estimate D2E/DX2                !
 ! R107  R(64,66)                1.4376         estimate D2E/DX2                !
 ! R108  R(65,66)                1.3848         estimate D2E/DX2                !
 ! A1    A(2,1,4)              103.5221         estimate D2E/DX2                !
 ! A2    A(2,1,7)              120.3622         estimate D2E/DX2                !
 ! A3    A(2,1,67)             111.0734         estimate D2E/DX2                !
 ! A4    A(4,1,7)              102.0839         estimate D2E/DX2                !
 ! A5    A(4,1,67)             106.6709         estimate D2E/DX2                !
 ! A6    A(7,1,67)             111.4805         estimate D2E/DX2                !
 ! A7    A(1,2,3)              104.0014         estimate D2E/DX2                !
 ! A8    A(1,2,10)             116.6188         estimate D2E/DX2                !
 ! A9    A(1,2,68)             109.6928         estimate D2E/DX2                !
 ! A10   A(3,2,10)             103.6394         estimate D2E/DX2                !
 ! A11   A(3,2,68)             111.3107         estimate D2E/DX2                !
 ! A12   A(10,2,68)            111.1683         estimate D2E/DX2                !
 ! A13   A(2,3,5)              106.6541         estimate D2E/DX2                !
 ! A14   A(2,3,12)             106.8231         estimate D2E/DX2                !
 ! A15   A(2,3,69)             115.8473         estimate D2E/DX2                !
 ! A16   A(5,3,12)             100.6455         estimate D2E/DX2                !
 ! A17   A(5,3,69)             114.4721         estimate D2E/DX2                !
 ! A18   A(12,3,69)            111.0702         estimate D2E/DX2                !
 ! A19   A(1,4,5)              114.2968         estimate D2E/DX2                !
 ! A20   A(1,4,6)              113.9658         estimate D2E/DX2                !
 ! A21   A(5,4,6)              122.8913         estimate D2E/DX2                !
 ! A22   A(3,5,4)              110.0201         estimate D2E/DX2                !
 ! A23   A(3,5,15)             123.08           estimate D2E/DX2                !
 ! A24   A(4,5,15)             117.3424         estimate D2E/DX2                !
 ! A25   A(4,6,8)              108.9022         estimate D2E/DX2                !
 ! A26   A(4,6,17)             120.8828         estimate D2E/DX2                !
 ! A27   A(8,6,17)             123.3792         estimate D2E/DX2                !
 ! A28   A(1,7,8)              105.4441         estimate D2E/DX2                !
 ! A29   A(1,7,9)              116.8127         estimate D2E/DX2                !
 ! A30   A(1,7,71)             113.1542         estimate D2E/DX2                !
 ! A31   A(8,7,9)              102.1671         estimate D2E/DX2                !
 ! A32   A(8,7,71)             112.2853         estimate D2E/DX2                !
 ! A33   A(9,7,71)             106.5508         estimate D2E/DX2                !
 ! A34   A(6,8,7)              108.6743         estimate D2E/DX2                !
 ! A35   A(6,8,20)             119.1911         estimate D2E/DX2                !
 ! A36   A(7,8,20)             126.6568         estimate D2E/DX2                !
 ! A37   A(7,9,11)             122.6357         estimate D2E/DX2                !
 ! A38   A(7,9,22)             116.6692         estimate D2E/DX2                !
 ! A39   A(11,9,22)            119.6008         estimate D2E/DX2                !
 ! A40   A(2,10,11)            117.3947         estimate D2E/DX2                !
 ! A41   A(2,10,13)            105.6479         estimate D2E/DX2                !
 ! A42   A(2,10,75)            112.2132         estimate D2E/DX2                !
 ! A43   A(11,10,13)           104.4486         estimate D2E/DX2                !
 ! A44   A(11,10,75)           107.6083         estimate D2E/DX2                !
 ! A45   A(13,10,75)           109.0019         estimate D2E/DX2                !
 ! A46   A(9,11,10)            125.259          estimate D2E/DX2                !
 ! A47   A(9,11,25)            118.803          estimate D2E/DX2                !
 ! A48   A(10,11,25)           113.3654         estimate D2E/DX2                !
 ! A49   A(3,12,13)            109.7899         estimate D2E/DX2                !
 ! A50   A(3,12,14)            126.6559         estimate D2E/DX2                !
 ! A51   A(13,12,14)           121.356          estimate D2E/DX2                !
 ! A52   A(10,13,12)           113.0892         estimate D2E/DX2                !
 ! A53   A(10,13,27)           124.9935         estimate D2E/DX2                !
 ! A54   A(12,13,27)           120.0085         estimate D2E/DX2                !
 ! A55   A(12,14,16)           117.89           estimate D2E/DX2                !
 ! A56   A(12,14,29)           119.0922         estimate D2E/DX2                !
 ! A57   A(16,14,29)           121.3047         estimate D2E/DX2                !
 ! A58   A(5,15,16)            122.8496         estimate D2E/DX2                !
 ! A59   A(5,15,18)            119.8124         estimate D2E/DX2                !
 ! A60   A(16,15,18)           109.9235         estimate D2E/DX2                !
 ! A61   A(14,16,15)           103.5861         estimate D2E/DX2                !
 ! A62   A(14,16,32)           108.6135         estimate D2E/DX2                !
 ! A63   A(14,16,70)           111.7175         estimate D2E/DX2                !
 ! A64   A(15,16,32)           101.6894         estimate D2E/DX2                !
 ! A65   A(15,16,70)           116.4028         estimate D2E/DX2                !
 ! A66   A(32,16,70)           113.8491         estimate D2E/DX2                !
 ! A67   A(6,17,18)            114.9577         estimate D2E/DX2                !
 ! A68   A(6,17,19)            117.7011         estimate D2E/DX2                !
 ! A69   A(18,17,19)           121.1243         estimate D2E/DX2                !
 ! A70   A(15,18,17)           122.3449         estimate D2E/DX2                !
 ! A71   A(15,18,33)           109.3523         estimate D2E/DX2                !
 ! A72   A(17,18,33)           120.5343         estimate D2E/DX2                !
 ! A73   A(17,19,21)           119.3931         estimate D2E/DX2                !
 ! A74   A(17,19,35)           116.0404         estimate D2E/DX2                !
 ! A75   A(21,19,35)           119.8478         estimate D2E/DX2                !
 ! A76   A(8,20,21)            120.3989         estimate D2E/DX2                !
 ! A77   A(8,20,23)            117.1684         estimate D2E/DX2                !
 ! A78   A(21,20,23)           120.4028         estimate D2E/DX2                !
 ! A79   A(19,21,20)           119.1419         estimate D2E/DX2                !
 ! A80   A(19,21,38)           117.6056         estimate D2E/DX2                !
 ! A81   A(20,21,38)           119.0915         estimate D2E/DX2                !
 ! A82   A(9,22,23)            124.7864         estimate D2E/DX2                !
 ! A83   A(9,22,24)            121.1555         estimate D2E/DX2                !
 ! A84   A(23,22,24)           108.7674         estimate D2E/DX2                !
 ! A85   A(20,23,22)           106.0942         estimate D2E/DX2                !
 ! A86   A(20,23,40)           113.7933         estimate D2E/DX2                !
 ! A87   A(20,23,72)           108.9146         estimate D2E/DX2                !
 ! A88   A(22,23,40)           101.5722         estimate D2E/DX2                !
 ! A89   A(22,23,72)           114.7265         estimate D2E/DX2                !
 ! A90   A(40,23,72)           111.5969         estimate D2E/DX2                !
 ! A91   A(22,24,26)           120.3345         estimate D2E/DX2                !
 ! A92   A(22,24,41)           110.2225         estimate D2E/DX2                !
 ! A93   A(26,24,41)           119.9143         estimate D2E/DX2                !
 ! A94   A(11,25,26)           121.5955         estimate D2E/DX2                !
 ! A95   A(11,25,28)           122.9604         estimate D2E/DX2                !
 ! A96   A(26,25,28)           106.6603         estimate D2E/DX2                !
 ! A97   A(24,26,25)           117.7826         estimate D2E/DX2                !
 ! A98   A(24,26,44)           120.7194         estimate D2E/DX2                !
 ! A99   A(25,26,44)           108.7668         estimate D2E/DX2                !
 ! A100  A(13,27,28)           115.0863         estimate D2E/DX2                !
 ! A101  A(13,27,30)           119.0947         estimate D2E/DX2                !
 ! A102  A(28,27,30)           123.1198         estimate D2E/DX2                !
 ! A103  A(25,28,27)           115.9139         estimate D2E/DX2                !
 ! A104  A(25,28,45)           110.0312         estimate D2E/DX2                !
 ! A105  A(27,28,45)           118.813          estimate D2E/DX2                !
 ! A106  A(14,29,30)           118.6016         estimate D2E/DX2                !
 ! A107  A(14,29,31)           120.1263         estimate D2E/DX2                !
 ! A108  A(30,29,31)           120.5364         estimate D2E/DX2                !
 ! A109  A(27,30,29)           120.7271         estimate D2E/DX2                !
 ! A110  A(27,30,47)           116.7571         estimate D2E/DX2                !
 ! A111  A(29,30,47)           121.6512         estimate D2E/DX2                !
 ! A112  A(29,31,34)           108.9656         estimate D2E/DX2                !
 ! A113  A(29,31,49)           111.0307         estimate D2E/DX2                !
 ! A114  A(29,31,73)           107.7361         estimate D2E/DX2                !
 ! A115  A(34,31,49)           101.1077         estimate D2E/DX2                !
 ! A116  A(34,31,73)           114.3989         estimate D2E/DX2                !
 ! A117  A(49,31,73)           113.4909         estimate D2E/DX2                !
 ! A118  A(16,32,33)           109.9663         estimate D2E/DX2                !
 ! A119  A(16,32,34)           123.115          estimate D2E/DX2                !
 ! A120  A(33,32,34)           117.9106         estimate D2E/DX2                !
 ! A121  A(18,33,32)           108.03           estimate D2E/DX2                !
 ! A122  A(18,33,36)           118.616          estimate D2E/DX2                !
 ! A123  A(32,33,36)           123.2749         estimate D2E/DX2                !
 ! A124  A(31,34,32)           121.5057         estimate D2E/DX2                !
 ! A125  A(31,34,51)           111.0392         estimate D2E/DX2                !
 ! A126  A(32,34,51)           119.5912         estimate D2E/DX2                !
 ! A127  A(19,35,36)           120.9922         estimate D2E/DX2                !
 ! A128  A(19,35,37)           121.113          estimate D2E/DX2                !
 ! A129  A(36,35,37)           107.5625         estimate D2E/DX2                !
 ! A130  A(33,36,35)           121.1474         estimate D2E/DX2                !
 ! A131  A(33,36,52)           118.144          estimate D2E/DX2                !
 ! A132  A(35,36,52)           109.1743         estimate D2E/DX2                !
 ! A133  A(35,37,39)           119.06           estimate D2E/DX2                !
 ! A134  A(35,37,53)           107.3424         estimate D2E/DX2                !
 ! A135  A(39,37,53)           121.6602         estimate D2E/DX2                !
 ! A136  A(21,38,39)           121.6897         estimate D2E/DX2                !
 ! A137  A(21,38,42)           120.8269         estimate D2E/DX2                !
 ! A138  A(39,38,42)           106.8808         estimate D2E/DX2                !
 ! A139  A(37,39,38)           120.3763         estimate D2E/DX2                !
 ! A140  A(37,39,57)           119.1309         estimate D2E/DX2                !
 ! A141  A(38,39,57)           109.3574         estimate D2E/DX2                !
 ! A142  A(23,40,41)           111.1177         estimate D2E/DX2                !
 ! A143  A(23,40,42)           121.8526         estimate D2E/DX2                !
 ! A144  A(41,40,42)           119.159          estimate D2E/DX2                !
 ! A145  A(24,41,40)           106.752          estimate D2E/DX2                !
 ! A146  A(24,41,43)           119.5501         estimate D2E/DX2                !
 ! A147  A(40,41,43)           121.1341         estimate D2E/DX2                !
 ! A148  A(38,42,40)           120.2003         estimate D2E/DX2                !
 ! A149  A(38,42,58)           107.5803         estimate D2E/DX2                !
 ! A150  A(40,42,58)           120.3112         estimate D2E/DX2                !
 ! A151  A(41,43,46)           120.0004         estimate D2E/DX2                !
 ! A152  A(41,43,59)           119.6195         estimate D2E/DX2                !
 ! A153  A(46,43,59)           107.8949         estimate D2E/DX2                !
 ! A154  A(26,44,45)           108.1847         estimate D2E/DX2                !
 ! A155  A(26,44,46)           119.5741         estimate D2E/DX2                !
 ! A156  A(45,44,46)           119.9319         estimate D2E/DX2                !
 ! A157  A(28,45,44)           106.2808         estimate D2E/DX2                !
 ! A158  A(28,45,48)           119.7167         estimate D2E/DX2                !
 ! A159  A(44,45,48)           121.5881         estimate D2E/DX2                !
 ! A160  A(43,46,44)           120.1584         estimate D2E/DX2                !
 ! A161  A(43,46,61)           108.7235         estimate D2E/DX2                !
 ! A162  A(44,46,61)           119.0274         estimate D2E/DX2                !
 ! A163  A(30,47,48)           112.251          estimate D2E/DX2                !
 ! A164  A(30,47,50)           110.4384         estimate D2E/DX2                !
 ! A165  A(30,47,74)           106.164          estimate D2E/DX2                !
 ! A166  A(48,47,50)           101.2073         estimate D2E/DX2                !
 ! A167  A(48,47,74)           113.7981         estimate D2E/DX2                !
 ! A168  A(50,47,74)           113.1007         estimate D2E/DX2                !
 ! A169  A(45,48,47)           122.7631         estimate D2E/DX2                !
 ! A170  A(45,48,62)           117.8135         estimate D2E/DX2                !
 ! A171  A(47,48,62)           111.6844         estimate D2E/DX2                !
 ! A172  A(31,49,50)           122.4021         estimate D2E/DX2                !
 ! A173  A(31,49,54)           110.8476         estimate D2E/DX2                !
 ! A174  A(50,49,54)           119.1322         estimate D2E/DX2                !
 ! A175  A(47,50,49)           122.4784         estimate D2E/DX2                !
 ! A176  A(47,50,63)           110.3612         estimate D2E/DX2                !
 ! A177  A(49,50,63)           119.8931         estimate D2E/DX2                !
 ! A178  A(34,51,52)           121.4583         estimate D2E/DX2                !
 ! A179  A(34,51,54)           108.2868         estimate D2E/DX2                !
 ! A180  A(52,51,54)           119.0806         estimate D2E/DX2                !
 ! A181  A(36,52,51)           118.5869         estimate D2E/DX2                !
 ! A182  A(36,52,53)           106.3567         estimate D2E/DX2                !
 ! A183  A(51,52,53)           121.3701         estimate D2E/DX2                !
 ! A184  A(37,53,52)           109.0897         estimate D2E/DX2                !
 ! A185  A(37,53,55)           118.8981         estimate D2E/DX2                !
 ! A186  A(52,53,55)           119.5017         estimate D2E/DX2                !
 ! A187  A(49,54,51)           108.267          estimate D2E/DX2                !
 ! A188  A(49,54,56)           121.0867         estimate D2E/DX2                !
 ! A189  A(51,54,56)           119.3914         estimate D2E/DX2                !
 ! A190  A(53,55,56)           118.9941         estimate D2E/DX2                !
 ! A191  A(53,55,60)           119.6307         estimate D2E/DX2                !
 ! A192  A(56,55,60)           109.1831         estimate D2E/DX2                !
 ! A193  A(54,56,55)           121.4438         estimate D2E/DX2                !
 ! A194  A(54,56,64)           119.6432         estimate D2E/DX2                !
 ! A195  A(55,56,64)           107.1572         estimate D2E/DX2                !
 ! A196  A(39,57,58)           107.3371         estimate D2E/DX2                !
 ! A197  A(39,57,60)           119.1438         estimate D2E/DX2                !
 ! A198  A(58,57,60)           120.3203         estimate D2E/DX2                !
 ! A199  A(42,58,57)           108.4294         estimate D2E/DX2                !
 ! A200  A(42,58,59)           120.555          estimate D2E/DX2                !
 ! A201  A(57,58,59)           119.3027         estimate D2E/DX2                !
 ! A202  A(43,59,58)           119.0134         estimate D2E/DX2                !
 ! A203  A(43,59,65)           107.4445         estimate D2E/DX2                !
 ! A204  A(58,59,65)           120.6042         estimate D2E/DX2                !
 ! A205  A(55,60,57)           121.2396         estimate D2E/DX2                !
 ! A206  A(55,60,66)           106.4652         estimate D2E/DX2                !
 ! A207  A(57,60,66)           120.1849         estimate D2E/DX2                !
 ! A208  A(46,61,62)           119.7034         estimate D2E/DX2                !
 ! A209  A(46,61,65)           106.8289         estimate D2E/DX2                !
 ! A210  A(62,61,65)           120.3399         estimate D2E/DX2                !
 ! A211  A(48,62,61)           121.8586         estimate D2E/DX2                !
 ! A212  A(48,62,63)           107.6316         estimate D2E/DX2                !
 ! A213  A(61,62,63)           119.9948         estimate D2E/DX2                !
 ! A214  A(50,63,62)           108.7956         estimate D2E/DX2                !
 ! A215  A(50,63,64)           121.6082         estimate D2E/DX2                !
 ! A216  A(62,63,64)           119.0531         estimate D2E/DX2                !
 ! A217  A(56,64,63)           118.5393         estimate D2E/DX2                !
 ! A218  A(56,64,66)           108.577          estimate D2E/DX2                !
 ! A219  A(63,64,66)           121.2105         estimate D2E/DX2                !
 ! A220  A(59,65,61)           109.0772         estimate D2E/DX2                !
 ! A221  A(59,65,66)           119.4416         estimate D2E/DX2                !
 ! A222  A(61,65,66)           119.7314         estimate D2E/DX2                !
 ! A223  A(60,66,64)           108.5271         estimate D2E/DX2                !
 ! A224  A(60,66,65)           119.9909         estimate D2E/DX2                !
 ! A225  A(64,66,65)           119.4978         estimate D2E/DX2                !
 ! D1    D(4,1,2,3)             10.7049         estimate D2E/DX2                !
 ! D2    D(4,1,2,10)          -102.6741         estimate D2E/DX2                !
 ! D3    D(4,1,2,68)           129.8529         estimate D2E/DX2                !
 ! D4    D(7,1,2,3)            123.6853         estimate D2E/DX2                !
 ! D5    D(7,1,2,10)            10.3062         estimate D2E/DX2                !
 ! D6    D(7,1,2,68)          -117.1668         estimate D2E/DX2                !
 ! D7    D(67,1,2,3)          -103.4288         estimate D2E/DX2                !
 ! D8    D(67,1,2,10)          143.1921         estimate D2E/DX2                !
 ! D9    D(67,1,2,68)           15.7191         estimate D2E/DX2                !
 ! D10   D(2,1,4,5)            -12.8382         estimate D2E/DX2                !
 ! D11   D(2,1,4,6)            135.6695         estimate D2E/DX2                !
 ! D12   D(7,1,4,5)           -138.5099         estimate D2E/DX2                !
 ! D13   D(7,1,4,6)              9.9978         estimate D2E/DX2                !
 ! D14   D(67,1,4,5)           104.4237         estimate D2E/DX2                !
 ! D15   D(67,1,4,6)          -107.0687         estimate D2E/DX2                !
 ! D16   D(2,1,7,8)           -122.0223         estimate D2E/DX2                !
 ! D17   D(2,1,7,9)             -9.4015         estimate D2E/DX2                !
 ! D18   D(2,1,7,71)           114.8818         estimate D2E/DX2                !
 ! D19   D(4,1,7,8)             -8.2852         estimate D2E/DX2                !
 ! D20   D(4,1,7,9)            104.3357         estimate D2E/DX2                !
 ! D21   D(4,1,7,71)          -131.381          estimate D2E/DX2                !
 ! D22   D(67,1,7,8)           105.2629         estimate D2E/DX2                !
 ! D23   D(67,1,7,9)          -142.1162         estimate D2E/DX2                !
 ! D24   D(67,1,7,71)          -17.8329         estimate D2E/DX2                !
 ! D25   D(1,2,3,5)             -6.1088         estimate D2E/DX2                !
 ! D26   D(1,2,3,12)          -113.0799         estimate D2E/DX2                !
 ! D27   D(1,2,3,69)           122.6003         estimate D2E/DX2                !
 ! D28   D(10,2,3,5)           116.2811         estimate D2E/DX2                !
 ! D29   D(10,2,3,12)            9.31           estimate D2E/DX2                !
 ! D30   D(10,2,3,69)         -115.0098         estimate D2E/DX2                !
 ! D31   D(68,2,3,5)          -124.1468         estimate D2E/DX2                !
 ! D32   D(68,2,3,12)          128.8822         estimate D2E/DX2                !
 ! D33   D(68,2,3,69)            4.5624         estimate D2E/DX2                !
 ! D34   D(1,2,10,11)           -7.7974         estimate D2E/DX2                !
 ! D35   D(1,2,10,13)          108.1154         estimate D2E/DX2                !
 ! D36   D(1,2,10,75)         -133.2238         estimate D2E/DX2                !
 ! D37   D(3,2,10,11)         -121.3815         estimate D2E/DX2                !
 ! D38   D(3,2,10,13)           -5.4686         estimate D2E/DX2                !
 ! D39   D(3,2,10,75)          113.1921         estimate D2E/DX2                !
 ! D40   D(68,2,10,11)         118.949          estimate D2E/DX2                !
 ! D41   D(68,2,10,13)        -125.1381         estimate D2E/DX2                !
 ! D42   D(68,2,10,75)          -6.4774         estimate D2E/DX2                !
 ! D43   D(2,3,5,4)             -1.3822         estimate D2E/DX2                !
 ! D44   D(2,3,5,15)          -146.5431         estimate D2E/DX2                !
 ! D45   D(12,3,5,4)           109.9399         estimate D2E/DX2                !
 ! D46   D(12,3,5,15)          -35.2211         estimate D2E/DX2                !
 ! D47   D(69,3,5,4)          -130.886          estimate D2E/DX2                !
 ! D48   D(69,3,5,15)           83.953          estimate D2E/DX2                !
 ! D49   D(2,3,12,13)          -10.2294         estimate D2E/DX2                !
 ! D50   D(2,3,12,14)          152.9305         estimate D2E/DX2                !
 ! D51   D(5,3,12,13)         -121.4207         estimate D2E/DX2                !
 ! D52   D(5,3,12,14)           41.7392         estimate D2E/DX2                !
 ! D53   D(69,3,12,13)         116.9701         estimate D2E/DX2                !
 ! D54   D(69,3,12,14)         -79.87           estimate D2E/DX2                !
 ! D55   D(1,4,5,3)              9.3217         estimate D2E/DX2                !
 ! D56   D(1,4,5,15)           156.7143         estimate D2E/DX2                !
 ! D57   D(6,4,5,3)           -136.0344         estimate D2E/DX2                !
 ! D58   D(6,4,5,15)            11.3582         estimate D2E/DX2                !
 ! D59   D(1,4,6,8)             -7.5349         estimate D2E/DX2                !
 ! D60   D(1,4,6,17)          -159.4687         estimate D2E/DX2                !
 ! D61   D(5,4,6,8)            137.9236         estimate D2E/DX2                !
 ! D62   D(5,4,6,17)           -14.0103         estimate D2E/DX2                !
 ! D63   D(3,5,15,16)           -3.6416         estimate D2E/DX2                !
 ! D64   D(3,5,15,18)          143.2318         estimate D2E/DX2                !
 ! D65   D(4,5,15,16)         -146.4658         estimate D2E/DX2                !
 ! D66   D(4,5,15,18)            0.4076         estimate D2E/DX2                !
 ! D67   D(4,6,8,7)              1.4056         estimate D2E/DX2                !
 ! D68   D(4,6,8,20)          -154.1967         estimate D2E/DX2                !
 ! D69   D(17,6,8,7)           152.4884         estimate D2E/DX2                !
 ! D70   D(17,6,8,20)           -3.114          estimate D2E/DX2                !
 ! D71   D(4,6,17,18)            4.1957         estimate D2E/DX2                !
 ! D72   D(4,6,17,19)          156.856          estimate D2E/DX2                !
 ! D73   D(8,6,17,18)         -143.5929         estimate D2E/DX2                !
 ! D74   D(8,6,17,19)            9.0675         estimate D2E/DX2                !
 ! D75   D(1,7,8,6)              4.6541         estimate D2E/DX2                !
 ! D76   D(1,7,8,20)           157.9419         estimate D2E/DX2                !
 ! D77   D(9,7,8,6)           -117.9134         estimate D2E/DX2                !
 ! D78   D(9,7,8,20)            35.3744         estimate D2E/DX2                !
 ! D79   D(71,7,8,6)           128.3022         estimate D2E/DX2                !
 ! D80   D(71,7,8,20)          -78.4099         estimate D2E/DX2                !
 ! D81   D(1,7,9,11)             6.3066         estimate D2E/DX2                !
 ! D82   D(1,7,9,22)          -161.6678         estimate D2E/DX2                !
 ! D83   D(8,7,9,11)           120.7757         estimate D2E/DX2                !
 ! D84   D(8,7,9,22)           -47.1986         estimate D2E/DX2                !
 ! D85   D(71,7,9,11)         -121.2696         estimate D2E/DX2                !
 ! D86   D(71,7,9,22)           70.7561         estimate D2E/DX2                !
 ! D87   D(6,8,20,21)           -5.0512         estimate D2E/DX2                !
 ! D88   D(6,8,20,23)          158.8121         estimate D2E/DX2                !
 ! D89   D(7,8,20,21)         -155.8555         estimate D2E/DX2                !
 ! D90   D(7,8,20,23)            8.0078         estimate D2E/DX2                !
 ! D91   D(7,9,11,10)           -4.3678         estimate D2E/DX2                !
 ! D92   D(7,9,11,25)         -164.9249         estimate D2E/DX2                !
 ! D93   D(22,9,11,10)         163.2676         estimate D2E/DX2                !
 ! D94   D(22,9,11,25)           2.7106         estimate D2E/DX2                !
 ! D95   D(7,9,22,23)           20.7337         estimate D2E/DX2                !
 ! D96   D(7,9,22,24)          172.1031         estimate D2E/DX2                !
 ! D97   D(11,9,22,23)        -147.6246         estimate D2E/DX2                !
 ! D98   D(11,9,22,24)           3.7448         estimate D2E/DX2                !
 ! D99   D(2,10,11,9)            5.1264         estimate D2E/DX2                !
 ! D100  D(2,10,11,25)         166.6            estimate D2E/DX2                !
 ! D101  D(13,10,11,9)        -111.4406         estimate D2E/DX2                !
 ! D102  D(13,10,11,25)         50.033          estimate D2E/DX2                !
 ! D103  D(75,10,11,9)         132.8036         estimate D2E/DX2                !
 ! D104  D(75,10,11,25)        -65.7229         estimate D2E/DX2                !
 ! D105  D(2,10,13,12)          -0.5933         estimate D2E/DX2                !
 ! D106  D(2,10,13,27)        -164.7672         estimate D2E/DX2                !
 ! D107  D(11,10,13,12)        123.8511         estimate D2E/DX2                !
 ! D108  D(11,10,13,27)        -40.3228         estimate D2E/DX2                !
 ! D109  D(75,10,13,12)       -121.3698         estimate D2E/DX2                !
 ! D110  D(75,10,13,27)         74.4563         estimate D2E/DX2                !
 ! D111  D(9,11,25,26)          -9.2059         estimate D2E/DX2                !
 ! D112  D(9,11,25,28)         133.9243         estimate D2E/DX2                !
 ! D113  D(10,11,25,26)       -171.9834         estimate D2E/DX2                !
 ! D114  D(10,11,25,28)        -28.8531         estimate D2E/DX2                !
 ! D115  D(3,12,13,10)           6.9061         estimate D2E/DX2                !
 ! D116  D(3,12,13,27)         171.9547         estimate D2E/DX2                !
 ! D117  D(14,12,13,10)       -157.3012         estimate D2E/DX2                !
 ! D118  D(14,12,13,27)          7.7474         estimate D2E/DX2                !
 ! D119  D(3,12,14,16)          -7.1866         estimate D2E/DX2                !
 ! D120  D(3,12,14,29)        -172.4779         estimate D2E/DX2                !
 ! D121  D(13,12,14,16)        154.1981         estimate D2E/DX2                !
 ! D122  D(13,12,14,29)        -11.0933         estimate D2E/DX2                !
 ! D123  D(10,13,27,28)          3.1767         estimate D2E/DX2                !
 ! D124  D(10,13,27,30)        165.1527         estimate D2E/DX2                !
 ! D125  D(12,13,27,28)       -159.9829         estimate D2E/DX2                !
 ! D126  D(12,13,27,30)          1.9932         estimate D2E/DX2                !
 ! D127  D(12,14,16,15)        -33.3105         estimate D2E/DX2                !
 ! D128  D(12,14,16,32)       -140.8484         estimate D2E/DX2                !
 ! D129  D(12,14,16,70)         92.7536         estimate D2E/DX2                !
 ! D130  D(29,14,16,15)        131.6387         estimate D2E/DX2                !
 ! D131  D(29,14,16,32)         24.1008         estimate D2E/DX2                !
 ! D132  D(29,14,16,70)       -102.2972         estimate D2E/DX2                !
 ! D133  D(12,14,29,30)          4.5893         estimate D2E/DX2                !
 ! D134  D(12,14,29,31)        174.8173         estimate D2E/DX2                !
 ! D135  D(16,14,29,30)       -160.1834         estimate D2E/DX2                !
 ! D136  D(16,14,29,31)         10.0446         estimate D2E/DX2                !
 ! D137  D(5,15,16,14)          39.7919         estimate D2E/DX2                !
 ! D138  D(5,15,16,32)         152.4559         estimate D2E/DX2                !
 ! D139  D(5,15,16,70)         -83.2324         estimate D2E/DX2                !
 ! D140  D(18,15,16,14)       -109.9196         estimate D2E/DX2                !
 ! D141  D(18,15,16,32)          2.7443         estimate D2E/DX2                !
 ! D142  D(18,15,16,70)        127.056          estimate D2E/DX2                !
 ! D143  D(5,15,18,17)          -9.8359         estimate D2E/DX2                !
 ! D144  D(5,15,18,33)        -159.1287         estimate D2E/DX2                !
 ! D145  D(16,15,18,17)        140.9331         estimate D2E/DX2                !
 ! D146  D(16,15,18,33)         -8.3598         estimate D2E/DX2                !
 ! D147  D(14,16,32,33)        112.6109         estimate D2E/DX2                !
 ! D148  D(14,16,32,34)        -33.6502         estimate D2E/DX2                !
 ! D149  D(15,16,32,33)          3.7783         estimate D2E/DX2                !
 ! D150  D(15,16,32,34)       -142.4827         estimate D2E/DX2                !
 ! D151  D(70,16,32,33)       -122.2337         estimate D2E/DX2                !
 ! D152  D(70,16,32,34)         91.5053         estimate D2E/DX2                !
 ! D153  D(6,17,18,15)           7.3077         estimate D2E/DX2                !
 ! D154  D(6,17,18,33)         153.2956         estimate D2E/DX2                !
 ! D155  D(19,17,18,15)       -144.3327         estimate D2E/DX2                !
 ! D156  D(19,17,18,33)          1.6552         estimate D2E/DX2                !
 ! D157  D(6,17,19,21)          -6.8173         estimate D2E/DX2                !
 ! D158  D(6,17,19,35)        -162.4625         estimate D2E/DX2                !
 ! D159  D(18,17,19,21)        144.0787         estimate D2E/DX2                !
 ! D160  D(18,17,19,35)        -11.5664         estimate D2E/DX2                !
 ! D161  D(15,18,33,32)         10.686          estimate D2E/DX2                !
 ! D162  D(15,18,33,36)        157.2876         estimate D2E/DX2                !
 ! D163  D(17,18,33,32)       -139.2559         estimate D2E/DX2                !
 ! D164  D(17,18,33,36)          7.3457         estimate D2E/DX2                !
 ! D165  D(17,19,21,20)         -0.7845         estimate D2E/DX2                !
 ! D166  D(17,19,21,38)       -157.6719         estimate D2E/DX2                !
 ! D167  D(35,19,21,20)        153.9261         estimate D2E/DX2                !
 ! D168  D(35,19,21,38)         -2.9612         estimate D2E/DX2                !
 ! D169  D(17,19,35,36)         12.924          estimate D2E/DX2                !
 ! D170  D(17,19,35,37)        153.609          estimate D2E/DX2                !
 ! D171  D(21,19,35,36)       -142.6038         estimate D2E/DX2                !
 ! D172  D(21,19,35,37)         -1.9188         estimate D2E/DX2                !
 ! D173  D(8,20,21,19)           6.8995         estimate D2E/DX2                !
 ! D174  D(8,20,21,38)         163.4419         estimate D2E/DX2                !
 ! D175  D(23,20,21,19)       -156.4407         estimate D2E/DX2                !
 ! D176  D(23,20,21,38)          0.1016         estimate D2E/DX2                !
 ! D177  D(8,20,23,22)         -37.5331         estimate D2E/DX2                !
 ! D178  D(8,20,23,40)        -148.3506         estimate D2E/DX2                !
 ! D179  D(8,20,23,72)          86.458          estimate D2E/DX2                !
 ! D180  D(21,20,23,22)        126.3295         estimate D2E/DX2                !
 ! D181  D(21,20,23,40)         15.512          estimate D2E/DX2                !
 ! D182  D(21,20,23,72)       -109.6793         estimate D2E/DX2                !
 ! D183  D(19,21,38,39)          6.1578         estimate D2E/DX2                !
 ! D184  D(19,21,38,42)        146.1381         estimate D2E/DX2                !
 ! D185  D(20,21,38,39)       -150.7415         estimate D2E/DX2                !
 ! D186  D(20,21,38,42)        -10.7612         estimate D2E/DX2                !
 ! D187  D(9,22,23,20)          24.4836         estimate D2E/DX2                !
 ! D188  D(9,22,23,40)         143.6722         estimate D2E/DX2                !
 ! D189  D(9,22,23,72)         -95.8016         estimate D2E/DX2                !
 ! D190  D(24,22,23,20)       -129.8536         estimate D2E/DX2                !
 ! D191  D(24,22,23,40)        -10.6649         estimate D2E/DX2                !
 ! D192  D(24,22,23,72)        109.8613         estimate D2E/DX2                !
 ! D193  D(9,22,24,26)          -3.903          estimate D2E/DX2                !
 ! D194  D(9,22,24,41)        -150.1383         estimate D2E/DX2                !
 ! D195  D(23,22,24,26)        151.5383         estimate D2E/DX2                !
 ! D196  D(23,22,24,41)          5.303          estimate D2E/DX2                !
 ! D197  D(20,23,40,41)        126.2629         estimate D2E/DX2                !
 ! D198  D(20,23,40,42)        -22.4826         estimate D2E/DX2                !
 ! D199  D(22,23,40,41)         12.7137         estimate D2E/DX2                !
 ! D200  D(22,23,40,42)       -136.0318         estimate D2E/DX2                !
 ! D201  D(72,23,40,41)       -109.9879         estimate D2E/DX2                !
 ! D202  D(72,23,40,42)        101.2666         estimate D2E/DX2                !
 ! D203  D(22,24,26,25)         -2.3843         estimate D2E/DX2                !
 ! D204  D(22,24,26,44)       -139.7807         estimate D2E/DX2                !
 ! D205  D(41,24,26,25)        140.625          estimate D2E/DX2                !
 ! D206  D(41,24,26,44)          3.2286         estimate D2E/DX2                !
 ! D207  D(22,24,41,40)          2.8314         estimate D2E/DX2                !
 ! D208  D(22,24,41,43)        145.1426         estimate D2E/DX2                !
 ! D209  D(26,24,41,40)       -143.5663         estimate D2E/DX2                !
 ! D210  D(26,24,41,43)         -1.2551         estimate D2E/DX2                !
 ! D211  D(11,25,26,24)          8.9893         estimate D2E/DX2                !
 ! D212  D(11,25,26,44)        151.0657         estimate D2E/DX2                !
 ! D213  D(28,25,26,24)       -139.3097         estimate D2E/DX2                !
 ! D214  D(28,25,26,44)          2.7666         estimate D2E/DX2                !
 ! D215  D(11,25,28,27)        -12.0406         estimate D2E/DX2                !
 ! D216  D(11,25,28,45)       -150.4127         estimate D2E/DX2                !
 ! D217  D(26,25,28,27)        135.7203         estimate D2E/DX2                !
 ! D218  D(26,25,28,45)         -2.6518         estimate D2E/DX2                !
 ! D219  D(24,26,44,45)        138.8635         estimate D2E/DX2                !
 ! D220  D(24,26,44,46)         -3.3487         estimate D2E/DX2                !
 ! D221  D(25,26,44,45)         -1.9005         estimate D2E/DX2                !
 ! D222  D(25,26,44,46)       -144.1127         estimate D2E/DX2                !
 ! D223  D(13,27,28,25)         24.902          estimate D2E/DX2                !
 ! D224  D(13,27,28,45)        159.4806         estimate D2E/DX2                !
 ! D225  D(30,27,28,25)       -136.2644         estimate D2E/DX2                !
 ! D226  D(30,27,28,45)         -1.6858         estimate D2E/DX2                !
 ! D227  D(13,27,30,29)         -8.3455         estimate D2E/DX2                !
 ! D228  D(13,27,30,47)       -177.8733         estimate D2E/DX2                !
 ! D229  D(28,27,30,29)        152.107          estimate D2E/DX2                !
 ! D230  D(28,27,30,47)        -17.4209         estimate D2E/DX2                !
 ! D231  D(25,28,45,44)          1.4898         estimate D2E/DX2                !
 ! D232  D(25,28,45,48)        144.1473         estimate D2E/DX2                !
 ! D233  D(27,28,45,44)       -135.5163         estimate D2E/DX2                !
 ! D234  D(27,28,45,48)          7.1412         estimate D2E/DX2                !
 ! D235  D(14,29,30,27)          4.9502         estimate D2E/DX2                !
 ! D236  D(14,29,30,47)        173.9593         estimate D2E/DX2                !
 ! D237  D(31,29,30,27)       -165.2364         estimate D2E/DX2                !
 ! D238  D(31,29,30,47)          3.7726         estimate D2E/DX2                !
 ! D239  D(14,29,31,34)        -35.8234         estimate D2E/DX2                !
 ! D240  D(14,29,31,49)       -146.3339         estimate D2E/DX2                !
 ! D241  D(14,29,31,73)         88.823          estimate D2E/DX2                !
 ! D242  D(30,29,31,34)        134.2137         estimate D2E/DX2                !
 ! D243  D(30,29,31,49)         23.7032         estimate D2E/DX2                !
 ! D244  D(30,29,31,73)       -101.1399         estimate D2E/DX2                !
 ! D245  D(27,30,47,48)         29.0114         estimate D2E/DX2                !
 ! D246  D(27,30,47,50)        141.1328         estimate D2E/DX2                !
 ! D247  D(27,30,47,74)        -95.914          estimate D2E/DX2                !
 ! D248  D(29,30,47,48)       -140.4126         estimate D2E/DX2                !
 ! D249  D(29,30,47,50)        -28.2911         estimate D2E/DX2                !
 ! D250  D(29,30,47,74)         94.6621         estimate D2E/DX2                !
 ! D251  D(29,31,34,32)         27.5275         estimate D2E/DX2                !
 ! D252  D(29,31,34,51)       -121.3789         estimate D2E/DX2                !
 ! D253  D(49,31,34,32)        144.5399         estimate D2E/DX2                !
 ! D254  D(49,31,34,51)         -4.3665         estimate D2E/DX2                !
 ! D255  D(73,31,34,32)        -93.1091         estimate D2E/DX2                !
 ! D256  D(73,31,34,51)        117.9845         estimate D2E/DX2                !
 ! D257  D(29,31,49,50)        -27.0589         estimate D2E/DX2                !
 ! D258  D(29,31,49,54)        122.1103         estimate D2E/DX2                !
 ! D259  D(34,31,49,50)       -142.5472         estimate D2E/DX2                !
 ! D260  D(34,31,49,54)          6.622          estimate D2E/DX2                !
 ! D261  D(73,31,49,50)         94.4729         estimate D2E/DX2                !
 ! D262  D(73,31,49,54)       -116.3579         estimate D2E/DX2                !
 ! D263  D(16,32,33,18)         -8.9235         estimate D2E/DX2                !
 ! D264  D(16,32,33,36)       -153.6149         estimate D2E/DX2                !
 ! D265  D(34,32,33,18)        139.3117         estimate D2E/DX2                !
 ! D266  D(34,32,33,36)         -5.3797         estimate D2E/DX2                !
 ! D267  D(16,32,34,31)          7.4562         estimate D2E/DX2                !
 ! D268  D(16,32,34,51)        153.7932         estimate D2E/DX2                !
 ! D269  D(33,32,34,31)       -136.3341         estimate D2E/DX2                !
 ! D270  D(33,32,34,51)         10.0028         estimate D2E/DX2                !
 ! D271  D(18,33,36,35)         -6.0133         estimate D2E/DX2                !
 ! D272  D(18,33,36,52)       -145.3476         estimate D2E/DX2                !
 ! D273  D(32,33,36,35)        135.2256         estimate D2E/DX2                !
 ! D274  D(32,33,36,52)         -4.1087         estimate D2E/DX2                !
 ! D275  D(31,34,51,52)        144.0327         estimate D2E/DX2                !
 ! D276  D(31,34,51,54)          0.6853         estimate D2E/DX2                !
 ! D277  D(32,34,51,52)         -5.5461         estimate D2E/DX2                !
 ! D278  D(32,34,51,54)       -148.8935         estimate D2E/DX2                !
 ! D279  D(19,35,36,33)         -4.4422         estimate D2E/DX2                !
 ! D280  D(19,35,36,52)        138.0879         estimate D2E/DX2                !
 ! D281  D(37,35,36,33)       -149.7643         estimate D2E/DX2                !
 ! D282  D(37,35,36,52)         -7.2342         estimate D2E/DX2                !
 ! D283  D(19,35,37,39)          3.7131         estimate D2E/DX2                !
 ! D284  D(19,35,37,53)       -139.6656         estimate D2E/DX2                !
 ! D285  D(36,35,37,39)        148.9848         estimate D2E/DX2                !
 ! D286  D(36,35,37,53)          5.6061         estimate D2E/DX2                !
 ! D287  D(33,36,52,51)          8.6136         estimate D2E/DX2                !
 ! D288  D(33,36,52,53)        149.6707         estimate D2E/DX2                !
 ! D289  D(35,36,52,51)       -135.1968         estimate D2E/DX2                !
 ! D290  D(35,36,52,53)          5.8603         estimate D2E/DX2                !
 ! D291  D(35,37,39,38)         -0.5712         estimate D2E/DX2                !
 ! D292  D(35,37,39,57)       -140.6112         estimate D2E/DX2                !
 ! D293  D(53,37,39,38)        137.4416         estimate D2E/DX2                !
 ! D294  D(53,37,39,57)         -2.5983         estimate D2E/DX2                !
 ! D295  D(35,37,53,52)         -2.0583         estimate D2E/DX2                !
 ! D296  D(35,37,53,55)        139.7785         estimate D2E/DX2                !
 ! D297  D(39,37,53,52)       -144.2808         estimate D2E/DX2                !
 ! D298  D(39,37,53,55)         -2.444          estimate D2E/DX2                !
 ! D299  D(21,38,39,37)         -4.4933         estimate D2E/DX2                !
 ! D300  D(21,38,39,57)        139.0205         estimate D2E/DX2                !
 ! D301  D(42,38,39,37)       -149.2489         estimate D2E/DX2                !
 ! D302  D(42,38,39,57)         -5.7351         estimate D2E/DX2                !
 ! D303  D(21,38,42,40)          4.3195         estimate D2E/DX2                !
 ! D304  D(21,38,42,58)       -138.5225         estimate D2E/DX2                !
 ! D305  D(39,38,42,40)        149.4426         estimate D2E/DX2                !
 ! D306  D(39,38,42,58)          6.6007         estimate D2E/DX2                !
 ! D307  D(37,39,57,58)        146.7189         estimate D2E/DX2                !
 ! D308  D(37,39,57,60)          5.4962         estimate D2E/DX2                !
 ! D309  D(38,39,57,58)          2.6835         estimate D2E/DX2                !
 ! D310  D(38,39,57,60)       -138.5391         estimate D2E/DX2                !
 ! D311  D(23,40,41,24)        -10.1669         estimate D2E/DX2                !
 ! D312  D(23,40,41,43)       -151.7523         estimate D2E/DX2                !
 ! D313  D(42,40,41,24)        139.5242         estimate D2E/DX2                !
 ! D314  D(42,40,41,43)         -2.0612         estimate D2E/DX2                !
 ! D315  D(23,40,42,38)         13.2981         estimate D2E/DX2                !
 ! D316  D(23,40,42,58)        151.4634         estimate D2E/DX2                !
 ! D317  D(41,40,42,38)       -133.044          estimate D2E/DX2                !
 ! D318  D(41,40,42,58)          5.1213         estimate D2E/DX2                !
 ! D319  D(24,41,43,46)         -0.6036         estimate D2E/DX2                !
 ! D320  D(24,41,43,59)       -138.0281         estimate D2E/DX2                !
 ! D321  D(40,41,43,46)        136.244          estimate D2E/DX2                !
 ! D322  D(40,41,43,59)         -1.1806         estimate D2E/DX2                !
 ! D323  D(38,42,58,57)         -5.0321         estimate D2E/DX2                !
 ! D324  D(38,42,58,59)        137.6971         estimate D2E/DX2                !
 ! D325  D(40,42,58,57)       -147.8249         estimate D2E/DX2                !
 ! D326  D(40,42,58,59)         -5.0958         estimate D2E/DX2                !
 ! D327  D(41,43,46,44)          0.4758         estimate D2E/DX2                !
 ! D328  D(41,43,46,61)       -141.6617         estimate D2E/DX2                !
 ! D329  D(59,43,46,44)        142.3018         estimate D2E/DX2                !
 ! D330  D(59,43,46,61)          0.1642         estimate D2E/DX2                !
 ! D331  D(41,43,59,58)          1.251          estimate D2E/DX2                !
 ! D332  D(41,43,59,65)        142.926          estimate D2E/DX2                !
 ! D333  D(46,43,59,58)       -140.746          estimate D2E/DX2                !
 ! D334  D(46,43,59,65)          0.929          estimate D2E/DX2                !
 ! D335  D(26,44,45,28)          0.2495         estimate D2E/DX2                !
 ! D336  D(26,44,45,48)       -141.5486         estimate D2E/DX2                !
 ! D337  D(46,44,45,28)        142.3027         estimate D2E/DX2                !
 ! D338  D(46,44,45,48)          0.5046         estimate D2E/DX2                !
 ! D339  D(26,44,46,43)          1.4569         estimate D2E/DX2                !
 ! D340  D(26,44,46,61)        139.7905         estimate D2E/DX2                !
 ! D341  D(45,44,46,43)       -136.3422         estimate D2E/DX2                !
 ! D342  D(45,44,46,61)          1.9913         estimate D2E/DX2                !
 ! D343  D(28,45,48,47)          7.4872         estimate D2E/DX2                !
 ! D344  D(28,45,48,62)       -139.2627         estimate D2E/DX2                !
 ! D345  D(44,45,48,47)        144.3672         estimate D2E/DX2                !
 ! D346  D(44,45,48,62)         -2.3826         estimate D2E/DX2                !
 ! D347  D(43,46,61,62)        140.0713         estimate D2E/DX2                !
 ! D348  D(43,46,61,65)         -1.1993         estimate D2E/DX2                !
 ! D349  D(44,46,61,62)         -2.5611         estimate D2E/DX2                !
 ! D350  D(44,46,61,65)       -143.8317         estimate D2E/DX2                !
 ! D351  D(30,47,48,45)        -25.234          estimate D2E/DX2                !
 ! D352  D(30,47,48,62)        123.3073         estimate D2E/DX2                !
 ! D353  D(50,47,48,45)       -142.9892         estimate D2E/DX2                !
 ! D354  D(50,47,48,62)          5.5521         estimate D2E/DX2                !
 ! D355  D(74,47,48,45)         95.3744         estimate D2E/DX2                !
 ! D356  D(74,47,48,62)       -116.0843         estimate D2E/DX2                !
 ! D357  D(30,47,50,49)         25.6968         estimate D2E/DX2                !
 ! D358  D(30,47,50,63)       -124.3456         estimate D2E/DX2                !
 ! D359  D(48,47,50,49)        144.7615         estimate D2E/DX2                !
 ! D360  D(48,47,50,63)         -5.2809         estimate D2E/DX2                !
 ! D361  D(74,47,50,49)        -93.1158         estimate D2E/DX2                !
 ! D362  D(74,47,50,63)        116.8418         estimate D2E/DX2                !
 ! D363  D(45,48,62,61)          1.7945         estimate D2E/DX2                !
 ! D364  D(45,48,62,63)        146.393          estimate D2E/DX2                !
 ! D365  D(47,48,62,61)       -148.4577         estimate D2E/DX2                !
 ! D366  D(47,48,62,63)         -3.8592         estimate D2E/DX2                !
 ! D367  D(31,49,50,47)          1.91           estimate D2E/DX2                !
 ! D368  D(31,49,50,63)        149.2263         estimate D2E/DX2                !
 ! D369  D(54,49,50,47)       -144.8387         estimate D2E/DX2                !
 ! D370  D(54,49,50,63)          2.4776         estimate D2E/DX2                !
 ! D371  D(31,49,54,51)         -6.6609         estimate D2E/DX2                !
 ! D372  D(31,49,54,56)       -150.0303         estimate D2E/DX2                !
 ! D373  D(50,49,54,51)        143.6444         estimate D2E/DX2                !
 ! D374  D(50,49,54,56)          0.275          estimate D2E/DX2                !
 ! D375  D(47,50,63,62)          3.3721         estimate D2E/DX2                !
 ! D376  D(47,50,63,64)        147.6418         estimate D2E/DX2                !
 ! D377  D(49,50,63,62)       -147.5564         estimate D2E/DX2                !
 ! D378  D(49,50,63,64)         -3.2866         estimate D2E/DX2                !
 ! D379  D(34,51,52,36)         -4.0626         estimate D2E/DX2                !
 ! D380  D(34,51,52,53)       -139.123          estimate D2E/DX2                !
 ! D381  D(54,51,52,36)        135.5031         estimate D2E/DX2                !
 ! D382  D(54,51,52,53)          0.4427         estimate D2E/DX2                !
 ! D383  D(34,51,54,49)          3.6311         estimate D2E/DX2                !
 ! D384  D(34,51,54,56)        147.7256         estimate D2E/DX2                !
 ! D385  D(52,51,54,49)       -140.7301         estimate D2E/DX2                !
 ! D386  D(52,51,54,56)          3.3644         estimate D2E/DX2                !
 ! D387  D(36,52,53,37)         -2.3513         estimate D2E/DX2                !
 ! D388  D(36,52,53,55)       -143.9218         estimate D2E/DX2                !
 ! D389  D(51,52,53,37)        137.377          estimate D2E/DX2                !
 ! D390  D(51,52,53,55)         -4.1934         estimate D2E/DX2                !
 ! D391  D(37,53,55,56)       -133.8635         estimate D2E/DX2                !
 ! D392  D(37,53,55,60)          4.5018         estimate D2E/DX2                !
 ! D393  D(52,53,55,56)          3.9989         estimate D2E/DX2                !
 ! D394  D(52,53,55,60)        142.3642         estimate D2E/DX2                !
 ! D395  D(49,54,56,55)        135.8935         estimate D2E/DX2                !
 ! D396  D(49,54,56,64)         -2.3345         estimate D2E/DX2                !
 ! D397  D(51,54,56,55)         -3.5433         estimate D2E/DX2                !
 ! D398  D(51,54,56,64)       -141.7713         estimate D2E/DX2                !
 ! D399  D(53,55,56,54)         -0.1977         estimate D2E/DX2                !
 ! D400  D(53,55,56,64)        142.5053         estimate D2E/DX2                !
 ! D401  D(60,55,56,54)       -142.5033         estimate D2E/DX2                !
 ! D402  D(60,55,56,64)          0.1997         estimate D2E/DX2                !
 ! D403  D(53,55,60,57)         -1.5863         estimate D2E/DX2                !
 ! D404  D(53,55,60,66)       -144.0037         estimate D2E/DX2                !
 ! D405  D(56,55,60,57)        140.4418         estimate D2E/DX2                !
 ! D406  D(56,55,60,66)         -1.9757         estimate D2E/DX2                !
 ! D407  D(54,56,64,63)          1.5567         estimate D2E/DX2                !
 ! D408  D(54,56,64,66)        145.1729         estimate D2E/DX2                !
 ! D409  D(55,56,64,63)       -141.944          estimate D2E/DX2                !
 ! D410  D(55,56,64,66)          1.6722         estimate D2E/DX2                !
 ! D411  D(39,57,58,42)          1.5304         estimate D2E/DX2                !
 ! D412  D(39,57,58,59)       -141.742          estimate D2E/DX2                !
 ! D413  D(60,57,58,42)        142.208          estimate D2E/DX2                !
 ! D414  D(60,57,58,59)         -1.0644         estimate D2E/DX2                !
 ! D415  D(39,57,60,55)         -3.4783         estimate D2E/DX2                !
 ! D416  D(39,57,60,66)        133.94           estimate D2E/DX2                !
 ! D417  D(58,57,60,55)       -139.6442         estimate D2E/DX2                !
 ! D418  D(58,57,60,66)         -2.2258         estimate D2E/DX2                !
 ! D419  D(42,58,59,43)          1.7962         estimate D2E/DX2                !
 ! D420  D(42,58,59,65)       -134.7835         estimate D2E/DX2                !
 ! D421  D(57,58,59,43)        140.5859         estimate D2E/DX2                !
 ! D422  D(57,58,59,65)          4.0061         estimate D2E/DX2                !
 ! D423  D(43,59,65,61)         -1.6989         estimate D2E/DX2                !
 ! D424  D(43,59,65,66)       -144.6167         estimate D2E/DX2                !
 ! D425  D(58,59,65,61)        139.2463         estimate D2E/DX2                !
[...]
 
              Baa    -0.0833   -11.182    -3.990    -3.730  0.9891  0.1405 -0.0429
    14 C(13)  Bbb    -0.0779   -10.455    -3.731    -3.487  0.0159  0.1882  0.9820
              Bcc     0.1612    21.638     7.721     7.218 -0.1461  0.9720 -0.1839
 
              Baa    -0.0045    -0.603    -0.215    -0.201 -0.1891  0.7891  0.5844
    15 C(13)  Bbb     0.0003     0.046     0.017     0.015  0.8381 -0.1804  0.5149
              Bcc     0.0041     0.557     0.199     0.186 -0.5117 -0.5872  0.6272
 
              Baa    -0.0018    -0.238    -0.085    -0.079 -0.3292  0.9209 -0.2089
    16 C(13)  Bbb    -0.0007    -0.088    -0.031    -0.029  0.9420  0.3354 -0.0060
              Bcc     0.0024     0.325     0.116     0.109 -0.0645  0.1987  0.9779
 
              Baa    -0.0015    -0.197    -0.070    -0.066  0.9789  0.1603  0.1263
    17 C(13)  Bbb    -0.0006    -0.082    -0.029    -0.027 -0.1393  0.9771 -0.1608
              Bcc     0.0021     0.278     0.099     0.093 -0.1492  0.1398  0.9789
 
              Baa    -0.0064    -0.865    -0.309    -0.289  0.8962  0.3132  0.3143
    18 C(13)  Bbb    -0.0060    -0.806    -0.287    -0.269 -0.2079  0.9221 -0.3262
              Bcc     0.0125     1.671     0.596     0.557 -0.3920  0.2270  0.8915
 
              Baa    -0.0036    -0.488    -0.174    -0.163  0.8025 -0.5791 -0.1440
    19 C(13)  Bbb    -0.0035    -0.475    -0.169    -0.158  0.5536  0.6325  0.5417
              Bcc     0.0072     0.963     0.344     0.321 -0.2226 -0.5144  0.8282
 
              Baa    -0.0033    -0.437    -0.156    -0.146  0.9460  0.2694  0.1801
    20 C(13)  Bbb    -0.0028    -0.382    -0.136    -0.127 -0.2865  0.9551  0.0759
              Bcc     0.0061     0.819     0.292     0.273 -0.1516 -0.1234  0.9807
 
              Baa    -0.0031    -0.417    -0.149    -0.139 -0.3965 -0.5601  0.7273
    21 C(13)  Bbb     0.0011     0.152     0.054     0.051 -0.6351  0.7395  0.2233
              Bcc     0.0020     0.265     0.095     0.089  0.6629  0.3734  0.6489
 
              Baa    -0.1089   -14.615    -5.215    -4.875  0.7662 -0.5432 -0.3433
    22 C(13)  Bbb    -0.1025   -13.754    -4.908    -4.588  0.0600 -0.4715  0.8798
              Bcc     0.2114    28.369    10.123     9.463  0.6398  0.6948  0.3286
 
              Baa    -0.0034    -0.453    -0.162    -0.151  0.8852  0.3836  0.2631
    23 C(13)  Bbb    -0.0011    -0.144    -0.051    -0.048 -0.4633  0.6762  0.5728
              Bcc     0.0044     0.597     0.213     0.199  0.0418 -0.6290  0.7763
 
              Baa    -0.0557    -7.468    -2.665    -2.491  0.4449  0.6801  0.5827
    24 C(13)  Bbb     0.0232     3.120     1.113     1.041 -0.6720  0.6836 -0.2848
              Bcc     0.0324     4.348     1.552     1.450 -0.5920 -0.2649  0.7612
 
              Baa    -0.1046   -14.039    -5.010    -4.683  0.4934 -0.0079  0.8698
    25 C(13)  Bbb     0.0413     5.537     1.976     1.847  0.6864 -0.6107 -0.3949
              Bcc     0.0634     8.502     3.034     2.836  0.5343  0.7918 -0.2959
 
              Baa    -0.0664    -8.914    -3.181    -2.974  0.8002 -0.5996  0.0126
    26 C(13)  Bbb    -0.0629    -8.439    -3.011    -2.815  0.4761  0.6224 -0.6213
              Bcc     0.1293    17.353     6.192     5.788  0.3647  0.5031  0.7835
 
              Baa    -0.0852   -11.429    -4.078    -3.812  0.1860 -0.6066  0.7729
    27 C(13)  Bbb     0.0344     4.618     1.648     1.540  0.9812  0.1563 -0.1134
              Bcc     0.0508     6.811     2.430     2.272 -0.0520  0.7795  0.6243
 
              Baa    -0.2635   -35.361   -12.618   -11.795 -0.2474  0.8480  0.4687
    28 C(13)  Bbb    -0.2589   -34.736   -12.395   -11.587  0.9042  0.3759 -0.2029
              Bcc     0.5224    70.097    25.012    23.382  0.3483 -0.3736  0.8597
 
              Baa    -0.0646    -8.662    -3.091    -2.889 -0.1232  0.9007 -0.4167
    29 C(13)  Bbb     0.0285     3.831     1.367     1.278  0.8637  0.3041  0.4020
              Bcc     0.0360     4.831     1.724     1.612 -0.4888  0.3104  0.8153
 
              Baa    -0.0731    -9.816    -3.503    -3.274  0.6650  0.4287  0.6116
    30 C(13)  Bbb    -0.0701    -9.405    -3.356    -3.137  0.7463 -0.3495 -0.5665
              Bcc     0.1432    19.220     6.858     6.411 -0.0291  0.8331 -0.5523
 
              Baa    -0.0011    -0.150    -0.053    -0.050 -0.0273 -0.6626  0.7485
    31 C(13)  Bbb    -0.0005    -0.070    -0.025    -0.023  0.8796 -0.3717 -0.2970
              Bcc     0.0016     0.220     0.078     0.073  0.4750  0.6502  0.5929
 
              Baa    -0.0022    -0.290    -0.103    -0.097 -0.1664  0.8968  0.4100
    32 C(13)  Bbb    -0.0004    -0.048    -0.017    -0.016  0.7996  0.3660 -0.4761
              Bcc     0.0025     0.337     0.120     0.112  0.5771 -0.2486  0.7779
 
              Baa    -0.0024    -0.317    -0.113    -0.106 -0.3210  0.4003  0.8583
    33 C(13)  Bbb     0.0009     0.116     0.042     0.039  0.4060  0.8769 -0.2572
              Bcc     0.0015     0.201     0.072     0.067  0.8556 -0.2659  0.4440
 
              Baa    -0.0009    -0.116    -0.041    -0.039  0.3693  0.6827 -0.6305
    34 C(13)  Bbb     0.0002     0.022     0.008     0.007 -0.2055  0.7217  0.6610
              Bcc     0.0007     0.094     0.033     0.031  0.9063 -0.1145  0.4068
 
              Baa    -0.0035    -0.472    -0.168    -0.157  0.0470 -0.3119  0.9490
    35 C(13)  Bbb     0.0012     0.157     0.056     0.052  0.3110  0.9074  0.2828
              Bcc     0.0023     0.315     0.112     0.105  0.9492 -0.2819 -0.1396
 
              Baa    -0.0027    -0.362    -0.129    -0.121  0.3444  0.9359 -0.0737
    36 C(13)  Bbb    -0.0024    -0.317    -0.113    -0.106  0.9353 -0.3352  0.1137
              Bcc     0.0051     0.679     0.242     0.226 -0.0817  0.1081  0.9908
 
              Baa    -0.0103    -1.378    -0.492    -0.460  0.4899  0.8617  0.1320
    37 C(13)  Bbb    -0.0099    -1.329    -0.474    -0.443  0.8062 -0.3903 -0.4446
              Bcc     0.0202     2.707     0.966     0.903  0.3316 -0.3243  0.8860
 
              Baa    -0.0031    -0.410    -0.146    -0.137 -0.4978  0.6390  0.5863
    38 C(13)  Bbb    -0.0024    -0.316    -0.113    -0.105  0.8654  0.3218  0.3841
              Bcc     0.0054     0.726     0.259     0.242 -0.0568 -0.6986  0.7132
 
              Baa    -0.0068    -0.919    -0.328    -0.307  0.3395 -0.6501  0.6797
    39 C(13)  Bbb     0.0030     0.398     0.142     0.133  0.8425  0.5316  0.0876
              Bcc     0.0039     0.521     0.186     0.174 -0.4183  0.5429  0.7282
 
              Baa    -0.0093    -1.243    -0.444    -0.415  0.2522  0.9612  0.1119
    40 C(13)  Bbb     0.0023     0.307     0.110     0.102 -0.3975 -0.0025  0.9176
              Bcc     0.0070     0.936     0.334     0.312  0.8823 -0.2758  0.3814
 
              Baa    -0.0051    -0.685    -0.244    -0.228  0.8897 -0.0609  0.4524
    41 C(13)  Bbb    -0.0045    -0.598    -0.214    -0.200 -0.4420 -0.3624  0.8205
              Bcc     0.0096     1.283     0.458     0.428 -0.1140  0.9300  0.3494
 
              Baa    -0.0008    -0.107    -0.038    -0.036  0.7230  0.1881 -0.6647
    42 C(13)  Bbb    -0.0001    -0.007    -0.003    -0.002  0.2151  0.8531  0.4754
              Bcc     0.0008     0.114     0.041     0.038  0.6565 -0.4867  0.5763
 
              Baa    -0.0169    -2.270    -0.810    -0.757 -0.2747  0.7530  0.5980
    43 C(13)  Bbb     0.0082     1.105     0.394     0.369  0.4420  0.6512 -0.6170
              Bcc     0.0087     1.165     0.416     0.389  0.8539 -0.0948  0.5117
 
              Baa    -0.0186    -2.500    -0.892    -0.834  0.0622  0.9397 -0.3363
    44 C(13)  Bbb    -0.0161    -2.164    -0.772    -0.722  0.9600  0.0358  0.2777
              Bcc     0.0348     4.664     1.664     1.556 -0.2730  0.3401  0.8999
 
              Baa    -0.0859   -11.532    -4.115    -3.847  0.0614 -0.2062  0.9766
    45 C(13)  Bbb     0.0303     4.062     1.449     1.355  0.1829  0.9642  0.1921
              Bcc     0.0557     7.470     2.665     2.492  0.9812 -0.1668 -0.0969
 
              Baa    -0.0082    -1.096    -0.391    -0.366 -0.4528 -0.4559  0.7663
    46 C(13)  Bbb    -0.0012    -0.163    -0.058    -0.054  0.8761 -0.3871  0.2873
              Bcc     0.0094     1.259     0.449     0.420  0.1657  0.8015  0.5747
 
              Baa    -0.0078    -1.049    -0.374    -0.350  0.1119 -0.3569  0.9274
    47 C(13)  Bbb     0.0018     0.235     0.084     0.078  0.8646 -0.4252 -0.2679
              Bcc     0.0061     0.814     0.290     0.272  0.4899  0.8318  0.2610
 
              Baa    -0.1076   -14.435    -5.151    -4.815  0.5549  0.6694  0.4940
    48 C(13)  Bbb    -0.1023   -13.725    -4.898    -4.578  0.7696 -0.6385  0.0006
              Bcc     0.2099    28.160    10.048     9.393 -0.3159 -0.3798  0.8695
 
              Baa    -0.0027    -0.363    -0.130    -0.121  0.7953 -0.5849 -0.1593
    49 C(13)  Bbb    -0.0012    -0.155    -0.055    -0.052  0.0074 -0.2534  0.9673
              Bcc     0.0039     0.518     0.185     0.173  0.6062  0.7705  0.1972
 
              Baa    -0.0062    -0.832    -0.297    -0.278 -0.2536 -0.3359  0.9071
    50 C(13)  Bbb    -0.0025    -0.342    -0.122    -0.114 -0.5522  0.8202  0.1493
              Bcc     0.0087     1.174     0.419     0.392  0.7942  0.4631  0.3935
 
              Baa    -0.0009    -0.126    -0.045    -0.042  0.3729  0.9192 -0.1263
    51 C(13)  Bbb    -0.0002    -0.020    -0.007    -0.007  0.8600 -0.3935 -0.3248
              Bcc     0.0011     0.146     0.052     0.049  0.3483 -0.0125  0.9373
 
              Baa    -0.0021    -0.278    -0.099    -0.093 -0.5691  0.8205  0.0534
    52 C(13)  Bbb    -0.0019    -0.252    -0.090    -0.084 -0.5770 -0.4448  0.6850
              Bcc     0.0040     0.531     0.189     0.177  0.5858  0.3590  0.7266
 
              Baa    -0.0057    -0.765    -0.273    -0.255  0.6165 -0.0704  0.7842
    53 C(13)  Bbb     0.0026     0.348     0.124     0.116 -0.5821  0.6298  0.5142
              Bcc     0.0031     0.417     0.149     0.139  0.5301  0.7735 -0.3473
 
              Baa    -0.0011    -0.141    -0.050    -0.047  0.8885 -0.3588 -0.2859
    54 C(13)  Bbb     0.0001     0.018     0.006     0.006  0.1479 -0.3657  0.9189
              Bcc     0.0009     0.124     0.044     0.041  0.4343  0.8588  0.2719
 
              Baa    -0.0026    -0.350    -0.125    -0.117 -0.0721  0.9347  0.3481
    55 C(13)  Bbb    -0.0022    -0.289    -0.103    -0.096 -0.5678 -0.3254  0.7561
              Bcc     0.0048     0.639     0.228     0.213  0.8200 -0.1431  0.5542
 
              Baa    -0.0012    -0.156    -0.056    -0.052 -0.5255  0.4897  0.6957
    56 C(13)  Bbb    -0.0006    -0.079    -0.028    -0.026  0.0546  0.8354 -0.5468
              Bcc     0.0017     0.235     0.084     0.078  0.8490  0.2494  0.4658
 
              Baa    -0.0166    -2.232    -0.796    -0.744  0.6192  0.7440  0.2513
    57 C(13)  Bbb    -0.0154    -2.069    -0.738    -0.690 -0.5053  0.1325  0.8527
              Bcc     0.0321     4.301     1.535     1.435 -0.6011  0.6549 -0.4579
 
              Baa    -0.0161    -2.160    -0.771    -0.720 -0.4754  0.8668 -0.1503
    58 C(13)  Bbb     0.0077     1.032     0.368     0.344  0.8119  0.3665 -0.4543
              Bcc     0.0084     1.128     0.402     0.376  0.3387  0.3380  0.8781
 
              Baa    -0.0094    -1.255    -0.448    -0.419  0.8176  0.5757  0.0083
    59 C(13)  Bbb    -0.0092    -1.228    -0.438    -0.410  0.0600 -0.0995  0.9932
              Bcc     0.0185     2.483     0.886     0.828 -0.5727  0.8116  0.1159
 
              Baa    -0.0159    -2.139    -0.763    -0.714  0.8681 -0.4294  0.2490
    60 C(13)  Bbb     0.0070     0.938     0.335     0.313  0.2376  0.7999  0.5510
              Bcc     0.0090     1.202     0.429     0.401 -0.4358 -0.4192  0.7965
 
              Baa    -0.0488    -6.553    -2.338    -2.186  0.4057  0.9128  0.0467
    61 C(13)  Bbb    -0.0467    -6.265    -2.235    -2.090  0.6130 -0.3096  0.7269
              Bcc     0.0955    12.818     4.574     4.276 -0.6780  0.2663  0.6852
 
              Baa    -0.0389    -5.215    -1.861    -1.739 -0.5382 -0.1657  0.8264
    62 C(13)  Bbb     0.0143     1.921     0.686     0.641  0.5285  0.6974  0.4841
              Bcc     0.0245     3.293     1.175     1.098 -0.6565  0.6973 -0.2877
 
              Baa    -0.0179    -2.397    -0.855    -0.799 -0.0986  0.9052  0.4135
    63 C(13)  Bbb    -0.0150    -2.009    -0.717    -0.670  0.5846 -0.2835  0.7602
              Bcc     0.0328     4.406     1.572     1.470  0.8053  0.3167 -0.5012
 
              Baa    -0.0150    -2.016    -0.719    -0.673  0.9399  0.1766 -0.2922
    64 C(13)  Bbb     0.0063     0.846     0.302     0.282  0.1027  0.6699  0.7353
              Bcc     0.0087     1.170     0.418     0.390 -0.3256  0.7212 -0.6115
 
              Baa    -0.0201    -2.692    -0.961    -0.898  0.8219 -0.4492 -0.3504
    65 C(13)  Bbb     0.0079     1.054     0.376     0.352  0.4325  0.8923 -0.1293
              Bcc     0.0122     1.638     0.584     0.546  0.3707 -0.0453  0.9276
 
              Baa    -0.0254    -3.413    -1.218    -1.139  0.2688  0.8813  0.3886
    66 C(13)  Bbb    -0.0241    -3.230    -1.153    -1.077 -0.0229 -0.3975  0.9173
              Bcc     0.0495     6.643     2.371     2.216  0.9629 -0.2555 -0.0866
 
              Baa    -0.0040    -0.207    -0.074    -0.069  0.9379  0.1062  0.3303
    67 Cl(35) Bbb     0.0011     0.056     0.020     0.019 -0.2466  0.8737  0.4193
              Bcc     0.0029     0.151     0.054     0.050 -0.2440 -0.4747  0.8456
 
              Baa    -0.0017    -0.091    -0.033    -0.030  0.4881  0.8728 -0.0031
    68 Cl(35) Bbb    -0.0003    -0.015    -0.006    -0.005 -0.6427  0.3618  0.6753
              Bcc     0.0020     0.107     0.038     0.036  0.5905 -0.3276  0.7375
 
              Baa    -0.0261    -1.367    -0.488    -0.456  0.8249 -0.4881 -0.2852
    69 Cl(35) Bbb     0.0115     0.603     0.215     0.201  0.2267 -0.1766  0.9578
              Bcc     0.0146     0.764     0.273     0.255  0.5179  0.8548  0.0350
 
              Baa    -0.0527    -2.758    -0.984    -0.920 -0.1421  0.7010 -0.6988
    70 Cl(35) Bbb    -0.0435    -2.276    -0.812    -0.759  0.9587  0.2731  0.0791
              Bcc     0.0962     5.034     1.796     1.679 -0.2463  0.6588  0.7109
 
              Baa    -0.0422    -2.211    -0.789    -0.737  0.7435  0.5354 -0.4007
    71 Cl(35) Bbb     0.0119     0.622     0.222     0.207  0.6386 -0.3907  0.6630
              Bcc     0.0304     1.589     0.567     0.530 -0.1984  0.7488  0.6324
 
              Baa    -0.0554    -2.901    -1.035    -0.968  0.7785  0.2296  0.5841
    72 Cl(35) Bbb    -0.0469    -2.452    -0.875    -0.818  0.5971 -0.5577 -0.5766
              Bcc     0.1023     5.353     1.910     1.786  0.1934  0.7976 -0.5713
 
              Baa    -0.0338    -1.769    -0.631    -0.590  0.5613  0.8138  0.1506
    73 Cl(35) Bbb     0.0144     0.751     0.268     0.251 -0.1302 -0.0928  0.9871
              Bcc     0.0195     1.018     0.363     0.340  0.8173 -0.5736  0.0539
 
              Baa    -0.1292    -6.761    -2.412    -2.255  0.7407  0.1528  0.6542
    74 Cl(35) Bbb    -0.1118    -5.850    -2.087    -1.951 -0.5897  0.6145  0.5241
              Bcc     0.2409    12.611     4.500     4.206  0.3220  0.7740 -0.5453
 
              Baa    -0.1101    -5.761    -2.056    -1.922  0.7148 -0.5956 -0.3664
    75 Cl(35) Bbb    -0.1020    -5.340    -1.906    -1.781  0.6417  0.7670  0.0051
              Bcc     0.2121    11.101     3.961     3.703  0.2780 -0.2387  0.9304
 

 ---------------------------------------------------------------------------------

 No NMR shielding tensors so no spin-rotation constants.
 Leave Link  601 at Sat Jul 16 16:58:24 2022, MaxMem=  1342177280 cpu:             128.0 elap:               2.9
 (Enter /home/mkliu/g16/l9999.exe)
 1\1\GINC-NODE04\FOpt\UB3LYP\6-311G(d,p)\C66Cl9(2)\MKLIU\16-Jul-2022\0\
 \#P opt b3lyp/6-311G(d, p) empiricaldispersion=GD3\\force\\0,2\C,-1.34
 76592465,1.8860323787,-3.9686882307\C,0.210713068,2.308578128,-4.10136
 95732\C,0.9715253637,0.8794999578,-4.3091736823\C,-1.2881284072,0.4107
 620376,-3.8462085804\C,-0.084496989,-0.1683935937,-4.1667263687\C,-2.1
 671676132,-0.1260514037,-2.9134313878\C,-2.2068707854,2.2952602611,-2.
 6816444728\C,-2.7270463628,0.9339613358,-2.1405214264\C,-1.4229587262,
 2.9070013274,-1.539352434\C,0.8727935987,2.8909622986,-2.7640810589\C,
 -0.0479497655,3.1826191621,-1.594140692\C,1.8340501799,0.696972919,-3.
 0803434784\C,1.8427891403,1.8236965414,-2.3002936477\C,2.2140937445,-0
 .5510098939,-2.5438716084\C,0.1956929968,-1.4176599993,-3.6450766001\C
 ,1.5992750006,-1.8072065286,-3.1794172004\C,-1.9461753215,-1.418150392
 6,-2.3886829819\C,-0.7699783043,-2.0818469887,-2.8623782489\C,-2.47808
 25025,-1.7267913701,-1.0798385315\C,-3.1326667907,0.7061017109,-0.8544
 440249\C,-3.0907086292,-0.6504865709,-0.2998059124\C,-2.0768174454,2.8
 884090021,-0.2941277768\C,-3.2224556217,1.9245983636,0.0520696474\C,-1
 .4044322099,3.2376117366,0.8908493907\C,0.6434283301,3.4106654698,-0.3
 826803727\C,-0.0390114832,3.5310157596,0.854575321\C,2.3979529598,1.80
 81633259,-1.007233164\C,1.9410321727,2.831698386,-0.1098060439\C,2.825
 5531988,-0.5886534189,-1.2693869614\C,2.9678208175,0.6014154839,-0.517
 1425383\C,3.1364304786,-1.9513161696,-0.6252385967\C,1.2978661491,-2.8
 310550517,-2.1080079677\C,-0.1133194659,-3.0568438912,-2.0352595291\C,
 2.0465089095,-2.9553832147,-0.9770073233\C,-1.9418611978,-2.8525046975
 ,-0.4037111627\C,-0.7175090697,-3.4875183837,-0.8726072766\C,-1.940899
 7821,-2.930611679,1.0174592732\C,-3.1653780017,-0.8119725857,1.1017102
 013\C,-2.5531231216,-1.9186684857,1.7583605819\C,-2.9317091772,1.61308
 81354,1.503969893\C,-1.9463249576,2.5040718013,2.0211620397\C,-3.03684
 76262,0.3449476239,2.0038952673\C,-1.1198682659,2.1246175371,3.0765991
 537\C,0.8301584192,3.0949658643,1.9275083279\C,2.0611366154,2.64729260
 93,1.3119655366\C,0.3062140801,2.4237953319,3.0221585746\C,3.482284904
 4,0.5793581041,0.9224536573\C,2.7281319686,1.5528437043,1.8203485258\C
 ,3.0206561872,-1.8955335745,0.8899360158\C,3.2023967844,-0.746147402,1
 .5989125616\C,1.4562595246,-3.4843131314,0.2160490525\C,0.0921320925,-
 3.8010843234,0.267516699\C,-0.6756781793,-3.4936300409,1.4537168309\C,
 2.0888124997,-2.879183788,1.3598789016\C,-0.0482716945,-2.983644589,2.
 5832394332\C,1.3681245767,-2.6790052023,2.541247758\C,-1.941402266,-1.
 4588487661,2.9950143781\C,-2.2375671541,-0.0545695229,3.1366858932\C,-
 1.2762883729,0.8181496569,3.6615307236\C,-0.699653557,-1.9595944005,3.
 3815911009\C,1.0177810941,1.2982505966,3.5740257317\C,2.2083175891,0.8
 754463265,2.964106202\C,2.4950616438,-0.5332582955,2.8283102882\C,1.58
 78971325,-1.4820413841,3.3058033347\C,0.0406697619,0.3109953592,3.9940
 375096\C,0.3207142545,-1.0474825009,3.8609651102\Cl,-2.2769947533,2.17
 55541951,-5.5106046851\Cl,0.4514484717,3.4197748994,-5.4716162728\Cl,1
 .9554602677,0.7254240038,-5.8174293209\Cl,2.6664928341,-2.5194098124,-
 4.4905445803\Cl,-3.554333411,3.4629013215,-3.0695566999\Cl,-4.91823514
 95,2.6824571613,-0.0235556477\Cl,4.8133998708,-2.4989567355,-1.1570978
 743\Cl,5.3001457429,0.9702961257,0.8985173284\Cl,1.8503566029,4.451274
 6109,-3.0391497296\\Version=ES64L-G16RevA.03\State=2-A\HF=-6657.444283
 6\S2=0.784007\S2-1=0.\S2A=0.751083\RMSD=8.645e-09\RMSF=1.333e-05\Dipol
 e=-0.6945955,-0.910195,1.591545\Quadrupole=-9.4104055,4.9901297,4.4202
 758,6.9893853,1.4637135,2.1405449\PG=C01 [X(C66Cl9)]\\@


 I WISH TO HAVE NO CONNECTION WITH ANY SHIP THAT DOES NOT SAIL FAST,
 FOR I INTEND TO GO IN HARM'S WAY.
     -- JOHN PAUL JONES, USN 1747-1792
 Job cpu time:       5 days 11 hours 57 minutes 21.4 seconds.
 Elapsed time:       0 days  2 hours 45 minutes 13.3 seconds.
 File lengths (MBytes):  RWF=   2194 Int=      0 D2E=      0 Chk=    198 Scr=      1
 Normal termination of Gaussian 16 at Sat Jul 16 16:58:26 2022.
