 Entering Gaussian System, Link 0=g16
 Input=dtndsf6wpq77k_addon_9.gjf
 Output=dtndsf6wpq77k_addon_9.log
 Initial command:
 /home/mkliu/g16/l1.exe "/data/scratch/Gau-117933.inp" -scrdir="/data/scratch/"
 Entering Link 1 = /home/mkliu/g16/l1.exe PID=    117934.
  
 Copyright (c) 1988,1990,1992,1993,1995,1998,2003,2009,2016,
            Gaussian, Inc.  All Rights Reserved.
  
 This is part of the Gaussian(R) 16 program.  It is based on
 the Gaussian(R) 09 system (copyright 2009, Gaussian, Inc.),
 the Gaussian(R) 03 system (copyright 2003, Gaussian, Inc.),
 the Gaussian(R) 98 system (copyright 1998, Gaussian, Inc.),
 the Gaussian(R) 94 system (copyright 1995, Gaussian, Inc.),
 the Gaussian 92(TM) system (copyright 1992, Gaussian, Inc.),
 the Gaussian 90(TM) system (copyright 1990, Gaussian, Inc.),
 the Gaussian 88(TM) system (copyright 1988, Gaussian, Inc.),
 the Gaussian 86(TM) system (copyright 1986, Carnegie Mellon
 University), and the Gaussian 82(TM) system (copyright 1983,
 Carnegie Mellon University). Gaussian is a federally registered
 trademark of Gaussian, Inc.
  
 This software contains proprietary and confidential information,
 including trade secrets, belonging to Gaussian, Inc.
  
 This software is provided under written license and may be
 used, copied, transmitted, or stored only in accord with that
 written license.
  
 The following legend is applicable only to US Government
 contracts under FAR:
  
                    RESTRICTED RIGHTS LEGEND
  
 Use, reproduction and disclosure by the US Government is
 subject to restrictions as set forth in subparagraphs (a)
 and (c) of the Commercial Computer Software - Restricted
 Rights clause in FAR 52.227-19.
  
 Gaussian, Inc.
 340 Quinnipiac St., Bldg. 40, Wallingford CT 06492
  
  
 ---------------------------------------------------------------
 Warning -- This program may not be used in any manner that
 competes with the business of Gaussian, Inc. or will provide
 assistance to any competitor of Gaussian, Inc.  The licensee
 of this program is prohibited from giving any competitor of
 Gaussian, Inc. access to this program.  By using this program,
 the user acknowledges that Gaussian, Inc. is engaged in the
 business of creating and licensing software in the field of
 computational chemistry and represents and warrants to the
 licensee that it is not a competitor of Gaussian, Inc. and that
 it will not use this program in any manner prohibited above.
 ---------------------------------------------------------------
  

 Cite this work as:
 Gaussian 16, Revision A.03,
 M. J. Frisch, G. W. Trucks, H. B. Schlegel, G. E. Scuseria, 
 M. A. Robb, J. R. Cheeseman, G. Scalmani, V. Barone, 
 G. A. Petersson, H. Nakatsuji, X. Li, M. Caricato, A. V. Marenich, 
 J. Bloino, B. G. Janesko, R. Gomperts, B. Mennucci, H. P. Hratchian, 
 J. V. Ortiz, A. F. Izmaylov, J. L. Sonnenberg, D. Williams-Young, 
 F. Ding, F. Lipparini, F. Egidi, J. Goings, B. Peng, A. Petrone, 
 T. Henderson, D. Ranasinghe, V. G. Zakrzewski, J. Gao, N. Rega, 
 G. Zheng, W. Liang, M. Hada, M. Ehara, K. Toyota, R. Fukuda, 
 J. Hasegawa, M. Ishida, T. Nakajima, Y. Honda, O. Kitao, H. Nakai, 
 T. Vreven, K. Throssell, J. A. Montgomery, Jr., J. E. Peralta, 
 F. Ogliaro, M. J. Bearpark, J. J. Heyd, E. N. Brothers, K. N. Kudin, 
 V. N. Staroverov, T. A. Keith, R. Kobayashi, J. Normand, 
 K. Raghavachari, A. P. Rendell, J. C. Burant, S. S. Iyengar, 
 J. Tomasi, M. Cossi, J. M. Millam, M. Klene, C. Adamo, R. Cammi, 
 J. W. Ochterski, R. L. Martin, K. Morokuma, O. Farkas, 
 J. B. Foresman, and D. J. Fox, Gaussian, Inc., Wallingford CT, 2016.
 
 ******************************************
 Gaussian 16:  ES64L-G16RevA.03 25-Dec-2016
                16-Jul-2022 
 ******************************************
 %mem=10GB
 %chk=dtndsf6wpq77k_addon_9.chk
 %nprocshared=48
 Will use up to   48 processors via shared memory.
 -------------------------------------------------
 #P opt b3lyp/6-311G(d, p) empiricaldispersion=GD3
 -------------------------------------------------
 1/18=20,19=15,26=3,38=1/1,3;
 2/9=110,12=2,17=6,18=5,40=1/2;
 3/5=4,6=6,7=101,11=2,25=1,30=1,71=1,74=-5,124=31/1,2,3;
 4//1;
 5/5=2,38=5/2;
 6/7=2,8=2,9=2,10=2,28=1/1;
 7//1,2,3,16;
 1/18=20,19=15,26=3/3(2);
 2/9=110/2;
 99//99;
 2/9=110/2;
 3/5=4,6=6,7=101,11=2,25=1,30=1,71=1,74=-5,124=31/1,2,3;
 4/5=5,16=3,69=1/1;
 5/5=2,38=5/2;
 7//1,2,3,16;
 1/18=20,19=15,26=3/3(-5);
 2/9=110/2;
 6/7=2,8=2,9=2,10=2,19=2,28=1/1;
 99/9=1/99;
 Leave Link    1 at Sat Jul 16 09:26:32 2022, MaxMem=  1342177280 cpu:               2.1 elap:               0.1
 (Enter /home/mkliu/g16/l101.exe)
 -----
 force
 -----
 Symbolic Z-matrix:
 Charge =  0 Multiplicity = 2
 C                    -1.34263   1.87234  -3.94277 
 C                     0.19121   2.28476  -4.05245 
 C                     0.96043   0.91812  -4.26041 
 C                    -1.28974   0.39609  -3.79694 
 C                    -0.05308  -0.14552  -4.08455 
 C                    -2.1468   -0.11606  -2.87264 
 C                    -2.18397   2.27805  -2.70681 
 C                    -2.9732    0.95334  -2.27028 
 C                    -1.37317   2.76142  -1.54122 
 C                     0.86734   2.87116  -2.76667 
 C                    -0.0403    3.14075  -1.60524 
 C                     1.81623   0.68577  -3.04075 
 C                     1.80399   1.80607  -2.25968 
 C                     2.2019   -0.55053  -2.51916 
 C                     0.22806  -1.36755  -3.55765 
 C                     1.62123  -1.80043  -3.15794 
 C                    -1.91774  -1.3853   -2.3265 
 C                    -0.74193  -2.0183   -2.76356 
 C                    -2.5073   -1.72354  -1.04941 
 C                    -3.19117   0.68427  -0.81157 
 C                    -3.13416  -0.65814  -0.284 
 C                    -2.02076   2.77071  -0.3131 
 C                    -2.99776   1.74259   0.04481 
 C                    -1.37829   3.19385   0.8736 
 C                     0.64534   3.39613  -0.39013 
 C                    -0.04009   3.51557   0.85374 
 C                     2.34788   1.77345  -0.98288 
 C                     1.90981   2.82351  -0.10142 
 C                     2.82363  -0.60233  -1.26037 
 C                     2.93812   0.58182  -0.5237 
 C                     3.1517   -1.94666  -0.62858 
 C                     1.31982  -2.80403  -2.08525 
 C                    -0.09488  -2.99854  -1.98242 
 C                     2.06187  -2.93048  -0.96111 
 C                    -1.93749  -2.80743  -0.3783 
 C                    -0.71237  -3.41945  -0.83416 
 C                    -1.94056  -2.89791   1.05005 
 C                    -3.16597  -0.79703   1.11333 
 C                    -2.55588  -1.91292   1.77878 
 C                    -2.92188   1.57762   1.46102 
 C                    -1.94609   2.48515   1.98813 
 C                    -3.04992   0.319     2.00074 
 C                    -1.12942   2.09951   3.03477 
 C                     0.81788   3.07733   1.91537 
 C                     2.05066   2.63467   1.31382 
 C                     0.2845    2.39724   2.98826 
 C                     3.46835   0.58507   0.89685 
 C                     2.71702   1.5324    1.79164 
 C                     3.02964  -1.88246   0.87183 
 C                     3.19256  -0.72964   1.5661 
 C                     1.46169  -3.46066   0.22596 
 C                     0.10316  -3.74302   0.28448 
 C                    -0.67179  -3.45231   1.45248 
 C                     2.09334  -2.85731   1.35054 
 C                    -0.04436  -2.94666   2.57093 
 C                     1.35919  -2.64189   2.50673 
 C                    -1.95345  -1.46802   3.00978 
 C                    -2.24967  -0.06904   3.1351 
 C                    -1.29227   0.80022   3.62299 
 C                    -0.70911  -1.94673   3.36668 
 C                     0.99357   1.27725   3.5234 
 C                     2.18632   0.86883   2.92604 
 C                     2.47518  -0.52689   2.78813 
 C                     1.56787  -1.45112   3.25772 
 C                     0.02609   0.30972   3.94071 
 C                     0.30745  -1.03876   3.81706 
 Cl                   -2.24679   2.21903  -5.44677 
 Cl                    0.38951   3.38065  -5.43387 
 Cl                    1.92577   0.80483  -5.7405 
 Cl                    2.67584  -2.4335   -4.4577 
 Cl                    4.79259  -2.4352   -1.19816 
 Cl                    5.24329   0.95922   0.77062 
 Cl                   -3.32134   3.6296   -3.03498 
 Cl                   -4.62193   0.92939  -3.04729 
 Cl                    1.80989   4.37822  -3.11219 
 
 ITRead=  0  0  0  0  0  0  0  0  0  0  0  0  0  0  0  0  0  0  0  0
 ITRead=  0  0  0  0  0  0  0  0  0  0  0  0  0  0  0  0  0  0  0  0
 ITRead=  0  0  0  0  0  0  0  0  0  0  0  0  0  0  0  0  0  0  0  0
 ITRead=  0  0  0  0  0  0  0  0  0  0  0  0  0  0  0
 MicOpt= -1 -1 -1 -1 -1 -1 -1 -1 -1 -1 -1 -1 -1 -1 -1 -1 -1 -1 -1 -1
 MicOpt= -1 -1 -1 -1 -1 -1 -1 -1 -1 -1 -1 -1 -1 -1 -1 -1 -1 -1 -1 -1
 MicOpt= -1 -1 -1 -1 -1 -1 -1 -1 -1 -1 -1 -1 -1 -1 -1 -1 -1 -1 -1 -1
 MicOpt= -1 -1 -1 -1 -1 -1 -1 -1 -1 -1 -1 -1 -1 -1 -1
 NAtoms=     75 NQM=       75 NQMF=       0 NMMI=      0 NMMIF=      0
                NMic=       0 NMicF=      0.
                    Isotopes and Nuclear Properties:
 (Nuclear quadrupole moments (NQMom) in fm**2, nuclear magnetic moments (NMagM)
  in nuclear magnetons)

  Atom         1           2           3           4           5           6           7           8           9          10
 IAtWgt=          12          12          12          12          12          12          12          12          12          12
 AtmWgt=  12.0000000  12.0000000  12.0000000  12.0000000  12.0000000  12.0000000  12.0000000  12.0000000  12.0000000  12.0000000
 NucSpn=           0           0           0           0           0           0           0           0           0           0
 AtZEff=  -0.0000000  -0.0000000  -0.0000000  -0.0000000  -0.0000000  -0.0000000  -0.0000000  -0.0000000  -0.0000000  -0.0000000
 NQMom=    0.0000000   0.0000000   0.0000000   0.0000000   0.0000000   0.0000000   0.0000000   0.0000000   0.0000000   0.0000000
 NMagM=    0.0000000   0.0000000   0.0000000   0.0000000   0.0000000   0.0000000   0.0000000   0.0000000   0.0000000   0.0000000
 AtZNuc=   6.0000000   6.0000000   6.0000000   6.0000000   6.0000000   6.0000000   6.0000000   6.0000000   6.0000000   6.0000000

  Atom        11          12          13          14          15          16          17          18          19          20
 IAtWgt=          12          12          12          12          12          12          12          12          12          12
 AtmWgt=  12.0000000  12.0000000  12.0000000  12.0000000  12.0000000  12.0000000  12.0000000  12.0000000  12.0000000  12.0000000
 NucSpn=           0           0           0           0           0           0           0           0           0           0
 AtZEff=  -0.0000000  -0.0000000  -0.0000000  -0.0000000  -0.0000000  -0.0000000  -0.0000000  -0.0000000  -0.0000000  -0.0000000
 NQMom=    0.0000000   0.0000000   0.0000000   0.0000000   0.0000000   0.0000000   0.0000000   0.0000000   0.0000000   0.0000000
 NMagM=    0.0000000   0.0000000   0.0000000   0.0000000   0.0000000   0.0000000   0.0000000   0.0000000   0.0000000   0.0000000
 AtZNuc=   6.0000000   6.0000000   6.0000000   6.0000000   6.0000000   6.0000000   6.0000000   6.0000000   6.0000000   6.0000000

  Atom        21          22          23          24          25          26          27          28          29          30
 IAtWgt=          12          12          12          12          12          12          12          12          12          12
 AtmWgt=  12.0000000  12.0000000  12.0000000  12.0000000  12.0000000  12.0000000  12.0000000  12.0000000  12.0000000  12.0000000
 NucSpn=           0           0           0           0           0           0           0           0           0           0
 AtZEff=  -0.0000000  -0.0000000  -0.0000000  -0.0000000  -0.0000000  -0.0000000  -0.0000000  -0.0000000  -0.0000000  -0.0000000
 NQMom=    0.0000000   0.0000000   0.0000000   0.0000000   0.0000000   0.0000000   0.0000000   0.0000000   0.0000000   0.0000000
 NMagM=    0.0000000   0.0000000   0.0000000   0.0000000   0.0000000   0.0000000   0.0000000   0.0000000   0.0000000   0.0000000
 AtZNuc=   6.0000000   6.0000000   6.0000000   6.0000000   6.0000000   6.0000000   6.0000000   6.0000000   6.0000000   6.0000000

  Atom        31          32          33          34          35          36          37          38          39          40
 IAtWgt=          12          12          12          12          12          12          12          12          12          12
 AtmWgt=  12.0000000  12.0000000  12.0000000  12.0000000  12.0000000  12.0000000  12.0000000  12.0000000  12.0000000  12.0000000
 NucSpn=           0           0           0           0           0           0           0           0           0           0
 AtZEff=  -0.0000000  -0.0000000  -0.0000000  -0.0000000  -0.0000000  -0.0000000  -0.0000000  -0.0000000  -0.0000000  -0.0000000
 NQMom=    0.0000000   0.0000000   0.0000000   0.0000000   0.0000000   0.0000000   0.0000000   0.0000000   0.0000000   0.0000000
 NMagM=    0.0000000   0.0000000   0.0000000   0.0000000   0.0000000   0.0000000   0.0000000   0.0000000   0.0000000   0.0000000
 AtZNuc=   6.0000000   6.0000000   6.0000000   6.0000000   6.0000000   6.0000000   6.0000000   6.0000000   6.0000000   6.0000000

  Atom        41          42          43          44          45          46          47          48          49          50
 IAtWgt=          12          12          12          12          12          12          12          12          12          12
 AtmWgt=  12.0000000  12.0000000  12.0000000  12.0000000  12.0000000  12.0000000  12.0000000  12.0000000  12.0000000  12.0000000
 NucSpn=           0           0           0           0           0           0           0           0           0           0
 AtZEff=  -0.0000000  -0.0000000  -0.0000000  -0.0000000  -0.0000000  -0.0000000  -0.0000000  -0.0000000  -0.0000000  -0.0000000
 NQMom=    0.0000000   0.0000000   0.0000000   0.0000000   0.0000000   0.0000000   0.0000000   0.0000000   0.0000000   0.0000000
 NMagM=    0.0000000   0.0000000   0.0000000   0.0000000   0.0000000   0.0000000   0.0000000   0.0000000   0.0000000   0.0000000
 AtZNuc=   6.0000000   6.0000000   6.0000000   6.0000000   6.0000000   6.0000000   6.0000000   6.0000000   6.0000000   6.0000000

  Atom        51          52          53          54          55          56          57          58          59          60
 IAtWgt=          12          12          12          12          12          12          12          12          12          12
 AtmWgt=  12.0000000  12.0000000  12.0000000  12.0000000  12.0000000  12.0000000  12.0000000  12.0000000  12.0000000  12.0000000
 NucSpn=           0           0           0           0           0           0           0           0           0           0
 AtZEff=  -0.0000000  -0.0000000  -0.0000000  -0.0000000  -0.0000000  -0.0000000  -0.0000000  -0.0000000  -0.0000000  -0.0000000
 NQMom=    0.0000000   0.0000000   0.0000000   0.0000000   0.0000000   0.0000000   0.0000000   0.0000000   0.0000000   0.0000000
 NMagM=    0.0000000   0.0000000   0.0000000   0.0000000   0.0000000   0.0000000   0.0000000   0.0000000   0.0000000   0.0000000
 AtZNuc=   6.0000000   6.0000000   6.0000000   6.0000000   6.0000000   6.0000000   6.0000000   6.0000000   6.0000000   6.0000000

  Atom        61          62          63          64          65          66          67          68          69          70
 IAtWgt=          12          12          12          12          12          12          35          35          35          35
 AtmWgt=  12.0000000  12.0000000  12.0000000  12.0000000  12.0000000  12.0000000  34.9688527  34.9688527  34.9688527  34.9688527
 NucSpn=           0           0           0           0           0           0           3           3           3           3
 AtZEff=  -0.0000000  -0.0000000  -0.0000000  -0.0000000  -0.0000000  -0.0000000  -0.0000000  -0.0000000  -0.0000000  -0.0000000
 NQMom=    0.0000000   0.0000000   0.0000000   0.0000000   0.0000000   0.0000000  -8.1650000  -8.1650000  -8.1650000  -8.1650000
 NMagM=    0.0000000   0.0000000   0.0000000   0.0000000   0.0000000   0.0000000   0.8218740   0.8218740   0.8218740   0.8218740
 AtZNuc=   6.0000000   6.0000000   6.0000000   6.0000000   6.0000000   6.0000000  17.0000000  17.0000000  17.0000000  17.0000000

  Atom        71          72          73          74          75
 IAtWgt=          35          35          35          35          35
 AtmWgt=  34.9688527  34.9688527  34.9688527  34.9688527  34.9688527
 NucSpn=           3           3           3           3           3
 AtZEff=  -0.0000000  -0.0000000  -0.0000000  -0.0000000  -0.0000000
 NQMom=   -8.1650000  -8.1650000  -8.1650000  -8.1650000  -8.1650000
 NMagM=    0.8218740   0.8218740   0.8218740   0.8218740   0.8218740
 AtZNuc=  17.0000000  17.0000000  17.0000000  17.0000000  17.0000000
 Leave Link  101 at Sat Jul 16 09:26:33 2022, MaxMem=  1342177280 cpu:              13.5 elap:               0.3
 (Enter /home/mkliu/g16/l103.exe)

 GradGradGradGradGradGradGradGradGradGradGradGradGradGradGradGradGradGrad
 Berny optimization.
 Initialization pass.
                           ----------------------------
                           !    Initial Parameters    !
                           ! (Angstroms and Degrees)  !
 --------------------------                            --------------------------
 ! Name  Definition              Value          Derivative Info.                !
 --------------------------------------------------------------------------------
 ! R1    R(1,2)                  1.5921         estimate D2E/DX2                !
 ! R2    R(1,4)                  1.4844         estimate D2E/DX2                !
 ! R3    R(1,7)                  1.5492         estimate D2E/DX2                !
 ! R4    R(1,67)                 1.7888         estimate D2E/DX2                !
 ! R5    R(2,3)                  1.582          estimate D2E/DX2                !
 ! R6    R(2,10)                 1.5666         estimate D2E/DX2                !
 ! R7    R(2,68)                 1.7744         estimate D2E/DX2                !
 ! R8    R(3,5)                  1.4797         estimate D2E/DX2                !
 ! R9    R(3,12)                 1.508          estimate D2E/DX2                !
 ! R10   R(3,69)                 1.7707         estimate D2E/DX2                !
 ! R11   R(4,5)                  1.3804         estimate D2E/DX2                !
 ! R12   R(4,6)                  1.3606         estimate D2E/DX2                !
 ! R13   R(5,15)                 1.3601         estimate D2E/DX2                !
 ! R14   R(6,8)                  1.4797         estimate D2E/DX2                !
 ! R15   R(6,17)                 1.4006         estimate D2E/DX2                !
 ! R16   R(7,8)                  1.6026         estimate D2E/DX2                !
 ! R17   R(7,9)                  1.4999         estimate D2E/DX2                !
 ! R18   R(7,73)                 1.7967         estimate D2E/DX2                !
 ! R19   R(8,20)                 1.4993         estimate D2E/DX2                !
 ! R20   R(8,74)                 1.8228         estimate D2E/DX2                !
 ! R21   R(9,11)                 1.3873         estimate D2E/DX2                !
 ! R22   R(9,22)                 1.3884         estimate D2E/DX2                !
 ! R23   R(10,11)                1.4985         estimate D2E/DX2                !
 ! R24   R(10,13)                1.5062         estimate D2E/DX2                !
 ! R25   R(10,75)                1.8108         estimate D2E/DX2                !
 ! R26   R(11,25)                1.4184         estimate D2E/DX2                !
 ! R27   R(12,13)                1.3658         estimate D2E/DX2                !
 ! R28   R(12,14)                1.3962         estimate D2E/DX2                !
 ! R29   R(13,27)                1.3882         estimate D2E/DX2                !
 ! R30   R(14,16)                1.519          estimate D2E/DX2                !
 ! R31   R(14,29)                1.4049         estimate D2E/DX2                !
 ! R32   R(15,16)                1.5126         estimate D2E/DX2                !
 ! R33   R(15,18)                1.4124         estimate D2E/DX2                !
 ! R34   R(16,32)                1.4996         estimate D2E/DX2                !
 ! R35   R(16,70)                1.7895         estimate D2E/DX2                !
 ! R36   R(17,18)                1.4051         estimate D2E/DX2                !
 ! R37   R(17,19)                1.4467         estimate D2E/DX2                !
 ! R38   R(18,33)                1.4106         estimate D2E/DX2                !
 ! R39   R(19,21)                1.4539         estimate D2E/DX2                !
 ! R40   R(19,35)                1.3964         estimate D2E/DX2                !
 ! R41   R(20,21)                1.4435         estimate D2E/DX2                !
 ! R42   R(20,23)                1.3751         estimate D2E/DX2                !
 ! R43   R(21,38)                1.4046         estimate D2E/DX2                !
 ! R44   R(22,23)                1.4628         estimate D2E/DX2                !
 ! R45   R(22,24)                1.4142         estimate D2E/DX2                !
 ! R46   R(23,40)                1.4278         estimate D2E/DX2                !
 ! R47   R(24,26)                1.3765         estimate D2E/DX2                !
 ! R48   R(24,41)                1.4376         estimate D2E/DX2                !
 ! R49   R(25,26)                1.4252         estimate D2E/DX2                !
 ! R50   R(25,28)                1.4178         estimate D2E/DX2                !
 ! R51   R(26,44)                1.4336         estimate D2E/DX2                !
 ! R52   R(27,28)                1.4393         estimate D2E/DX2                !
 ! R53   R(27,30)                1.4069         estimate D2E/DX2                !
 ! R54   R(28,45)                1.4347         estimate D2E/DX2                !
 ! R55   R(29,30)                1.3993         estimate D2E/DX2                !
 ! R56   R(29,31)                1.5212         estimate D2E/DX2                !
 ! R57   R(30,47)                1.5163         estimate D2E/DX2                !
 ! R58   R(31,34)                1.5054         estimate D2E/DX2                !
 ! R59   R(31,49)                1.5067         estimate D2E/DX2                !
 ! R60   R(31,71)                1.8043         estimate D2E/DX2                !
 ! R61   R(32,33)                1.4317         estimate D2E/DX2                !
 ! R62   R(32,34)                1.3529         estimate D2E/DX2                !
 ! R63   R(33,36)                1.37           estimate D2E/DX2                !
 ! R64   R(34,51)                1.4319         estimate D2E/DX2                !
 ! R65   R(35,36)                1.4434         estimate D2E/DX2                !
 ! R66   R(35,37)                1.4312         estimate D2E/DX2                !
 ! R67   R(36,52)                1.4217         estimate D2E/DX2                !
 ! R68   R(37,39)                1.3711         estimate D2E/DX2                !
 ! R69   R(37,53)                1.4419         estimate D2E/DX2                !
 ! R70   R(38,39)                1.4353         estimate D2E/DX2                !
 ! R71   R(38,42)                1.4306         estimate D2E/DX2                !
 ! R72   R(39,57)                1.4409         estimate D2E/DX2                !
 ! R73   R(40,41)                1.4331         estimate D2E/DX2                !
 ! R74   R(40,42)                1.3754         estimate D2E/DX2                !
 ! R75   R(41,43)                1.3824         estimate D2E/DX2                !
 ! R76   R(42,58)                1.4414         estimate D2E/DX2                !
 ! R77   R(43,46)                1.4457         estimate D2E/DX2                !
 ! R78   R(43,59)                1.4355         estimate D2E/DX2                !
 ! R79   R(44,45)                1.4414         estimate D2E/DX2                !
 ! R80   R(44,46)                1.3777         estimate D2E/DX2                !
 ! R81   R(45,48)                1.3738         estimate D2E/DX2                !
 ! R82   R(46,61)                1.4295         estimate D2E/DX2                !
 ! R83   R(47,48)                1.5042         estimate D2E/DX2                !
 ! R84   R(47,50)                1.5008         estimate D2E/DX2                !
 ! R85   R(47,72)                1.8183         estimate D2E/DX2                !
 ! R86   R(48,62)                1.4173         estimate D2E/DX2                !
 ! R87   R(49,50)                1.3556         estimate D2E/DX2                !
 ! R88   R(49,54)                1.4339         estimate D2E/DX2                !
 ! R89   R(50,63)                1.4315         estimate D2E/DX2                !
 ! R90   R(51,52)                1.3888         estimate D2E/DX2                !
 ! R91   R(51,54)                1.424          estimate D2E/DX2                !
 ! R92   R(52,53)                1.4315         estimate D2E/DX2                !
 ! R93   R(53,55)                1.3785         estimate D2E/DX2                !
 ! R94   R(54,56)                1.3864         estimate D2E/DX2                !
 ! R95   R(55,56)                1.4377         estimate D2E/DX2                !
 ! R96   R(55,60)                1.4405         estimate D2E/DX2                !
 ! R97   R(56,64)                1.4232         estimate D2E/DX2                !
 ! R98   R(57,58)                1.4355         estimate D2E/DX2                !
 ! R99   R(57,60)                1.3802         estimate D2E/DX2                !
 ! R100  R(58,59)                1.3821         estimate D2E/DX2                !
 ! R101  R(59,65)                1.4421         estimate D2E/DX2                !
 ! R102  R(60,66)                1.4355         estimate D2E/DX2                !
 ! R103  R(61,62)                1.3951         estimate D2E/DX2                !
 ! R104  R(61,65)                1.4305         estimate D2E/DX2                !
 ! R105  R(62,63)                1.432          estimate D2E/DX2                !
 ! R106  R(63,64)                1.3777         estimate D2E/DX2                !
 ! R107  R(64,66)                1.4393         estimate D2E/DX2                !
 ! R108  R(65,66)                1.3831         estimate D2E/DX2                !
 ! A1    A(2,1,4)              103.3005         estimate D2E/DX2                !
 ! A2    A(2,1,7)              120.6854         estimate D2E/DX2                !
 ! A3    A(2,1,67)             112.2617         estimate D2E/DX2                !
 ! A4    A(4,1,7)              101.6202         estimate D2E/DX2                !
 ! A5    A(4,1,67)             107.0596         estimate D2E/DX2                !
 ! A6    A(7,1,67)             110.2143         estimate D2E/DX2                !
 ! A7    A(1,2,3)              104.6976         estimate D2E/DX2                !
 ! A8    A(1,2,10)             117.1436         estimate D2E/DX2                !
 ! A9    A(1,2,68)             108.7403         estimate D2E/DX2                !
 ! A10   A(3,2,10)             102.7909         estimate D2E/DX2                !
 ! A11   A(3,2,68)             112.1388         estimate D2E/DX2                !
 ! A12   A(10,2,68)            111.0729         estimate D2E/DX2                !
 ! A13   A(2,3,5)              105.802          estimate D2E/DX2                !
 ! A14   A(2,3,12)             107.6219         estimate D2E/DX2                !
 ! A15   A(2,3,69)             115.4825         estimate D2E/DX2                !
 ! A16   A(5,3,12)             100.477          estimate D2E/DX2                !
 ! A17   A(5,3,69)             115.2628         estimate D2E/DX2                !
 ! A18   A(12,3,69)            110.9046         estimate D2E/DX2                !
 ! A19   A(1,4,5)              113.6833         estimate D2E/DX2                !
 ! A20   A(1,4,6)              114.7492         estimate D2E/DX2                !
 ! A21   A(5,4,6)              123.931          estimate D2E/DX2                !
 ! A22   A(3,5,4)              110.8768         estimate D2E/DX2                !
 ! A23   A(3,5,15)             123.3872         estimate D2E/DX2                !
 ! A24   A(4,5,15)             117.1934         estimate D2E/DX2                !
 ! A25   A(4,6,8)              110.8746         estimate D2E/DX2                !
 ! A26   A(4,6,17)             120.1983         estimate D2E/DX2                !
 ! A27   A(8,6,17)             125.9829         estimate D2E/DX2                !
 ! A28   A(1,7,8)              105.5627         estimate D2E/DX2                !
 ! A29   A(1,7,9)              114.2557         estimate D2E/DX2                !
 ! A30   A(1,7,73)             113.2704         estimate D2E/DX2                !
 ! A31   A(8,7,9)              108.7193         estimate D2E/DX2                !
 ! A32   A(8,7,73)             111.0886         estimate D2E/DX2                !
 ! A33   A(9,7,73)             103.9884         estimate D2E/DX2                !
 ! A34   A(6,8,7)              102.2087         estimate D2E/DX2                !
 ! A35   A(6,8,20)             110.3391         estimate D2E/DX2                !
 ! A36   A(6,8,74)             108.7927         estimate D2E/DX2                !
 ! A37   A(7,8,20)             119.0107         estimate D2E/DX2                !
 ! A38   A(7,8,74)             109.8886         estimate D2E/DX2                !
 ! A39   A(20,8,74)            106.3131         estimate D2E/DX2                !
 ! A40   A(7,9,11)             124.8644         estimate D2E/DX2                !
 ! A41   A(7,9,22)             115.9389         estimate D2E/DX2                !
 ! A42   A(11,9,22)            119.1513         estimate D2E/DX2                !
 ! A43   A(2,10,11)            116.2353         estimate D2E/DX2                !
 ! A44   A(2,10,13)            106.2579         estimate D2E/DX2                !
 ! A45   A(2,10,75)            112.3067         estimate D2E/DX2                !
 ! A46   A(11,10,13)           104.0633         estimate D2E/DX2                !
 ! A47   A(11,10,75)           108.2668         estimate D2E/DX2                !
 ! A48   A(13,10,75)           109.2112         estimate D2E/DX2                !
 ! A49   A(9,11,10)            124.648          estimate D2E/DX2                !
 ! A50   A(9,11,25)            118.3028         estimate D2E/DX2                !
 ! A51   A(10,11,25)           113.8032         estimate D2E/DX2                !
 ! A52   A(3,12,13)            109.3346         estimate D2E/DX2                !
 ! A53   A(3,12,14)            126.5395         estimate D2E/DX2                !
 ! A54   A(13,12,14)           121.0095         estimate D2E/DX2                !
 ! A55   A(10,13,12)           113.1479         estimate D2E/DX2                !
 ! A56   A(10,13,27)           124.7386         estimate D2E/DX2                !
 ! A57   A(12,13,27)           120.2131         estimate D2E/DX2                !
 ! A58   A(12,14,16)           117.7696         estimate D2E/DX2                !
 ! A59   A(12,14,29)           119.3163         estimate D2E/DX2                !
 ! A60   A(16,14,29)           121.038          estimate D2E/DX2                !
 ! A61   A(5,15,16)            123.3572         estimate D2E/DX2                !
 ! A62   A(5,15,18)            119.3269         estimate D2E/DX2                !
 ! A63   A(16,15,18)           110.6153         estimate D2E/DX2                !
 ! A64   A(14,16,15)           103.1628         estimate D2E/DX2                !
 ! A65   A(14,16,32)           109.069          estimate D2E/DX2                !
 ! A66   A(14,16,70)           111.7918         estimate D2E/DX2                !
 ! A67   A(15,16,32)           101.27           estimate D2E/DX2                !
 ! A68   A(15,16,70)           116.8779         estimate D2E/DX2                !
 ! A69   A(32,16,70)           113.6566         estimate D2E/DX2                !
 ! A70   A(6,17,18)            115.0755         estimate D2E/DX2                !
 ! A71   A(6,17,19)            119.3038         estimate D2E/DX2                !
 ! A72   A(18,17,19)           120.6832         estimate D2E/DX2                !
 ! A73   A(15,18,17)           122.8209         estimate D2E/DX2                !
 ! A74   A(15,18,33)           108.4514         estimate D2E/DX2                !
 ! A75   A(17,18,33)           121.646          estimate D2E/DX2                !
 ! A76   A(17,19,21)           117.9765         estimate D2E/DX2                !
 ! A77   A(17,19,35)           116.0683         estimate D2E/DX2                !
 ! A78   A(21,19,35)           119.453          estimate D2E/DX2                !
 ! A79   A(8,20,21)            121.1152         estimate D2E/DX2                !
 ! A80   A(8,20,23)            116.5751         estimate D2E/DX2                !
 ! A81   A(21,20,23)           118.8541         estimate D2E/DX2                !
 ! A82   A(19,21,20)           120.4037         estimate D2E/DX2                !
 ! A83   A(19,21,38)           117.4543         estimate D2E/DX2                !
 ! A84   A(20,21,38)           117.0432         estimate D2E/DX2                !
 ! A85   A(9,22,23)            121.551          estimate D2E/DX2                !
 ! A86   A(9,22,24)            122.1635         estimate D2E/DX2                !
 ! A87   A(23,22,24)           107.9632         estimate D2E/DX2                !
 ! A88   A(20,23,22)           118.8498         estimate D2E/DX2                !
 ! A89   A(20,23,40)           122.4308         estimate D2E/DX2                !
 ! A90   A(22,23,40)           106.7627         estimate D2E/DX2                !
 ! A91   A(22,24,26)           119.9655         estimate D2E/DX2                !
 ! A92   A(22,24,41)           108.8809         estimate D2E/DX2                !
 ! A93   A(26,24,41)           120.6887         estimate D2E/DX2                !
 ! A94   A(11,25,26)           122.025          estimate D2E/DX2                !
 ! A95   A(11,25,28)           122.198          estimate D2E/DX2                !
 ! A96   A(26,25,28)           106.5613         estimate D2E/DX2                !
 ! A97   A(24,26,25)           117.4231         estimate D2E/DX2                !
 ! A98   A(24,26,44)           119.9798         estimate D2E/DX2                !
 ! A99   A(25,26,44)           109.4427         estimate D2E/DX2                !
 ! A100  A(13,27,28)           115.2705         estimate D2E/DX2                !
 ! A101  A(13,27,30)           118.9783         estimate D2E/DX2                !
 ! A102  A(28,27,30)           123.0775         estimate D2E/DX2                !
 ! A103  A(25,28,27)           116.1937         estimate D2E/DX2                !
 ! A104  A(25,28,45)           109.9735         estimate D2E/DX2                !
 ! A105  A(27,28,45)           118.5686         estimate D2E/DX2                !
 ! A106  A(14,29,30)           118.4711         estimate D2E/DX2                !
 ! A107  A(14,29,31)           120.0104         estimate D2E/DX2                !
 ! A108  A(30,29,31)           120.7677         estimate D2E/DX2                !
 ! A109  A(27,30,29)           120.706          estimate D2E/DX2                !
 ! A110  A(27,30,47)           116.7873         estimate D2E/DX2                !
 ! A111  A(29,30,47)           121.5775         estimate D2E/DX2                !
 ! A112  A(29,31,34)           109.2485         estimate D2E/DX2                !
 ! A113  A(29,31,49)           111.0055         estimate D2E/DX2                !
 ! A114  A(29,31,71)           107.7162         estimate D2E/DX2                !
 ! A115  A(34,31,49)           100.9042         estimate D2E/DX2                !
 ! A116  A(34,31,71)           114.3112         estimate D2E/DX2                !
 ! A117  A(49,31,71)           113.5508         estimate D2E/DX2                !
 ! A118  A(16,32,33)           109.9323         estimate D2E/DX2                !
 ! A119  A(16,32,34)           123.14           estimate D2E/DX2                !
 ! A120  A(33,32,34)           118.0087         estimate D2E/DX2                !
 ! A121  A(18,33,32)           108.6071         estimate D2E/DX2                !
 ! A122  A(18,33,36)           118.0925         estimate D2E/DX2                !
 ! A123  A(32,33,36)           123.1813         estimate D2E/DX2                !
 ! A124  A(31,34,32)           121.3017         estimate D2E/DX2                !
 ! A125  A(31,34,51)           111.2408         estimate D2E/DX2                !
 ! A126  A(32,34,51)           119.5731         estimate D2E/DX2                !
 ! A127  A(19,35,36)           121.5812         estimate D2E/DX2                !
 ! A128  A(19,35,37)           121.8596         estimate D2E/DX2                !
 ! A129  A(36,35,37)           106.8703         estimate D2E/DX2                !
 ! A130  A(33,36,35)           121.1308         estimate D2E/DX2                !
 ! A131  A(33,36,52)           118.0906         estimate D2E/DX2                !
 ! A132  A(35,36,52)           109.5666         estimate D2E/DX2                !
 ! A133  A(35,37,39)           119.0765         estimate D2E/DX2                !
 ! A134  A(35,37,53)           107.5153         estimate D2E/DX2                !
 ! A135  A(39,37,53)           121.5189         estimate D2E/DX2                !
 ! A136  A(21,38,39)           121.9023         estimate D2E/DX2                !
 ! A137  A(21,38,42)           122.5575         estimate D2E/DX2                !
 ! A138  A(39,38,42)           106.5248         estimate D2E/DX2                !
 ! A139  A(37,39,38)           120.1888         estimate D2E/DX2                !
 ! A140  A(37,39,57)           119.2257         estimate D2E/DX2                !
 ! A141  A(38,39,57)           109.496          estimate D2E/DX2                !
 ! A142  A(23,40,41)           109.1389         estimate D2E/DX2                !
 ! A143  A(23,40,42)           119.3402         estimate D2E/DX2                !
 ! A144  A(41,40,42)           119.9041         estimate D2E/DX2                !
 ! A145  A(24,41,40)           107.2148         estimate D2E/DX2                !
 ! A146  A(24,41,43)           119.4153         estimate D2E/DX2                !
 ! A147  A(40,41,43)           120.2697         estimate D2E/DX2                !
 ! A148  A(38,42,40)           118.5558         estimate D2E/DX2                !
 ! A149  A(38,42,58)           108.8563         estimate D2E/DX2                !
 ! A150  A(40,42,58)           120.2296         estimate D2E/DX2                !
 ! A151  A(41,43,46)           119.733          estimate D2E/DX2                !
 ! A152  A(41,43,59)           119.7161         estimate D2E/DX2                !
 ! A153  A(46,43,59)           108.0922         estimate D2E/DX2                !
 ! A154  A(26,44,45)           107.2584         estimate D2E/DX2                !
 ! A155  A(26,44,46)           119.7282         estimate D2E/DX2                !
 ! A156  A(45,44,46)           120.3001         estimate D2E/DX2                !
 ! A157  A(28,45,44)           106.696          estimate D2E/DX2                !
 ! A158  A(28,45,48)           119.7563         estimate D2E/DX2                !
 ! A159  A(44,45,48)           121.0712         estimate D2E/DX2                !
 ! A160  A(43,46,44)           120.3557         estimate D2E/DX2                !
 ! A161  A(43,46,61)           108.1632         estimate D2E/DX2                !
 ! A162  A(44,46,61)           119.0935         estimate D2E/DX2                !
 ! A163  A(30,47,48)           112.5809         estimate D2E/DX2                !
 ! A164  A(30,47,50)           110.5874         estimate D2E/DX2                !
 ! A165  A(30,47,72)           106.0664         estimate D2E/DX2                !
 ! A166  A(48,47,50)           101.2241         estimate D2E/DX2                !
 ! A167  A(48,47,72)           113.5331         estimate D2E/DX2                !
 ! A168  A(50,47,72)           112.9909         estimate D2E/DX2                !
 ! A169  A(45,48,47)           122.7309         estimate D2E/DX2                !
 ! A170  A(45,48,62)           118.1904         estimate D2E/DX2                !
 ! A171  A(47,48,62)           111.6098         estimate D2E/DX2                !
 ! A172  A(31,49,50)           122.4467         estimate D2E/DX2                !
 ! A173  A(31,49,54)           110.8776         estimate D2E/DX2                !
 ! A174  A(50,49,54)           119.0556         estimate D2E/DX2                !
 ! A175  A(47,50,49)           122.594          estimate D2E/DX2                !
 ! A176  A(47,50,63)           110.4081         estimate D2E/DX2                !
 ! A177  A(49,50,63)           119.8315         estimate D2E/DX2                !
 ! A178  A(34,51,52)           121.3466         estimate D2E/DX2                !
 ! A179  A(34,51,54)           108.1733         estimate D2E/DX2                !
 ! A180  A(52,51,54)           119.1293         estimate D2E/DX2                !
 ! A181  A(36,52,51)           118.7974         estimate D2E/DX2                !
 ! A182  A(36,52,53)           106.5737         estimate D2E/DX2                !
 ! A183  A(51,52,53)           121.5093         estimate D2E/DX2                !
 ! A184  A(37,53,52)           109.0686         estimate D2E/DX2                !
 ! A185  A(37,53,55)           119.0718         estimate D2E/DX2                !
 ! A186  A(52,53,55)           119.3464         estimate D2E/DX2                !
 ! A187  A(49,54,51)           108.3033         estimate D2E/DX2                !
 ! A188  A(49,54,56)           121.2345         estimate D2E/DX2                !
 ! A189  A(51,54,56)           119.3108         estimate D2E/DX2                !
 ! A190  A(53,55,56)           119.0696         estimate D2E/DX2                !
 ! A191  A(53,55,60)           119.5249         estimate D2E/DX2                !
 ! A192  A(56,55,60)           109.1494         estimate D2E/DX2                !
 ! A193  A(54,56,55)           121.4164         estimate D2E/DX2                !
 ! A194  A(54,56,64)           119.4991         estimate D2E/DX2                !
 ! A195  A(55,56,64)           107.2745         estimate D2E/DX2                !
 ! A196  A(39,57,58)           106.8114         estimate D2E/DX2                !
 ! A197  A(39,57,60)           119.3909         estimate D2E/DX2                !
 ! A198  A(58,57,60)           120.0987         estimate D2E/DX2                !
 ! A199  A(42,58,57)           107.9518         estimate D2E/DX2                !
 ! A200  A(42,58,59)           119.542          estimate D2E/DX2                !
 ! A201  A(57,58,59)           120.054          estimate D2E/DX2                !
 ! A202  A(43,59,58)           120.2113         estimate D2E/DX2                !
 ! A203  A(43,59,65)           107.1227         estimate D2E/DX2                !
 ! A204  A(58,59,65)           119.81           estimate D2E/DX2                !
 ! A205  A(55,60,57)           120.9284         estimate D2E/DX2                !
 ! A206  A(55,60,66)           106.594          estimate D2E/DX2                !
 ! A207  A(57,60,66)           120.0137         estimate D2E/DX2                !
 ! A208  A(46,61,62)           119.5477         estimate D2E/DX2                !
 ! A209  A(46,61,65)           107.6771         estimate D2E/DX2                !
 ! A210  A(62,61,65)           120.3403         estimate D2E/DX2                !
 ! A211  A(48,62,61)           121.7203         estimate D2E/DX2                !
 ! A212  A(48,62,63)           107.6815         estimate D2E/DX2                !
 ! A213  A(61,62,63)           119.937          estimate D2E/DX2                !
 ! A214  A(50,63,62)           108.7452         estimate D2E/DX2                !
 ! A215  A(50,63,64)           121.7371         estimate D2E/DX2                !
 ! A216  A(62,63,64)           119.2234         estimate D2E/DX2                !
 ! A217  A(56,64,63)           118.5561         estimate D2E/DX2                !
 ! A218  A(56,64,66)           108.444          estimate D2E/DX2                !
 ! A219  A(63,64,66)           121.1314         estimate D2E/DX2                !
 ! A220  A(59,65,61)           108.9035         estimate D2E/DX2                !
 ! A221  A(59,65,66)           119.8618         estimate D2E/DX2                !
 ! A222  A(61,65,66)           119.7219         estimate D2E/DX2                !
 ! A223  A(60,66,64)           108.4821         estimate D2E/DX2                !
 ! A224  A(60,66,65)           120.0453         estimate D2E/DX2                !
 ! A225  A(64,66,65)           119.4876         estimate D2E/DX2                !
 ! D1    D(4,1,2,3)             11.6515         estimate D2E/DX2                !
 ! D2    D(4,1,2,10)          -101.4082         estimate D2E/DX2                !
 ! D3    D(4,1,2,68)           131.678          estimate D2E/DX2                !
 ! D4    D(7,1,2,3)            124.0444         estimate D2E/DX2                !
 ! D5    D(7,1,2,10)            10.9847         estimate D2E/DX2                !
 ! D6    D(7,1,2,68)          -115.9291         estimate D2E/DX2                !
 ! D7    D(67,1,2,3)          -103.3411         estimate D2E/DX2                !
 ! D8    D(67,1,2,10)          143.5992         estimate D2E/DX2                !
 ! D9    D(67,1,2,68)           16.6854         estimate D2E/DX2                !
 ! D10   D(2,1,4,5)            -13.0391         estimate D2E/DX2                !
 ! D11   D(2,1,4,6)            137.8143         estimate D2E/DX2                !
 ! D12   D(7,1,4,5)           -138.7698         estimate D2E/DX2                !
 ! D13   D(7,1,4,6)             12.0837         estimate D2E/DX2                !
 ! D14   D(67,1,4,5)           105.6292         estimate D2E/DX2                !
 ! D15   D(67,1,4,6)          -103.5173         estimate D2E/DX2                !
 ! D16   D(2,1,7,8)           -133.5148         estimate D2E/DX2                !
 ! D17   D(2,1,7,9)            -14.1156         estimate D2E/DX2                !
 ! D18   D(2,1,7,73)           104.7258         estimate D2E/DX2                !
 ! D19   D(4,1,7,8)            -20.2401         estimate D2E/DX2                !
 ! D20   D(4,1,7,9)             99.1592         estimate D2E/DX2                !
 ! D21   D(4,1,7,73)          -141.9994         estimate D2E/DX2                !
 ! D22   D(67,1,7,8)            93.0185         estimate D2E/DX2                !
 ! D23   D(67,1,7,9)          -147.5822         estimate D2E/DX2                !
 ! D24   D(67,1,7,73)          -28.7409         estimate D2E/DX2                !
 ! D25   D(1,2,3,5)             -7.2067         estimate D2E/DX2                !
 ! D26   D(1,2,3,12)          -113.9558         estimate D2E/DX2                !
 ! D27   D(1,2,3,69)           121.5646         estimate D2E/DX2                !
 ! D28   D(10,2,3,5)           115.6956         estimate D2E/DX2                !
 ! D29   D(10,2,3,12)            8.9465         estimate D2E/DX2                !
 ! D30   D(10,2,3,69)         -115.5331         estimate D2E/DX2                !
 ! D31   D(68,2,3,5)          -124.9363         estimate D2E/DX2                !
 ! D32   D(68,2,3,12)          128.3146         estimate D2E/DX2                !
 ! D33   D(68,2,3,69)            3.835          estimate D2E/DX2                !
 ! D34   D(1,2,10,11)           -7.136          estimate D2E/DX2                !
 ! D35   D(1,2,10,13)          108.0719         estimate D2E/DX2                !
 ! D36   D(1,2,10,75)         -132.5792         estimate D2E/DX2                !
 ! D37   D(3,2,10,11)         -121.2635         estimate D2E/DX2                !
 ! D38   D(3,2,10,13)           -6.0556         estimate D2E/DX2                !
 ! D39   D(3,2,10,75)          113.2933         estimate D2E/DX2                !
 ! D40   D(68,2,10,11)         118.6294         estimate D2E/DX2                !
 ! D41   D(68,2,10,13)        -126.1627         estimate D2E/DX2                !
 ! D42   D(68,2,10,75)          -6.8138         estimate D2E/DX2                !
 ! D43   D(2,3,5,4)             -0.4343         estimate D2E/DX2                !
 ! D44   D(2,3,5,15)          -147.2737         estimate D2E/DX2                !
 ! D45   D(12,3,5,4)           111.4228         estimate D2E/DX2                !
 ! D46   D(12,3,5,15)          -35.4166         estimate D2E/DX2                !
 ! D47   D(69,3,5,4)          -129.335          estimate D2E/DX2                !
 ! D48   D(69,3,5,15)           83.8256         estimate D2E/DX2                !
 ! D49   D(2,3,12,13)           -8.9436         estimate D2E/DX2                !
 ! D50   D(2,3,12,14)          151.0317         estimate D2E/DX2                !
 ! D51   D(5,3,12,13)         -119.3883         estimate D2E/DX2                !
 ! D52   D(5,3,12,14)           40.5869         estimate D2E/DX2                !
 ! D53   D(69,3,12,13)         118.2529         estimate D2E/DX2                !
 ! D54   D(69,3,12,14)         -81.7719         estimate D2E/DX2                !
 ! D55   D(1,4,5,3)              8.922          estimate D2E/DX2                !
 ! D56   D(1,4,5,15)           158.0265         estimate D2E/DX2                !
 ! D57   D(6,4,5,3)           -138.8637         estimate D2E/DX2                !
 ! D58   D(6,4,5,15)            10.2409         estimate D2E/DX2                !
 ! D59   D(1,4,6,8)              2.2947         estimate D2E/DX2                !
 ! D60   D(1,4,6,17)          -159.4175         estimate D2E/DX2                !
 ! D61   D(5,4,6,8)            149.7765         estimate D2E/DX2                !
 ! D62   D(5,4,6,17)           -11.9357         estimate D2E/DX2                !
 ! D63   D(3,5,15,16)           -3.2224         estimate D2E/DX2                !
 ! D64   D(3,5,15,18)          145.3537         estimate D2E/DX2                !
 ! D65   D(4,5,15,16)         -148.1518         estimate D2E/DX2                !
 ! D66   D(4,5,15,18)            0.4243         estimate D2E/DX2                !
 ! D67   D(4,6,8,7)            -15.0835         estimate D2E/DX2                !
 ! D68   D(4,6,8,20)          -142.6292         estimate D2E/DX2                !
 ! D69   D(4,6,8,74)           101.1027         estimate D2E/DX2                !
 ! D70   D(17,6,8,7)           145.3345         estimate D2E/DX2                !
 ! D71   D(17,6,8,20)           17.7888         estimate D2E/DX2                !
 ! D72   D(17,6,8,74)          -98.4793         estimate D2E/DX2                !
 ! D73   D(4,6,17,18)            2.5569         estimate D2E/DX2                !
 ! D74   D(4,6,17,19)          157.8812         estimate D2E/DX2                !
 ! D75   D(8,6,17,18)         -156.1998         estimate D2E/DX2                !
 ! D76   D(8,6,17,19)           -0.8755         estimate D2E/DX2                !
 ! D77   D(1,7,8,6)             21.8193         estimate D2E/DX2                !
 ! D78   D(1,7,8,20)           143.5972         estimate D2E/DX2                !
 ! D79   D(1,7,8,74)           -93.5708         estimate D2E/DX2                !
 ! D80   D(9,7,8,6)           -101.1803         estimate D2E/DX2                !
 ! D81   D(9,7,8,20)            20.5975         estimate D2E/DX2                !
 ! D82   D(9,7,8,74)           143.4296         estimate D2E/DX2                !
 ! D83   D(73,7,8,6)           144.9772         estimate D2E/DX2                !
 ! D84   D(73,7,8,20)          -93.245          estimate D2E/DX2                !
 ! D85   D(73,7,8,74)           29.5871         estimate D2E/DX2                !
 ! D86   D(1,7,9,11)            15.2241         estimate D2E/DX2                !
 ! D87   D(1,7,9,22)          -162.2963         estimate D2E/DX2                !
 ! D88   D(8,7,9,11)           132.8302         estimate D2E/DX2                !
 ! D89   D(8,7,9,22)           -44.6902         estimate D2E/DX2                !
 ! D90   D(73,7,9,11)         -108.7497         estimate D2E/DX2                !
 ! D91   D(73,7,9,22)           73.7299         estimate D2E/DX2                !
 ! D92   D(6,8,20,21)          -25.4229         estimate D2E/DX2                !
 ! D93   D(6,8,20,23)          133.3571         estimate D2E/DX2                !
 ! D94   D(7,8,20,21)         -143.0335         estimate D2E/DX2                !
 ! D95   D(7,8,20,23)           15.7465         estimate D2E/DX2                !
 ! D96   D(74,8,20,21)          92.3822         estimate D2E/DX2                !
 ! D97   D(74,8,20,23)        -108.8378         estimate D2E/DX2                !
 ! D98   D(7,9,11,10)          -12.9366         estimate D2E/DX2                !
 ! D99   D(7,9,11,25)         -171.2733         estimate D2E/DX2                !
 ! D100  D(22,9,11,10)         164.5102         estimate D2E/DX2                !
 ! D101  D(22,9,11,25)           6.1735         estimate D2E/DX2                !
 ! D102  D(7,9,22,23)           35.1866         estimate D2E/DX2                !
 ! D103  D(7,9,22,24)          179.6397         estimate D2E/DX2                !
 ! D104  D(11,9,22,23)        -142.4839         estimate D2E/DX2                !
 ! D105  D(11,9,22,24)           1.9692         estimate D2E/DX2                !
 ! D106  D(2,10,11,9)            8.1476         estimate D2E/DX2                !
 ! D107  D(2,10,11,25)         167.3395         estimate D2E/DX2                !
 ! D108  D(13,10,11,9)        -108.2893         estimate D2E/DX2                !
 ! D109  D(13,10,11,25)         50.9026         estimate D2E/DX2                !
 ! D110  D(75,10,11,9)         135.6129         estimate D2E/DX2                !
 ! D111  D(75,10,11,25)        -65.1952         estimate D2E/DX2                !
 ! D112  D(2,10,13,12)           0.9406         estimate D2E/DX2                !
 ! D113  D(2,10,13,27)        -163.3064         estimate D2E/DX2                !
 ! D114  D(11,10,13,12)        124.1536         estimate D2E/DX2                !
 ! D115  D(11,10,13,27)        -40.0935         estimate D2E/DX2                !
 ! D116  D(75,10,13,12)       -120.4124         estimate D2E/DX2                !
 ! D117  D(75,10,13,27)         75.3406         estimate D2E/DX2                !
 ! D118  D(9,11,25,26)         -11.7394         estimate D2E/DX2                !
 ! D119  D(9,11,25,28)         130.5546         estimate D2E/DX2                !
 ! D120  D(10,11,25,26)       -172.354          estimate D2E/DX2                !
 ! D121  D(10,11,25,28)        -30.06           estimate D2E/DX2                !
 ! D122  D(3,12,13,10)           5.0586         estimate D2E/DX2                !
 ! D123  D(3,12,13,27)         170.0972         estimate D2E/DX2                !
 ! D124  D(14,12,13,10)       -156.2181         estimate D2E/DX2                !
 ! D125  D(14,12,13,27)          8.8205         estimate D2E/DX2                !
 ! D126  D(3,12,14,16)          -5.4674         estimate D2E/DX2                !
 ! D127  D(3,12,14,29)        -170.0468         estimate D2E/DX2                !
 ! D128  D(13,12,14,16)        152.385          estimate D2E/DX2                !
 ! D129  D(13,12,14,29)        -12.1943         estimate D2E/DX2                !
 ! D130  D(10,13,27,28)          2.7156         estimate D2E/DX2                !
 ! D131  D(10,13,27,30)        164.7685         estimate D2E/DX2                !
 ! D132  D(12,13,27,28)       -160.4939         estimate D2E/DX2                !
 ! D133  D(12,13,27,30)          1.559          estimate D2E/DX2                !
 ! D134  D(12,14,16,15)        -34.1928         estimate D2E/DX2                !
 ! D135  D(12,14,16,32)       -141.2424         estimate D2E/DX2                !
 ! D136  D(12,14,16,70)         92.2145         estimate D2E/DX2                !
 ! D137  D(29,14,16,15)        130.1078         estimate D2E/DX2                !
 ! D138  D(29,14,16,32)         23.0581         estimate D2E/DX2                !
 ! D139  D(29,14,16,70)       -103.485          estimate D2E/DX2                !
 ! D140  D(12,14,29,30)          5.0602         estimate D2E/DX2                !
 ! D141  D(12,14,29,31)        175.213          estimate D2E/DX2                !
 ! D142  D(16,14,29,30)       -159.002          estimate D2E/DX2                !
 ! D143  D(16,14,29,31)         11.1508         estimate D2E/DX2                !
 ! D144  D(5,15,16,14)          40.0512         estimate D2E/DX2                !
 ! D145  D(5,15,16,32)         152.9263         estimate D2E/DX2                !
 ! D146  D(5,15,16,70)         -83.0389         estimate D2E/DX2                !
 ! D147  D(18,15,16,14)       -110.894          estimate D2E/DX2                !
 ! D148  D(18,15,16,32)          1.9811         estimate D2E/DX2                !
 ! D149  D(18,15,16,70)        126.0159         estimate D2E/DX2                !
 ! D150  D(5,15,18,17)          -9.4594         estimate D2E/DX2                !
 ! D151  D(5,15,18,33)        -160.3114         estimate D2E/DX2                !
 ! D152  D(16,15,18,17)        142.813          estimate D2E/DX2                !
 ! D153  D(16,15,18,33)         -8.039          estimate D2E/DX2                !
 ! D154  D(14,16,32,33)        113.0539         estimate D2E/DX2                !
 ! D155  D(14,16,32,34)        -33.388          estimate D2E/DX2                !
 ! D156  D(15,16,32,33)          4.7194         estimate D2E/DX2                !
 ! D157  D(15,16,32,34)       -141.7225         estimate D2E/DX2                !
 ! D158  D(70,16,32,33)       -121.4778         estimate D2E/DX2                !
 ! D159  D(70,16,32,34)         92.0803         estimate D2E/DX2                !
 ! D160  D(6,17,18,15)           7.7829         estimate D2E/DX2                !
 ! D161  D(6,17,18,33)         154.9132         estimate D2E/DX2                !
 ! D162  D(19,17,18,15)       -147.1725         estimate D2E/DX2                !
 ! D163  D(19,17,18,33)         -0.0421         estimate D2E/DX2                !
 ! D164  D(6,17,19,21)          -9.8073         estimate D2E/DX2                !
 ! D165  D(6,17,19,35)        -161.412          estimate D2E/DX2                !
 ! D166  D(18,17,19,21)        144.1085         estimate D2E/DX2                !
 ! D167  D(18,17,19,35)         -7.4961         estimate D2E/DX2                !
 ! D168  D(15,18,33,32)         10.9776         estimate D2E/DX2                !
 ! D169  D(15,18,33,36)        157.521          estimate D2E/DX2                !
 ! D170  D(17,18,33,32)       -140.2841         estimate D2E/DX2                !
 ! D171  D(17,18,33,36)          6.2594         estimate D2E/DX2                !
 ! D172  D(17,19,21,20)          1.6524         estimate D2E/DX2                !
 ! D173  D(17,19,21,38)       -152.3646         estimate D2E/DX2                !
 ! D174  D(35,19,21,20)        152.2739         estimate D2E/DX2                !
 ! D175  D(35,19,21,38)         -1.7432         estimate D2E/DX2                !
 ! D176  D(17,19,35,36)          9.0525         estimate D2E/DX2                !
 ! D177  D(17,19,35,37)        150.6008         estimate D2E/DX2                !
 ! D178  D(21,19,35,36)       -142.1109         estimate D2E/DX2                !
 ! D179  D(21,19,35,37)         -0.5626         estimate D2E/DX2                !
 ! D180  D(8,20,21,19)          17.3201         estimate D2E/DX2                !
 ! D181  D(8,20,21,38)         171.44           estimate D2E/DX2                !
 ! D182  D(23,20,21,19)       -140.9894         estimate D2E/DX2                !
 ! D183  D(23,20,21,38)         13.1306         estimate D2E/DX2                !
 ! D184  D(8,20,23,22)         -30.1782         estimate D2E/DX2                !
 ! D185  D(8,20,23,40)        -167.9215         estimate D2E/DX2                !
 ! D186  D(21,20,23,22)        129.1019         estimate D2E/DX2                !
 ! D187  D(21,20,23,40)         -8.6414         estimate D2E/DX2                !
 ! D188  D(19,21,38,39)          2.6822         estimate D2E/DX2                !
 ! D189  D(19,21,38,42)        145.3336         estimate D2E/DX2                !
 ! D190  D(20,21,38,39)       -152.2152         estimate D2E/DX2                !
 ! D191  D(20,21,38,42)         -9.5638         estimate D2E/DX2                !
 ! D192  D(9,22,23,20)           5.5538         estimate D2E/DX2                !
 ! D193  D(9,22,23,40)         149.2003         estimate D2E/DX2                !
 ! D194  D(24,22,23,20)       -143.2904         estimate D2E/DX2                !
 ! D195  D(24,22,23,40)          0.3561         estimate D2E/DX2                !
 ! D196  D(9,22,24,26)          -5.0364         estimate D2E/DX2                !
 ! D197  D(9,22,24,41)        -150.1019         estimate D2E/DX2                !
 ! D198  D(23,22,24,26)        143.5767         estimate D2E/DX2                !
 ! D199  D(23,22,24,41)         -1.4889         estimate D2E/DX2                !
 ! D200  D(20,23,40,41)        142.9537         estimate D2E/DX2                !
 ! D201  D(20,23,40,42)         -0.2188         estimate D2E/DX2                !
 ! D202  D(22,23,40,41)          0.9153         estimate D2E/DX2                !
 ! D203  D(22,23,40,42)       -142.2572         estimate D2E/DX2                !
 ! D204  D(22,24,26,25)         -0.3063         estimate D2E/DX2                !
 ! D205  D(22,24,26,44)       -137.3816         estimate D2E/DX2                !
 ! D206  D(41,24,26,25)        140.6387         estimate D2E/DX2                !
 ! D207  D(41,24,26,44)          3.5634         estimate D2E/DX2                !
 ! D208  D(22,24,41,40)          2.0428         estimate D2E/DX2                !
 ! D209  D(22,24,41,43)        143.3494         estimate D2E/DX2                !
 ! D210  D(26,24,41,40)       -142.7256         estimate D2E/DX2                !
 ! D211  D(26,24,41,43)         -1.419          estimate D2E/DX2                !
 ! D212  D(11,25,26,24)          8.6944         estimate D2E/DX2                !
 ! D213  D(11,25,26,44)        149.9689         estimate D2E/DX2                !
 ! D214  D(28,25,26,24)       -138.6253         estimate D2E/DX2                !
 ! D215  D(28,25,26,44)          2.6492         estimate D2E/DX2                !
 ! D216  D(11,25,28,27)        -11.4882         estimate D2E/DX2                !
 ! D217  D(11,25,28,45)       -149.7192         estimate D2E/DX2                !
 ! D218  D(26,25,28,27)        135.7618         estimate D2E/DX2                !
 ! D219  D(26,25,28,45)         -2.4692         estimate D2E/DX2                !
 ! D220  D(24,26,44,45)        138.2868         estimate D2E/DX2                !
 ! D221  D(24,26,44,46)         -3.5071         estimate D2E/DX2                !
 ! D222  D(25,26,44,45)         -1.8419         estimate D2E/DX2                !
 ! D223  D(25,26,44,46)       -143.6358         estimate D2E/DX2                !
 ! D224  D(13,27,28,25)         25.128          estimate D2E/DX2                !
 ! D225  D(13,27,28,45)        159.6604         estimate D2E/DX2                !
 ! D226  D(30,27,28,25)       -136.1063         estimate D2E/DX2                !
 ! D227  D(30,27,28,45)         -1.574          estimate D2E/DX2                !
 ! D228  D(13,27,30,29)         -8.5576         estimate D2E/DX2                !
 ! D229  D(13,27,30,47)       -177.6976         estimate D2E/DX2                !
 ! D230  D(28,27,30,29)        152.0191         estimate D2E/DX2                !
 ! D231  D(28,27,30,47)        -17.121          estimate D2E/DX2                !
 ! D232  D(25,28,45,44)          1.358          estimate D2E/DX2                !
 ! D233  D(25,28,45,48)        143.7427         estimate D2E/DX2                !
 ! D234  D(27,28,45,44)       -135.7525         estimate D2E/DX2                !
 ! D235  D(27,28,45,48)          6.6322         estimate D2E/DX2                !
 ! D236  D(14,29,30,27)          5.1463         estimate D2E/DX2                !
 ! D237  D(14,29,30,47)        173.7601         estimate D2E/DX2                !
 ! D238  D(31,29,30,27)       -164.9291         estimate D2E/DX2                !
 ! D239  D(31,29,30,47)          3.6846         estimate D2E/DX2                !
 ! D240  D(14,29,31,34)        -36.2742         estimate D2E/DX2                !
 ! D241  D(14,29,31,49)       -146.6827         estimate D2E/DX2                !
 ! D242  D(14,29,31,71)         88.4292         estimate D2E/DX2                !
 ! D243  D(30,29,31,34)        133.6492         estimate D2E/DX2                !
 ! D244  D(30,29,31,49)         23.2407         estimate D2E/DX2                !
 ! D245  D(30,29,31,71)       -101.6473         estimate D2E/DX2                !
 ! D246  D(27,30,47,48)         28.8559         estimate D2E/DX2                !
 ! D247  D(27,30,47,50)        141.2763         estimate D2E/DX2                !
 ! D248  D(27,30,47,72)        -95.8787         estimate D2E/DX2                !
 ! D249  D(29,30,47,48)       -140.1826         estimate D2E/DX2                !
 ! D250  D(29,30,47,50)        -27.7622         estimate D2E/DX2                !
 ! D251  D(29,30,47,72)         95.0828         estimate D2E/DX2                !
 ! D252  D(29,31,34,32)         27.2307         estimate D2E/DX2                !
 ! D253  D(29,31,34,51)       -121.6455         estimate D2E/DX2                !
 ! D254  D(49,31,34,32)        144.227          estimate D2E/DX2                !
 ! D255  D(49,31,34,51)         -4.6492         estimate D2E/DX2                !
 ! D256  D(71,31,34,32)        -93.5286         estimate D2E/DX2                !
 ! D257  D(71,31,34,51)        117.5952         estimate D2E/DX2                !
 ! D258  D(29,31,49,50)        -26.4669         estimate D2E/DX2                !
 ! D259  D(29,31,49,54)        122.6735         estimate D2E/DX2                !
 ! D260  D(34,31,49,50)       -142.163          estimate D2E/DX2                !
 ! D261  D(34,31,49,54)          6.9774         estimate D2E/DX2                !
 ! D262  D(71,31,49,50)         95.0631         estimate D2E/DX2                !
 ! D263  D(71,31,49,54)       -115.7965         estimate D2E/DX2                !
 ! D264  D(16,32,33,18)         -9.8621         estimate D2E/DX2                !
 ! D265  D(16,32,33,36)       -154.3336         estimate D2E/DX2                !
 ! D266  D(34,32,33,18)        138.5188         estimate D2E/DX2                !
 ! D267  D(34,32,33,36)         -5.9527         estimate D2E/DX2                !
 ! D268  D(16,32,34,31)          7.7612         estimate D2E/DX2                !
 ! D269  D(16,32,34,51)        154.1236         estimate D2E/DX2                !
 ! D270  D(33,32,34,31)       -136.1805         estimate D2E/DX2                !
 ! D271  D(33,32,34,51)         10.1819         estimate D2E/DX2                !
 ! D272  D(18,33,36,35)         -4.7339         estimate D2E/DX2                !
 ! D273  D(18,33,36,52)       -144.7167         estimate D2E/DX2                !
 ! D274  D(32,33,36,35)        136.6367         estimate D2E/DX2                !
 ! D275  D(32,33,36,52)         -3.346          estimate D2E/DX2                !
 ! D276  D(31,34,51,52)        143.9113         estimate D2E/DX2                !
 ! D277  D(31,34,51,54)          0.7948         estimate D2E/DX2                !
 ! D278  D(32,34,51,52)         -5.5709         estimate D2E/DX2                !
 ! D279  D(32,34,51,54)       -148.6875         estimate D2E/DX2                !
 ! D280  D(19,35,36,33)         -3.1379         estimate D2E/DX2                !
 ! D281  D(19,35,36,52)        139.846          estimate D2E/DX2                !
 ! D282  D(37,35,36,33)       -149.639          estimate D2E/DX2                !
 ! D283  D(37,35,36,52)         -6.6551         estimate D2E/DX2                !
 ! D284  D(19,35,37,39)          2.0166         estimate D2E/DX2                !
 ! D285  D(19,35,37,53)       -141.3755         estimate D2E/DX2                !
 ! D286  D(36,35,37,39)        148.4035         estimate D2E/DX2                !
 ! D287  D(36,35,37,53)          5.0114         estimate D2E/DX2                !
 ! D288  D(33,36,52,51)          8.047          estimate D2E/DX2                !
 ! D289  D(33,36,52,53)        149.8457         estimate D2E/DX2                !
 ! D290  D(35,36,52,51)       -136.21           estimate D2E/DX2                !
 ! D291  D(35,36,52,53)          5.5887         estimate D2E/DX2                !
 ! D292  D(35,37,39,38)         -1.0944         estimate D2E/DX2                !
 ! D293  D(35,37,39,57)       -141.2602         estimate D2E/DX2                !
 ! D294  D(53,37,39,38)        137.0614         estimate D2E/DX2                !
 ! D295  D(53,37,39,57)         -3.1045         estimate D2E/DX2                !
 ! D296  D(35,37,53,52)         -1.6746         estimate D2E/DX2                !
 ! D297  D(35,37,53,55)        140.0889         estimate D2E/DX2                !
 ! D298  D(39,37,53,52)       -143.9854         estimate D2E/DX2                !
 ! D299  D(39,37,53,55)         -2.2219         estimate D2E/DX2                !
 ! D300  D(21,38,39,37)         -1.2877         estimate D2E/DX2                !
 ! D301  D(21,38,39,57)        142.3403         estimate D2E/DX2                !
 ! D302  D(42,38,39,37)       -149.0552         estimate D2E/DX2                !
 ! D303  D(42,38,39,57)         -5.4273         estimate D2E/DX2                !
 ! D304  D(21,38,42,40)          0.9703         estimate D2E/DX2                !
 ! D305  D(21,38,42,58)       -141.3617         estimate D2E/DX2                !
 ! D306  D(39,38,42,40)        148.476          estimate D2E/DX2                !
 ! D307  D(39,38,42,58)          6.144          estimate D2E/DX2                !
 ! D308  D(37,39,57,58)        146.6619         estimate D2E/DX2                !
 ! D309  D(37,39,57,60)          6.1777         estimate D2E/DX2                !
 ! D310  D(38,39,57,58)          2.6322         estimate D2E/DX2                !
 ! D311  D(38,39,57,60)       -137.8521         estimate D2E/DX2                !
 ! D312  D(23,40,41,24)         -1.8195         estimate D2E/DX2                !
 ! D313  D(23,40,41,43)       -142.7307         estimate D2E/DX2                !
 ! D314  D(42,40,41,24)        141.1119         estimate D2E/DX2                !
 ! D315  D(42,40,41,43)          0.2007         estimate D2E/DX2                !
 ! D316  D(23,40,42,38)          4.1332         estimate D2E/DX2                !
 ! D317  D(23,40,42,58)        142.1197         estimate D2E/DX2                !
 ! D318  D(41,40,42,38)       -135.0798         estimate D2E/DX2                !
 ! D319  D(41,40,42,58)          2.9068         estimate D2E/DX2                !
 ! D320  D(24,41,43,46)         -0.7967         estimate D2E/DX2                !
 ! D321  D(24,41,43,59)       -138.339          estimate D2E/DX2                !
 ! D322  D(40,41,43,46)        135.4613         estimate D2E/DX2                !
 ! D323  D(40,41,43,59)         -2.081          estimate D2E/DX2                !
 ! D324  D(38,42,58,57)         -4.6224         estimate D2E/DX2                !
 ! D325  D(38,42,58,59)        137.4447         estimate D2E/DX2                !
 ! D326  D(40,42,58,57)       -146.2168         estimate D2E/DX2                !
 ! D327  D(40,42,58,59)         -4.1496         estimate D2E/DX2                !
 ! D328  D(41,43,46,44)          0.8259         estimate D2E/DX2                !
 ! D329  D(41,43,46,61)       -140.911          estimate D2E/DX2                !
 ! D330  D(59,43,46,44)        142.7455         estimate D2E/DX2                !
 ! D331  D(59,43,46,61)          1.0086         estimate D2E/DX2                !
 ! D332  D(41,43,59,58)          0.8158         estimate D2E/DX2                !
 ! D333  D(41,43,59,65)        142.1978         estimate D2E/DX2                !
 ! D334  D(46,43,59,58)       -141.1115         estimate D2E/DX2                !
 ! D335  D(46,43,59,65)          0.2705         estimate D2E/DX2                !
 ! D336  D(26,44,45,28)          0.2998         estimate D2E/DX2                !
 ! D337  D(26,44,45,48)       -141.4837         estimate D2E/DX2                !
 ! D338  D(46,44,45,28)        141.8324         estimate D2E/DX2                !
 ! D339  D(46,44,45,48)          0.0489         estimate D2E/DX2                !
 ! D340  D(26,44,46,43)          1.3012         estimate D2E/DX2                !
 ! D341  D(26,44,46,61)        138.9728         estimate D2E/DX2                !
 ! D342  D(45,44,46,43)       -135.5342         estimate D2E/DX2                !
 ! D343  D(45,44,46,61)          2.1374         estimate D2E/DX2                !
 ! D344  D(28,45,48,47)          7.9898         estimate D2E/DX2                !
 ! D345  D(28,45,48,62)       -139.279          estimate D2E/DX2                !
 ! D346  D(44,45,48,47)        144.9463         estimate D2E/DX2                !
 ! D347  D(44,45,48,62)         -2.3225         estimate D2E/DX2                !
 ! D348  D(43,46,61,62)        140.2949         estimate D2E/DX2                !
 ! D349  D(43,46,61,65)         -1.899          estimate D2E/DX2                !
 ! D350  D(44,46,61,62)         -2.0047         estimate D2E/DX2                !
 ! D351  D(44,46,61,65)       -144.1986         estimate D2E/DX2                !
 ! D352  D(30,47,48,45)        -25.4488         estimate D2E/DX2                !
 ! D353  D(30,47,48,62)        123.7148         estimate D2E/DX2                !
 ! D354  D(50,47,48,45)       -143.5339         estimate D2E/DX2                !
 ! D355  D(50,47,48,62)          5.6297         estimate D2E/DX2                !
 ! D356  D(72,47,48,45)         95.0839         estimate D2E/DX2                !
 ! D357  D(72,47,48,62)       -115.7526         estimate D2E/DX2                !
 ! D358  D(30,47,50,49)         25.2926         estimate D2E/DX2                !
 ! D359  D(30,47,50,63)       -124.9192         estimate D2E/DX2                !
 ! D360  D(48,47,50,49)        144.8122         estimate D2E/DX2                !
 ! D361  D(48,47,50,63)         -5.3996         estimate D2E/DX2                !
 ! D362  D(72,47,50,49)        -93.4263         estimate D2E/DX2                !
 ! D363  D(72,47,50,63)        116.3619         estimate D2E/DX2                !
 ! D364  D(45,48,62,61)          2.4587         estimate D2E/DX2                !
 ! D365  D(45,48,62,63)        146.8305         estimate D2E/DX2                !
 ! D366  D(47,48,62,61)       -148.2512         estimate D2E/DX2                !
 ! D367  D(47,48,62,63)         -3.8794         estimate D2E/DX2                !
 ! D368  D(31,49,50,47)          1.82           estimate D2E/DX2                !
 ! D369  D(31,49,50,63)        149.3584         estimate D2E/DX2                !
 ! D370  D(54,49,50,47)       -144.9325         estimate D2E/DX2                !
 ! D371  D(54,49,50,63)          2.606          estimate D2E/DX2                !
 ! D372  D(31,49,54,51)         -6.995          estimate D2E/DX2                !
 ! D373  D(31,49,54,56)       -150.4746         estimate D2E/DX2                !
 ! D374  D(50,49,54,51)        143.3233         estimate D2E/DX2                !
 ! D375  D(50,49,54,56)         -0.1563         estimate D2E/DX2                !
 ! D376  D(47,50,63,62)          3.4817         estimate D2E/DX2                !
 ! D377  D(47,50,63,64)        148.1786         estimate D2E/DX2                !
 ! D378  D(49,50,63,62)       -147.6704         estimate D2E/DX2                !
 ! D379  D(49,50,63,64)         -2.9735         estimate D2E/DX2                !
 ! D380  D(34,51,52,36)         -3.8568         estimate D2E/DX2                !
 ! D381  D(34,51,52,53)       -139.8101         estimate D2E/DX2                !
 ! D382  D(54,51,52,36)        135.3889         estimate D2E/DX2                !
 ! D383  D(54,51,52,53)         -0.5645         estimate D2E/DX2                !
 ! D384  D(34,51,54,49)          3.7633         estimate D2E/DX2                !
 ! D385  D(34,51,54,56)        148.062          estimate D2E/DX2                !
 ! D386  D(52,51,54,49)       -140.3065         estimate D2E/DX2                !
 ! D387  D(52,51,54,56)          3.9923         estimate D2E/DX2                !
 ! D388  D(36,52,53,37)         -2.3952         estimate D2E/DX2                !
 ! D389  D(36,52,53,55)       -144.0375         estimate D2E/DX2                !
 ! D390  D(51,52,53,37)        138.1349         estimate D2E/DX2                !
 ! D391  D(51,52,53,55)         -3.5073         estimate D2E/DX2                !
 ! D392  D(37,53,55,56)       -133.8249         estimate D2E/DX2                !
 ! D393  D(37,53,55,60)          4.4333         estimate D2E/DX2                !
 ! D394  D(52,53,55,56)          4.0259         estimate D2E/DX2                !
 ! D395  D(52,53,55,60)        142.284          estimate D2E/DX2                !
 ! D396  D(49,54,56,55)        136.145          estimate D2E/DX2                !
 ! D397  D(49,54,56,64)         -2.0437         estimate D2E/DX2                !
 ! D398  D(51,54,56,55)         -3.4675         estimate D2E/DX2                !
 ! D399  D(51,54,56,64)       -141.6562         estimate D2E/DX2                !
 ! D400  D(53,55,56,54)         -0.5989         estimate D2E/DX2                !
 ! D401  D(53,55,56,64)        141.9804         estimate D2E/DX2                !
 ! D402  D(60,55,56,54)       -142.7738         estimate D2E/DX2                !
 ! D403  D(60,55,56,64)         -0.1946         estimate D2E/DX2                !
 ! D404  D(53,55,60,57)         -1.3409         estimate D2E/DX2                !
 ! D405  D(53,55,60,66)       -143.248          estimate D2E/DX2                !
 ! D406  D(56,55,60,57)        140.635          estimate D2E/DX2                !
 ! D407  D(56,55,60,66)         -1.2721         estimate D2E/DX2                !
 ! D408  D(54,56,64,63)          1.7043         estimate D2E/DX2                !
 ! D409  D(54,56,64,66)        145.0241         estimate D2E/DX2                !
 ! D410  D(55,56,64,63)       -141.7245         estimate D2E/DX2                !
 ! D411  D(55,56,64,66)          1.5953         estimate D2E/DX2                !
 ! D412  D(39,57,58,42)          1.2077         estimate D2E/DX2                !
 ! D413  D(39,57,58,59)       -140.63           estimate D2E/DX2                !
 ! D414  D(60,57,58,42)        141.3564         estimate D2E/DX2                !
 ! D415  D(60,57,58,59)         -0.4813         estimate D2E/DX2                !
 ! D416  D(39,57,60,55)         -4.0005         estimate D2E/DX2                !
 ! D417  D(39,57,60,66)        132.9363         estimate D2E/DX2                !
 ! D418  D(58,57,60,55)       -139.2497         estimate D2E/DX2                !
 ! D419  D(58,57,60,66)         -2.3128         estimate D2E/DX2                !
 ! D420  D(42,58,59,43)          2.2566         estimate D2E/DX2                !
 ! D421  D(42,58,59,65)       -134.317          estimate D2E/DX2                !
 ! D422  D(57,58,59,43)        139.7521         estimate D2E/DX2                !
 ! D423  D(57,58,59,65)          3.1785         estimate D2E/DX2                !
 ! D424  D(43,59,65,61)         -1.4561         estimate D2E/DX2                !
 ! D425  D(43,59,65,66)       -144.6721         estimate D2E/DX2                !
[...]
    14 C(13)  Bbb    -0.0707    -9.490    -3.386    -3.166  0.0234 -0.0773  0.9967
              Bcc     0.1464    19.643     7.009     6.552 -0.1160  0.9901  0.0795
 
              Baa    -0.0056    -0.753    -0.269    -0.251  0.3617 -0.6105  0.7046
    15 C(13)  Bbb     0.0014     0.185     0.066     0.062  0.8187 -0.1535 -0.5533
              Bcc     0.0042     0.568     0.203     0.189  0.4460  0.7770  0.4443
 
              Baa    -0.0014    -0.191    -0.068    -0.064 -0.3788  0.9165  0.1286
    16 C(13)  Bbb    -0.0006    -0.087    -0.031    -0.029  0.9209  0.3871 -0.0464
              Bcc     0.0021     0.278     0.099     0.093  0.0923 -0.1009  0.9906
 
              Baa    -0.0031    -0.412    -0.147    -0.137  0.4897  0.3740  0.7876
    17 C(13)  Bbb     0.0007     0.099     0.035     0.033  0.8647 -0.0924 -0.4937
              Bcc     0.0023     0.313     0.112     0.104 -0.1118  0.9228 -0.3687
 
              Baa    -0.0086    -1.150    -0.411    -0.384  0.8843  0.1689 -0.4354
    18 C(13)  Bbb    -0.0080    -1.076    -0.384    -0.359 -0.0958  0.9781  0.1849
              Bcc     0.0166     2.226     0.794     0.743  0.4571 -0.1218  0.8811
 
              Baa    -0.0141    -1.889    -0.674    -0.630 -0.3875  0.8725 -0.2976
    19 C(13)  Bbb    -0.0137    -1.839    -0.656    -0.613  0.8606  0.2266 -0.4562
              Bcc     0.0278     3.728     1.330     1.243  0.3306  0.4328  0.8387
 
              Baa    -0.0572    -7.671    -2.737    -2.559  0.4197 -0.5547  0.7185
    20 C(13)  Bbb    -0.0565    -7.581    -2.705    -2.529  0.8223 -0.1027 -0.5597
              Bcc     0.1137    15.252     5.442     5.087  0.3842  0.8257  0.4130
 
              Baa    -0.0250    -3.355    -1.197    -1.119  0.3492  0.6893  0.6347
    21 C(13)  Bbb     0.0112     1.508     0.538     0.503 -0.5292  0.7041 -0.4735
              Bcc     0.0138     1.847     0.659     0.616  0.7733  0.1706 -0.6107
 
              Baa    -0.1214   -16.297    -5.815    -5.436  0.7513 -0.6036  0.2669
    22 C(13)  Bbb    -0.1164   -15.614    -5.572    -5.208  0.0400  0.4453  0.8945
              Bcc     0.2378    31.911    11.387    10.644  0.6588  0.6614 -0.3587
 
              Baa    -0.0497    -6.675    -2.382    -2.227  0.5652  0.8244  0.0308
    23 C(13)  Bbb     0.0210     2.816     1.005     0.939  0.8075 -0.5605  0.1841
              Bcc     0.0288     3.859     1.377     1.287 -0.1691  0.0792  0.9824
 
              Baa    -0.0618    -8.287    -2.957    -2.764 -0.4642 -0.6077  0.6443
    24 C(13)  Bbb     0.0259     3.477     1.241     1.160 -0.6117  0.7461  0.2630
              Bcc     0.0358     4.811     1.717     1.605  0.6405  0.2721  0.7181
 
              Baa    -0.1198   -16.073    -5.735    -5.361 -0.4724  0.0722  0.8784
    25 C(13)  Bbb     0.0494     6.632     2.367     2.212  0.6932 -0.5851  0.4209
              Bcc     0.0704     9.441     3.369     3.149  0.5444  0.8077  0.2264
 
              Baa    -0.0709    -9.512    -3.394    -3.173 -0.6662  0.7405  0.0886
    26 C(13)  Bbb    -0.0667    -8.945    -3.192    -2.984  0.6659  0.5372  0.5176
              Bcc     0.1375    18.456     6.586     6.156 -0.3357 -0.4038  0.8510
 
              Baa    -0.0774   -10.385    -3.706    -3.464 -0.1255  0.6763  0.7258
    27 C(13)  Bbb     0.0311     4.174     1.489     1.392  0.9883  0.1490  0.0320
              Bcc     0.0463     6.212     2.217     2.072 -0.0865  0.7214 -0.6871
 
              Baa    -0.2444   -32.790   -11.700   -10.937 -0.0554  0.8689 -0.4919
    28 C(13)  Bbb    -0.2409   -32.324   -11.534   -10.782  0.9534  0.1923  0.2323
              Bcc     0.4852    65.114    23.234    21.720 -0.2964  0.4561  0.8391
 
              Baa    -0.0579    -7.765    -2.771    -2.590 -0.0776  0.9394  0.3338
    29 C(13)  Bbb     0.0255     3.425     1.222     1.143  0.8389  0.2425 -0.4874
              Bcc     0.0323     4.339     1.548     1.447  0.5388 -0.2422  0.8069
 
              Baa    -0.0674    -9.042    -3.226    -3.016 -0.6537 -0.3469  0.6725
    30 C(13)  Bbb    -0.0654    -8.770    -3.129    -2.925  0.7567 -0.3027  0.5795
              Bcc     0.1327    17.811     6.356     5.941  0.0025  0.8877  0.4604
 
              Baa    -0.0010    -0.133    -0.047    -0.044  0.1645  0.6654  0.7281
    31 C(13)  Bbb    -0.0005    -0.070    -0.025    -0.023  0.8774 -0.4359  0.2002
              Bcc     0.0015     0.202     0.072     0.067 -0.4507 -0.6059  0.6556
 
              Baa    -0.0023    -0.310    -0.111    -0.103 -0.2224  0.7748 -0.5917
    32 C(13)  Bbb    -0.0001    -0.016    -0.006    -0.005  0.8031  0.4898  0.3394
              Bcc     0.0024     0.326     0.116     0.109 -0.5528  0.3997  0.7312
 
              Baa    -0.0037    -0.493    -0.176    -0.165  0.3689 -0.2145  0.9044
    33 C(13)  Bbb     0.0016     0.218     0.078     0.073 -0.0027  0.9727  0.2319
              Bcc     0.0020     0.275     0.098     0.092  0.9295  0.0880 -0.3583
 
              Baa    -0.0017    -0.224    -0.080    -0.075  0.3640  0.9229 -0.1251
    34 C(13)  Bbb     0.0003     0.044     0.016     0.015  0.2995  0.0112  0.9540
              Bcc     0.0013     0.180     0.064     0.060  0.8819 -0.3848 -0.2723
 
              Baa    -0.0147    -1.972    -0.704    -0.658  0.0504  0.3687  0.9282
    35 C(13)  Bbb     0.0062     0.830     0.296     0.277  0.2286  0.9004 -0.3701
              Bcc     0.0085     1.142     0.408     0.381  0.9722 -0.2309  0.0389
 
              Baa    -0.0031    -0.412    -0.147    -0.138  0.2670  0.9616  0.0634
    36 C(13)  Bbb    -0.0025    -0.334    -0.119    -0.112  0.9514 -0.2525 -0.1762
              Bcc     0.0056     0.747     0.266     0.249  0.1534 -0.1073  0.9823
 
              Baa    -0.0301    -4.034    -1.439    -1.346 -0.2840  0.8293 -0.4813
    37 C(13)  Bbb    -0.0289    -3.880    -1.384    -1.294  0.9165  0.3823  0.1180
              Bcc     0.0590     7.914     2.824     2.640 -0.2819  0.4076  0.8686
 
              Baa    -0.0240    -3.221    -1.149    -1.075  0.6248 -0.5304  0.5730
    38 C(13)  Bbb    -0.0222    -2.980    -1.063    -0.994  0.7689  0.2905 -0.5695
              Bcc     0.0462     6.202     2.213     2.069  0.1356  0.7964  0.5894
 
              Baa    -0.0231    -3.095    -1.104    -1.032 -0.2371  0.6741  0.6995
    39 C(13)  Bbb     0.0103     1.377     0.491     0.459  0.8948 -0.1288  0.4274
              Bcc     0.0128     1.718     0.613     0.573  0.3782  0.7273 -0.5727
 
              Baa    -0.0110    -1.477    -0.527    -0.493  0.9336 -0.0611  0.3530
    40 C(13)  Bbb    -0.0101    -1.361    -0.486    -0.454 -0.3537 -0.0018  0.9353
              Bcc     0.0211     2.838     1.013     0.947  0.0566  0.9981  0.0233
 
              Baa    -0.0040    -0.532    -0.190    -0.178  0.9361 -0.0118 -0.3517
    41 C(13)  Bbb    -0.0023    -0.306    -0.109    -0.102  0.2943  0.5741  0.7641
              Bcc     0.0062     0.838     0.299     0.280 -0.1928  0.8187 -0.5409
 
              Baa    -0.0182    -2.445    -0.872    -0.816  0.0713  0.9608  0.2680
    42 C(13)  Bbb     0.0086     1.160     0.414     0.387  0.9960 -0.0828  0.0320
              Bcc     0.0096     1.285     0.459     0.429 -0.0529 -0.2646  0.9629
 
              Baa    -0.0150    -2.017    -0.720    -0.673  0.2485 -0.6733  0.6963
    43 C(13)  Bbb     0.0071     0.955     0.341     0.319  0.9418  0.3359 -0.0113
              Bcc     0.0079     1.061     0.379     0.354 -0.2263  0.6587  0.7176
 
              Baa    -0.0201    -2.702    -0.964    -0.901  0.2039  0.9635  0.1735
    44 C(13)  Bbb    -0.0179    -2.406    -0.859    -0.803  0.9322 -0.1370 -0.3350
              Bcc     0.0381     5.109     1.823     1.704  0.2990 -0.2301  0.9261
 
              Baa    -0.0681    -9.132    -3.258    -3.046 -0.0394  0.3158  0.9480
    45 C(13)  Bbb     0.0226     3.039     1.084     1.014  0.2453  0.9228 -0.2972
              Bcc     0.0454     6.093     2.174     2.032  0.9686 -0.2208  0.1138
 
              Baa    -0.0082    -1.105    -0.394    -0.369  0.3897  0.7215  0.5724
    46 C(13)  Bbb    -0.0034    -0.457    -0.163    -0.153  0.9190 -0.2643 -0.2925
              Bcc     0.0116     1.563     0.558     0.521  0.0597 -0.6400  0.7660
 
              Baa    -0.0063    -0.844    -0.301    -0.281 -0.0693  0.4383  0.8961
    47 C(13)  Bbb     0.0010     0.138     0.049     0.046  0.7991 -0.5133  0.3129
              Bcc     0.0053     0.706     0.252     0.235  0.5971  0.7378 -0.3147
 
              Baa    -0.0829   -11.126    -3.970    -3.711  0.4698  0.6631 -0.5827
    48 C(13)  Bbb    -0.0783   -10.510    -3.750    -3.506  0.8042 -0.5938 -0.0274
              Bcc     0.1612    21.636     7.720     7.217  0.3642  0.4558  0.8122
 
              Baa    -0.0022    -0.301    -0.107    -0.100  0.6819  0.6417  0.3512
    49 C(13)  Bbb    -0.0003    -0.046    -0.016    -0.015 -0.6677  0.7421 -0.0595
              Bcc     0.0026     0.347     0.124     0.116 -0.2988 -0.1939  0.9344
 
              Baa    -0.0092    -1.232    -0.440    -0.411 -0.5107  0.6660 -0.5437
    50 C(13)  Bbb    -0.0070    -0.934    -0.333    -0.311 -0.3514  0.4155  0.8390
              Bcc     0.0161     2.166     0.773     0.722  0.7847  0.6195  0.0218
 
              Baa    -0.0028    -0.374    -0.134    -0.125  0.6012  0.6769 -0.4247
    51 C(13)  Bbb     0.0009     0.122     0.043     0.041  0.7475 -0.6643 -0.0005
              Bcc     0.0019     0.253     0.090     0.084  0.2825  0.3172  0.9053
 
              Baa    -0.0050    -0.675    -0.241    -0.225 -0.6759  0.7240 -0.1377
    52 C(13)  Bbb    -0.0046    -0.616    -0.220    -0.206  0.5561  0.6237  0.5493
              Bcc     0.0096     1.292     0.461     0.431 -0.4836 -0.2947  0.8242
 
              Baa    -0.0123    -1.645    -0.587    -0.549 -0.5764  0.1449  0.8042
    53 C(13)  Bbb     0.0051     0.680     0.243     0.227 -0.4658  0.7504 -0.4690
              Bcc     0.0072     0.965     0.344     0.322  0.6714  0.6449  0.3651
 
              Baa    -0.0080    -1.077    -0.384    -0.359  0.7107 -0.6133  0.3446
    54 C(13)  Bbb    -0.0068    -0.910    -0.325    -0.304 -0.0669  0.4287  0.9010
              Bcc     0.0148     1.987     0.709     0.663  0.7003  0.6634 -0.2637
 
              Baa    -0.0104    -1.393    -0.497    -0.465 -0.2529  0.7594 -0.5995
    55 C(13)  Bbb    -0.0096    -1.294    -0.462    -0.432  0.4586  0.6397  0.6168
              Bcc     0.0200     2.687     0.959     0.896  0.8519 -0.1190 -0.5100
 
              Baa    -0.0045    -0.597    -0.213    -0.199  0.9040  0.3601 -0.2303
    56 C(13)  Bbb     0.0016     0.216     0.077     0.072  0.3617 -0.3573  0.8611
              Bcc     0.0028     0.381     0.136     0.127 -0.2278  0.8618  0.4533
 
              Baa    -0.0091    -1.215    -0.434    -0.405  0.6177  0.7034 -0.3517
    57 C(13)  Bbb    -0.0085    -1.141    -0.407    -0.381  0.5526 -0.0701  0.8305
              Bcc     0.0176     2.356     0.841     0.786 -0.5595  0.7074  0.4320
 
              Baa    -0.0131    -1.762    -0.629    -0.588 -0.4537  0.8889  0.0631
    58 C(13)  Bbb     0.0061     0.823     0.294     0.274  0.8881  0.4569 -0.0509
              Bcc     0.0070     0.939     0.335     0.313  0.0741 -0.0330  0.9967
 
              Baa    -0.0063    -0.845    -0.301    -0.282 -0.5689 -0.2423  0.7859
    59 C(13)  Bbb    -0.0062    -0.827    -0.295    -0.276  0.6134  0.5116  0.6017
              Bcc     0.0125     1.672     0.597     0.558 -0.5479  0.8243 -0.1424
 
              Baa    -0.0153    -2.053    -0.733    -0.685  0.8527 -0.4310 -0.2953
    60 C(13)  Bbb     0.0071     0.948     0.338     0.316  0.2847  0.8572 -0.4292
              Bcc     0.0082     1.105     0.394     0.369  0.4381  0.2819  0.8536
 
              Baa    -0.0374    -5.021    -1.791    -1.675  0.3994  0.9057 -0.1423
    61 C(13)  Bbb    -0.0359    -4.813    -1.717    -1.605 -0.5721  0.3675  0.7332
              Bcc     0.0733     9.834     3.509     3.280  0.7164 -0.2115  0.6649
 
              Baa    -0.0254    -3.403    -1.214    -1.135  0.5396  0.2611  0.8004
    62 C(13)  Bbb     0.0085     1.147     0.409     0.383  0.5139  0.6509 -0.5588
              Bcc     0.0168     2.256     0.805     0.752 -0.6669  0.7128  0.2171
 
              Baa    -0.0118    -1.584    -0.565    -0.528 -0.0841  0.8797 -0.4681
    63 C(13)  Bbb    -0.0096    -1.285    -0.459    -0.429 -0.5289  0.3587  0.7692
              Bcc     0.0214     2.869     1.024     0.957  0.8445  0.3122  0.4351
 
              Baa    -0.0101    -1.354    -0.483    -0.452  0.9573  0.1622  0.2391
    64 C(13)  Bbb     0.0041     0.550     0.196     0.183 -0.0898 -0.6196  0.7797
              Bcc     0.0060     0.804     0.287     0.268 -0.2746  0.7680  0.5786
 
              Baa    -0.0147    -1.969    -0.703    -0.657  0.8090 -0.4498  0.3783
    65 C(13)  Bbb     0.0057     0.762     0.272     0.254  0.4860  0.8740 -0.0000
              Bcc     0.0090     1.207     0.431     0.403 -0.3306  0.1839  0.9257
 
              Baa    -0.0168    -2.249    -0.803    -0.750  0.2918  0.8953 -0.3366
    66 C(13)  Bbb    -0.0158    -2.121    -0.757    -0.708  0.0252  0.3446  0.9384
              Bcc     0.0326     4.371     1.560     1.458  0.9562 -0.2823  0.0780
 
              Baa    -0.0031    -0.164    -0.059    -0.055  0.9609 -0.1077 -0.2551
    67 Cl(35) Bbb     0.0009     0.045     0.016     0.015  0.2117 -0.3082  0.9275
              Bcc     0.0023     0.120     0.043     0.040  0.1785  0.9452  0.2734
 
              Baa    -0.0021    -0.109    -0.039    -0.036  0.6085  0.7904 -0.0699
    68 Cl(35) Bbb    -0.0007    -0.035    -0.012    -0.012  0.5715 -0.3755  0.7296
              Bcc     0.0028     0.144     0.051     0.048 -0.5505  0.4839  0.6803
 
              Baa    -0.0228    -1.193    -0.426    -0.398  0.8256 -0.4432  0.3493
    69 Cl(35) Bbb     0.0108     0.564     0.201     0.188 -0.3681  0.0462  0.9286
              Bcc     0.0120     0.628     0.224     0.210  0.4277  0.8953  0.1250
 
              Baa    -0.0497    -2.602    -0.929    -0.868 -0.1159  0.7551  0.6453
    70 Cl(35) Bbb    -0.0413    -2.160    -0.771    -0.721  0.9572  0.2583 -0.1304
              Bcc     0.0910     4.763     1.699     1.589  0.2651 -0.6026  0.7527
 
              Baa    -0.0308    -1.609    -0.574    -0.537  0.5267  0.8153 -0.2407
    71 Cl(35) Bbb     0.0144     0.752     0.268     0.251  0.0072  0.2789  0.9603
              Bcc     0.0164     0.857     0.306     0.286  0.8500 -0.5075  0.1410
 
              Baa    -0.0973    -5.093    -1.817    -1.699  0.7131  0.0424 -0.6998
    72 Cl(35) Bbb    -0.0847    -4.435    -1.582    -1.479 -0.5749  0.6066 -0.5491
              Bcc     0.1820     9.528     3.400     3.178  0.4012  0.7939  0.4569
 
              Baa    -0.0630    -3.299    -1.177    -1.100  0.7641  0.6054  0.2227
    73 Cl(35) Bbb     0.0200     1.048     0.374     0.350 -0.4722  0.2898  0.8325
              Bcc     0.0430     2.251     0.803     0.751 -0.4394  0.7413 -0.5074
 
              Baa    -0.0403    -2.107    -0.752    -0.703 -0.4271  0.4066  0.8076
    74 Cl(35) Bbb    -0.0326    -1.706    -0.609    -0.569  0.0129  0.8958 -0.4442
              Bcc     0.0729     3.813     1.361     1.272  0.9041  0.1793  0.3878
 
              Baa    -0.1080    -5.653    -2.017    -1.886  0.7249 -0.5430  0.4239
    75 Cl(35) Bbb    -0.0971    -5.083    -1.814    -1.696  0.6394  0.7593 -0.1207
              Bcc     0.2051    10.737     3.831     3.581 -0.2564  0.3585  0.8976
 

 ---------------------------------------------------------------------------------

 No NMR shielding tensors so no spin-rotation constants.
 Leave Link  601 at Sat Jul 16 12:08:02 2022, MaxMem=  1342177280 cpu:             108.7 elap:               2.5
 (Enter /home/mkliu/g16/l9999.exe)
 1\1\GINC-NODE05\FOpt\UB3LYP\6-311G(d,p)\C66Cl9(2)\MKLIU\16-Jul-2022\0\
 \#P opt b3lyp/6-311G(d, p) empiricaldispersion=GD3\\force\\0,2\C,-1.35
 79441473,1.8943053798,-3.9710102516\C,0.209733854,2.3153987392,-4.1071
 512565\C,0.9723837449,0.8871123509,-4.3090910075\C,-1.2866867709,0.428
 2450035,-3.8013025672\C,-0.0804489914,-0.1566327419,-4.1435263662\C,-2
 .1726634836,-0.1125095098,-2.9071088992\C,-2.2240724903,2.3341525755,-
 2.7175486023\C,-3.0168748923,0.9453763455,-2.2900331756\C,-1.402373339
 8,2.8443625863,-1.5558117893\C,0.878460285,2.8963766828,-2.7740739329\
 C,-0.0447648307,3.1572974836,-1.6059626399\C,1.8492453961,0.7085630126
 ,-3.0875257454\C,1.8598410394,1.8373681586,-2.3107744052\C,2.225403335
 6,-0.5396899696,-2.5469452601\C,0.1968025597,-1.3964200866,-3.63002838
 65\C,1.6005409995,-1.7958162583,-3.1749587425\C,-1.9461950599,-1.39131
 14287,-2.3666410225\C,-0.7720727827,-2.0518559528,-2.8345055851\C,-2.5
 079227588,-1.7406268343,-1.0670601665\C,-3.1726198373,0.6862573066,-0.
 809403486\C,-3.1353020474,-0.6684840596,-0.2803975153\C,-2.0562654087,
 2.8281330188,-0.3050642963\C,-2.9894849846,1.7542371876,0.0511769162\C
 ,-1.4084393855,3.2401632581,0.8878678191\C,0.6442663565,3.4050375886,-
 0.3871779007\C,-0.0463195923,3.5333666746,0.8510958432\C,2.4061310017,
 1.8210246262,-1.0126756075\C,1.9347227221,2.8393508671,-0.1133714631\C
 ,2.8328751178,-0.576729982,-1.2714986762\C,2.9726597614,0.6145040874,-
 0.5191099969\C,3.1385568946,-1.9396619083,-0.6236389416\C,1.2956598376
 ,-2.8157100971,-2.1009419829\C,-0.1168440055,-3.0350859639,-2.02230343
 8\C,2.0466938376,-2.9425928048,-0.9726955913\C,-1.9492775535,-2.842987
 006,-0.3960926316\C,-0.7208330307,-3.4703378285,-0.8617380166\C,-1.938
 9731208,-2.9343591253,1.0430843864\C,-3.1702124191,-0.8238075199,1.128
 7905411\C,-2.54916015,-1.9449746217,1.793084852\C,-2.9197953908,1.5767
 250518,1.4750093694\C,-1.9500508461,2.50061243,2.0137123846\C,-3.04998
 89031,0.3087316229,2.0139059198\C,-1.1311688964,2.1181625041,3.0653883
 751\C,0.8204816726,3.1009736209,1.9269866853\C,2.0526400512,2.65446980
 02,1.3127645842\C,0.29419745,2.4248372048,3.0202859548\C,3.4803445188,
 0.5921313949,0.9236170061\C,2.7185395225,1.5623323509,1.8198577632\C,3
 .0228544506,-1.8830972879,0.8914754676\C,3.2018168315,-0.7341822129,1.
 5994692067\C,1.45765357,-3.4713269586,0.2207121964\C,0.0931054241,-3.7
 856027831,0.2752984543\C,-0.6688131848,-3.4918525488,1.4670607142\C,2.
 0932711826,-2.8695986514,1.3649682654\C,-0.0381347265,-2.9872554574,2.
 5992481772\C,1.3789305857,-2.6753702598,2.5496265289\C,-1.9437121971,-
 1.4842972211,3.0249837296\C,-2.2481797686,-0.078067107,3.1588604179\C,
 -1.2852654007,0.8019378714,3.6567740077\C,-0.6907155914,-1.9722318107,
 3.402137808\C,1.0054491444,1.2993980166,3.5691671115\C,2.1997339299,0.
 8820429277,2.9625764962\C,2.494041669,-0.52506372,2.8310070345\C,1.595
 7303708,-1.4781644907,3.3129906995\C,0.0355506055,0.3059141738,3.99214
 47824\C,0.3248867708,-1.0512503907,3.8718347272\Cl,-2.2855245813,2.152
 9470431,-5.5192596368\Cl,0.4444445408,3.4216009832,-5.4804671736\Cl,1.
 9348267134,0.7183912289,-5.8289330973\Cl,2.6537172493,-2.5196697681,-4
 .4890491699\Cl,4.8146182795,-2.4940081273,-1.1520159667\Cl,5.296369663
 3,0.9862877993,0.9121593083\Cl,-3.3513171897,3.7154172813,-3.071453288
 2\Cl,-4.712434083,0.8627701184,-3.0201309009\Cl,1.8263348191,4.4736441
 456,-3.0415076998\\Version=ES64L-G16RevA.03\State=2-A\HF=-6657.4443536
 \S2=0.788927\S2-1=0.\S2A=0.751344\RMSD=7.694e-09\RMSF=2.812e-05\Dipole
 =-0.8665106,-0.7076855,1.9464044\Quadrupole=-8.2815493,5.0244162,3.257
 1331,3.9731996,-2.5663194,2.9743398\PG=C01 [X(C66Cl9)]\\@


 KNOWING HOW CONTENTED, FREE, AND JOYFUL IS LIFE IN
 THE REALMS OF SCIENCE, ONE FERVENTLY WISHES THAT
 MANY WOULD ENTER HER PORTALS.
   --  DMITRI IVANOVICH MENDELEEV
 "FIRST PRINCIPLES OF CHEMISTRY", LONGMANS, GREEN,
 AND CO.  LONDON, 1891
 Job cpu time:       5 days  8 hours 34 minutes 56.9 seconds.
 Elapsed time:       0 days  2 hours 40 minutes 59.3 seconds.
 File lengths (MBytes):  RWF=   2194 Int=      0 D2E=      0 Chk=    198 Scr=      1
 Normal termination of Gaussian 16 at Sat Jul 16 12:08:04 2022.
