 Entering Gaussian System, Link 0=g16
 Input=dvu7tns15vwn4_addon_9.gjf
 Output=dvu7tns15vwn4_addon_9.log
 Initial command:
 /home/mkliu/g16/l1.exe "/data/scratch/Gau-194082.inp" -scrdir="/data/scratch/"
 Entering Link 1 = /home/mkliu/g16/l1.exe PID=    194083.
  
 Copyright (c) 1988,1990,1992,1993,1995,1998,2003,2009,2016,
            Gaussian, Inc.  All Rights Reserved.
  
 This is part of the Gaussian(R) 16 program.  It is based on
 the Gaussian(R) 09 system (copyright 2009, Gaussian, Inc.),
 the Gaussian(R) 03 system (copyright 2003, Gaussian, Inc.),
 the Gaussian(R) 98 system (copyright 1998, Gaussian, Inc.),
 the Gaussian(R) 94 system (copyright 1995, Gaussian, Inc.),
 the Gaussian 92(TM) system (copyright 1992, Gaussian, Inc.),
 the Gaussian 90(TM) system (copyright 1990, Gaussian, Inc.),
 the Gaussian 88(TM) system (copyright 1988, Gaussian, Inc.),
 the Gaussian 86(TM) system (copyright 1986, Carnegie Mellon
 University), and the Gaussian 82(TM) system (copyright 1983,
 Carnegie Mellon University). Gaussian is a federally registered
 trademark of Gaussian, Inc.
  
 This software contains proprietary and confidential information,
 including trade secrets, belonging to Gaussian, Inc.
  
 This software is provided under written license and may be
 used, copied, transmitted, or stored only in accord with that
 written license.
  
 The following legend is applicable only to US Government
 contracts under FAR:
  
                    RESTRICTED RIGHTS LEGEND
  
 Use, reproduction and disclosure by the US Government is
 subject to restrictions as set forth in subparagraphs (a)
 and (c) of the Commercial Computer Software - Restricted
 Rights clause in FAR 52.227-19.
  
 Gaussian, Inc.
 340 Quinnipiac St., Bldg. 40, Wallingford CT 06492
  
  
 ---------------------------------------------------------------
 Warning -- This program may not be used in any manner that
 competes with the business of Gaussian, Inc. or will provide
 assistance to any competitor of Gaussian, Inc.  The licensee
 of this program is prohibited from giving any competitor of
 Gaussian, Inc. access to this program.  By using this program,
 the user acknowledges that Gaussian, Inc. is engaged in the
 business of creating and licensing software in the field of
 computational chemistry and represents and warrants to the
 licensee that it is not a competitor of Gaussian, Inc. and that
 it will not use this program in any manner prohibited above.
 ---------------------------------------------------------------
  

 Cite this work as:
 Gaussian 16, Revision A.03,
 M. J. Frisch, G. W. Trucks, H. B. Schlegel, G. E. Scuseria, 
 M. A. Robb, J. R. Cheeseman, G. Scalmani, V. Barone, 
 G. A. Petersson, H. Nakatsuji, X. Li, M. Caricato, A. V. Marenich, 
 J. Bloino, B. G. Janesko, R. Gomperts, B. Mennucci, H. P. Hratchian, 
 J. V. Ortiz, A. F. Izmaylov, J. L. Sonnenberg, D. Williams-Young, 
 F. Ding, F. Lipparini, F. Egidi, J. Goings, B. Peng, A. Petrone, 
 T. Henderson, D. Ranasinghe, V. G. Zakrzewski, J. Gao, N. Rega, 
 G. Zheng, W. Liang, M. Hada, M. Ehara, K. Toyota, R. Fukuda, 
 J. Hasegawa, M. Ishida, T. Nakajima, Y. Honda, O. Kitao, H. Nakai, 
 T. Vreven, K. Throssell, J. A. Montgomery, Jr., J. E. Peralta, 
 F. Ogliaro, M. J. Bearpark, J. J. Heyd, E. N. Brothers, K. N. Kudin, 
 V. N. Staroverov, T. A. Keith, R. Kobayashi, J. Normand, 
 K. Raghavachari, A. P. Rendell, J. C. Burant, S. S. Iyengar, 
 J. Tomasi, M. Cossi, J. M. Millam, M. Klene, C. Adamo, R. Cammi, 
 J. W. Ochterski, R. L. Martin, K. Morokuma, O. Farkas, 
 J. B. Foresman, and D. J. Fox, Gaussian, Inc., Wallingford CT, 2016.
 
 ******************************************
 Gaussian 16:  ES64L-G16RevA.03 25-Dec-2016
                15-Jul-2022 
 ******************************************
 %mem=10GB
 %chk=dvu7tns15vwn4_addon_9.chk
 %nprocshared=48
 Will use up to   48 processors via shared memory.
 -------------------------------------------------
 #P opt b3lyp/6-311G(d, p) empiricaldispersion=GD3
 -------------------------------------------------
 1/18=20,19=15,26=3,38=1/1,3;
 2/9=110,12=2,17=6,18=5,40=1/2;
 3/5=4,6=6,7=101,11=2,25=1,30=1,71=1,74=-5,124=31/1,2,3;
 4//1;
 5/5=2,38=5/2;
 6/7=2,8=2,9=2,10=2,28=1/1;
 7//1,2,3,16;
 1/18=20,19=15,26=3/3(2);
 2/9=110/2;
 99//99;
 2/9=110/2;
 3/5=4,6=6,7=101,11=2,25=1,30=1,71=1,74=-5,124=31/1,2,3;
 4/5=5,16=3,69=1/1;
 5/5=2,38=5/2;
 7//1,2,3,16;
 1/18=20,19=15,26=3/3(-5);
 2/9=110/2;
 6/7=2,8=2,9=2,10=2,19=2,28=1/1;
 99/9=1/99;
 Leave Link    1 at Fri Jul 15 05:51:05 2022, MaxMem=  1342177280 cpu:               2.3 elap:               0.1
 (Enter /home/mkliu/g16/l101.exe)
 -----
 force
 -----
 Symbolic Z-matrix:
 Charge =  0 Multiplicity = 2
 C                    -1.30008   1.86059  -3.88733 
 C                     0.20285   2.25762  -4.074 
 C                     0.92859   0.88273  -4.24616 
 C                    -1.36027   0.36765  -4.0035 
 C                    -0.12207  -0.16793  -4.13024 
 C                    -2.42032  -0.21688  -3.127 
 C                    -1.86249   2.00218  -2.51732 
 C                    -2.57964   0.89757  -2.14368 
 C                    -1.34228   2.86998  -1.52544 
 C                     0.86379   2.90452  -2.80341 
 C                     0.03085   3.24822  -1.59088 
 C                     1.74308   0.69987  -3.00244 
 C                     1.80051   1.85207  -2.25194 
 C                     2.12388  -0.53108  -2.47522 
 C                     0.18894  -1.42661  -3.60317 
 C                     1.57907  -1.79421  -3.14448 
 C                    -1.98505  -1.45274  -2.40149 
 C                    -0.78343  -2.06492  -2.81317 
 C                    -2.50719  -1.75319  -1.10828 
 C                    -3.05871   0.66893  -0.82665 
 C                    -3.11867  -0.68139  -0.31194 
 C                    -1.99471   2.80128  -0.30569 
 C                    -2.8956    1.74591   0.03386 
 C                    -1.36747   3.22696   0.89607 
 C                     0.69318   3.45305  -0.40083 
 C                    -0.02037   3.5039    0.84115 
 C                     2.36233   1.83112  -0.98802 
 C                     2.12318   3.04531  -0.11523 
 C                     2.75778  -0.55291  -1.22866 
 C                     2.8903    0.63625  -0.48867 
 C                     3.11203  -1.90325  -0.61119 
 C                     1.2863   -2.80552  -2.08193 
 C                    -0.11912  -3.03067  -1.99451 
 C                     2.03678  -2.90315  -0.95503 
 C                    -1.94799  -2.8424   -0.40356 
 C                    -0.7259   -3.45296  -0.84485 
 C                    -1.95186  -2.917     1.01809 
 C                    -3.16091  -0.81923   1.07641 
 C                    -2.56483  -1.93416   1.75797 
 C                    -2.88877   1.57539   1.44561 
 C                    -1.93304   2.49994   1.99345 
 C                    -3.04189   0.31169   1.96577 
 C                    -1.13142   2.09551   3.03715 
 C                     0.82221   3.06242   1.90734 
 C                     2.0606    2.66194   1.33073 
 C                     0.27461   2.38897   2.9831 
 C                     3.45926   0.61051   0.9225 
 C                     2.70092   1.5629    1.80708 
 C                     3.00447  -1.85618   0.88546 
 C                     3.17901  -0.70765   1.58644 
 C                     1.44686  -3.44616   0.22625 
 C                     0.0943   -3.75768   0.28362 
 C                    -0.68335  -3.46933   1.44875 
 C                     2.06915  -2.83316   1.35461 
 C                    -0.0687   -2.94731   2.56528 
 C                     1.33307  -2.63029   2.50686 
 C                    -1.97712  -1.47241   2.98492 
 C                    -2.27324  -0.07699   3.11346 
 C                    -1.31723   0.79249   3.6164 
 C                    -0.73438  -1.95073   3.3593 
 C                     0.97139   1.27254   3.52519 
 C                     2.15997   0.87662   2.93784 
 C                     2.45195  -0.51287   2.80367 
 C                     1.54148  -1.44339   3.26097 
 C                    -0.00671   0.30501   3.94562 
 C                     0.27779  -1.04103   3.81585 
 Cl                   -2.41802   2.69945  -5.01352 
 Cl                    0.39567   3.25848  -5.52803 
 Cl                    1.93108   0.69697  -5.70002 
 Cl                    2.72128  -2.37637  -4.40151 
 Cl                    4.75648  -2.3537   -1.20226 
 Cl                    5.21783   0.99991   0.7822 
 Cl                    3.40578   4.26927  -0.41144 
 Cl                    1.82034   4.36699  -3.24297 
 Cl                   -3.98491  -0.53531  -4.00788 
 
 ITRead=  0  0  0  0  0  0  0  0  0  0  0  0  0  0  0  0  0  0  0  0
 ITRead=  0  0  0  0  0  0  0  0  0  0  0  0  0  0  0  0  0  0  0  0
 ITRead=  0  0  0  0  0  0  0  0  0  0  0  0  0  0  0  0  0  0  0  0
 ITRead=  0  0  0  0  0  0  0  0  0  0  0  0  0  0  0
 MicOpt= -1 -1 -1 -1 -1 -1 -1 -1 -1 -1 -1 -1 -1 -1 -1 -1 -1 -1 -1 -1
 MicOpt= -1 -1 -1 -1 -1 -1 -1 -1 -1 -1 -1 -1 -1 -1 -1 -1 -1 -1 -1 -1
 MicOpt= -1 -1 -1 -1 -1 -1 -1 -1 -1 -1 -1 -1 -1 -1 -1 -1 -1 -1 -1 -1
 MicOpt= -1 -1 -1 -1 -1 -1 -1 -1 -1 -1 -1 -1 -1 -1 -1
 NAtoms=     75 NQM=       75 NQMF=       0 NMMI=      0 NMMIF=      0
                NMic=       0 NMicF=      0.
                    Isotopes and Nuclear Properties:
 (Nuclear quadrupole moments (NQMom) in fm**2, nuclear magnetic moments (NMagM)
  in nuclear magnetons)

  Atom         1           2           3           4           5           6           7           8           9          10
 IAtWgt=          12          12          12          12          12          12          12          12          12          12
 AtmWgt=  12.0000000  12.0000000  12.0000000  12.0000000  12.0000000  12.0000000  12.0000000  12.0000000  12.0000000  12.0000000
 NucSpn=           0           0           0           0           0           0           0           0           0           0
 AtZEff=  -0.0000000  -0.0000000  -0.0000000  -0.0000000  -0.0000000  -0.0000000  -0.0000000  -0.0000000  -0.0000000  -0.0000000
 NQMom=    0.0000000   0.0000000   0.0000000   0.0000000   0.0000000   0.0000000   0.0000000   0.0000000   0.0000000   0.0000000
 NMagM=    0.0000000   0.0000000   0.0000000   0.0000000   0.0000000   0.0000000   0.0000000   0.0000000   0.0000000   0.0000000
 AtZNuc=   6.0000000   6.0000000   6.0000000   6.0000000   6.0000000   6.0000000   6.0000000   6.0000000   6.0000000   6.0000000

  Atom        11          12          13          14          15          16          17          18          19          20
 IAtWgt=          12          12          12          12          12          12          12          12          12          12
 AtmWgt=  12.0000000  12.0000000  12.0000000  12.0000000  12.0000000  12.0000000  12.0000000  12.0000000  12.0000000  12.0000000
 NucSpn=           0           0           0           0           0           0           0           0           0           0
 AtZEff=  -0.0000000  -0.0000000  -0.0000000  -0.0000000  -0.0000000  -0.0000000  -0.0000000  -0.0000000  -0.0000000  -0.0000000
 NQMom=    0.0000000   0.0000000   0.0000000   0.0000000   0.0000000   0.0000000   0.0000000   0.0000000   0.0000000   0.0000000
 NMagM=    0.0000000   0.0000000   0.0000000   0.0000000   0.0000000   0.0000000   0.0000000   0.0000000   0.0000000   0.0000000
 AtZNuc=   6.0000000   6.0000000   6.0000000   6.0000000   6.0000000   6.0000000   6.0000000   6.0000000   6.0000000   6.0000000

  Atom        21          22          23          24          25          26          27          28          29          30
 IAtWgt=          12          12          12          12          12          12          12          12          12          12
 AtmWgt=  12.0000000  12.0000000  12.0000000  12.0000000  12.0000000  12.0000000  12.0000000  12.0000000  12.0000000  12.0000000
 NucSpn=           0           0           0           0           0           0           0           0           0           0
 AtZEff=  -0.0000000  -0.0000000  -0.0000000  -0.0000000  -0.0000000  -0.0000000  -0.0000000  -0.0000000  -0.0000000  -0.0000000
 NQMom=    0.0000000   0.0000000   0.0000000   0.0000000   0.0000000   0.0000000   0.0000000   0.0000000   0.0000000   0.0000000
 NMagM=    0.0000000   0.0000000   0.0000000   0.0000000   0.0000000   0.0000000   0.0000000   0.0000000   0.0000000   0.0000000
 AtZNuc=   6.0000000   6.0000000   6.0000000   6.0000000   6.0000000   6.0000000   6.0000000   6.0000000   6.0000000   6.0000000

  Atom        31          32          33          34          35          36          37          38          39          40
 IAtWgt=          12          12          12          12          12          12          12          12          12          12
 AtmWgt=  12.0000000  12.0000000  12.0000000  12.0000000  12.0000000  12.0000000  12.0000000  12.0000000  12.0000000  12.0000000
 NucSpn=           0           0           0           0           0           0           0           0           0           0
 AtZEff=  -0.0000000  -0.0000000  -0.0000000  -0.0000000  -0.0000000  -0.0000000  -0.0000000  -0.0000000  -0.0000000  -0.0000000
 NQMom=    0.0000000   0.0000000   0.0000000   0.0000000   0.0000000   0.0000000   0.0000000   0.0000000   0.0000000   0.0000000
 NMagM=    0.0000000   0.0000000   0.0000000   0.0000000   0.0000000   0.0000000   0.0000000   0.0000000   0.0000000   0.0000000
 AtZNuc=   6.0000000   6.0000000   6.0000000   6.0000000   6.0000000   6.0000000   6.0000000   6.0000000   6.0000000   6.0000000

  Atom        41          42          43          44          45          46          47          48          49          50
 IAtWgt=          12          12          12          12          12          12          12          12          12          12
 AtmWgt=  12.0000000  12.0000000  12.0000000  12.0000000  12.0000000  12.0000000  12.0000000  12.0000000  12.0000000  12.0000000
 NucSpn=           0           0           0           0           0           0           0           0           0           0
 AtZEff=  -0.0000000  -0.0000000  -0.0000000  -0.0000000  -0.0000000  -0.0000000  -0.0000000  -0.0000000  -0.0000000  -0.0000000
 NQMom=    0.0000000   0.0000000   0.0000000   0.0000000   0.0000000   0.0000000   0.0000000   0.0000000   0.0000000   0.0000000
 NMagM=    0.0000000   0.0000000   0.0000000   0.0000000   0.0000000   0.0000000   0.0000000   0.0000000   0.0000000   0.0000000
 AtZNuc=   6.0000000   6.0000000   6.0000000   6.0000000   6.0000000   6.0000000   6.0000000   6.0000000   6.0000000   6.0000000

  Atom        51          52          53          54          55          56          57          58          59          60
 IAtWgt=          12          12          12          12          12          12          12          12          12          12
 AtmWgt=  12.0000000  12.0000000  12.0000000  12.0000000  12.0000000  12.0000000  12.0000000  12.0000000  12.0000000  12.0000000
 NucSpn=           0           0           0           0           0           0           0           0           0           0
 AtZEff=  -0.0000000  -0.0000000  -0.0000000  -0.0000000  -0.0000000  -0.0000000  -0.0000000  -0.0000000  -0.0000000  -0.0000000
 NQMom=    0.0000000   0.0000000   0.0000000   0.0000000   0.0000000   0.0000000   0.0000000   0.0000000   0.0000000   0.0000000
 NMagM=    0.0000000   0.0000000   0.0000000   0.0000000   0.0000000   0.0000000   0.0000000   0.0000000   0.0000000   0.0000000
 AtZNuc=   6.0000000   6.0000000   6.0000000   6.0000000   6.0000000   6.0000000   6.0000000   6.0000000   6.0000000   6.0000000

  Atom        61          62          63          64          65          66          67          68          69          70
 IAtWgt=          12          12          12          12          12          12          35          35          35          35
 AtmWgt=  12.0000000  12.0000000  12.0000000  12.0000000  12.0000000  12.0000000  34.9688527  34.9688527  34.9688527  34.9688527
 NucSpn=           0           0           0           0           0           0           3           3           3           3
 AtZEff=  -0.0000000  -0.0000000  -0.0000000  -0.0000000  -0.0000000  -0.0000000  -0.0000000  -0.0000000  -0.0000000  -0.0000000
 NQMom=    0.0000000   0.0000000   0.0000000   0.0000000   0.0000000   0.0000000  -8.1650000  -8.1650000  -8.1650000  -8.1650000
 NMagM=    0.0000000   0.0000000   0.0000000   0.0000000   0.0000000   0.0000000   0.8218740   0.8218740   0.8218740   0.8218740
 AtZNuc=   6.0000000   6.0000000   6.0000000   6.0000000   6.0000000   6.0000000  17.0000000  17.0000000  17.0000000  17.0000000

  Atom        71          72          73          74          75
 IAtWgt=          35          35          35          35          35
 AtmWgt=  34.9688527  34.9688527  34.9688527  34.9688527  34.9688527
 NucSpn=           3           3           3           3           3
 AtZEff=  -0.0000000  -0.0000000  -0.0000000  -0.0000000  -0.0000000
 NQMom=   -8.1650000  -8.1650000  -8.1650000  -8.1650000  -8.1650000
 NMagM=    0.8218740   0.8218740   0.8218740   0.8218740   0.8218740
 AtZNuc=  17.0000000  17.0000000  17.0000000  17.0000000  17.0000000
 Leave Link  101 at Fri Jul 15 05:51:05 2022, MaxMem=  1342177280 cpu:              12.9 elap:               0.3
 (Enter /home/mkliu/g16/l103.exe)

 GradGradGradGradGradGradGradGradGradGradGradGradGradGradGradGradGradGrad
 Berny optimization.
 Initialization pass.
                           ----------------------------
                           !    Initial Parameters    !
                           ! (Angstroms and Degrees)  !
 --------------------------                            --------------------------
 ! Name  Definition              Value          Derivative Info.                !
 --------------------------------------------------------------------------------
 ! R1    R(1,2)                  1.5657         estimate D2E/DX2                !
 ! R2    R(1,4)                  1.4987         estimate D2E/DX2                !
 ! R3    R(1,7)                  1.4877         estimate D2E/DX2                !
 ! R4    R(1,67)                 1.7949         estimate D2E/DX2                !
 ! R5    R(2,3)                  1.5642         estimate D2E/DX2                !
 ! R6    R(2,10)                 1.5715         estimate D2E/DX2                !
 ! R7    R(2,68)                 1.7757         estimate D2E/DX2                !
 ! R8    R(3,5)                  1.4904         estimate D2E/DX2                !
 ! R9    R(3,12)                 1.4979         estimate D2E/DX2                !
 ! R10   R(3,69)                 1.7757         estimate D2E/DX2                !
 ! R11   R(4,5)                  1.355          estimate D2E/DX2                !
 ! R12   R(4,6)                  1.4945         estimate D2E/DX2                !
 ! R13   R(5,15)                 1.3996         estimate D2E/DX2                !
 ! R14   R(6,8)                  1.4948         estimate D2E/DX2                !
 ! R15   R(6,17)                 1.4977         estimate D2E/DX2                !
 ! R16   R(6,75)                 1.8235         estimate D2E/DX2                !
 ! R17   R(7,8)                  1.369          estimate D2E/DX2                !
 ! R18   R(7,9)                  1.4169         estimate D2E/DX2                !
 ! R19   R(8,20)                 1.42           estimate D2E/DX2                !
 ! R20   R(9,11)                 1.4258         estimate D2E/DX2                !
 ! R21   R(9,22)                 1.385          estimate D2E/DX2                !
 ! R22   R(10,11)                1.5107         estimate D2E/DX2                !
 ! R23   R(10,13)                1.513          estimate D2E/DX2                !
 ! R24   R(10,74)                1.8019         estimate D2E/DX2                !
 ! R25   R(11,25)                1.3773         estimate D2E/DX2                !
 ! R26   R(12,13)                1.3763         estimate D2E/DX2                !
 ! R27   R(12,14)                1.3922         estimate D2E/DX2                !
 ! R28   R(13,27)                1.3833         estimate D2E/DX2                !
 ! R29   R(14,16)                1.5298         estimate D2E/DX2                !
 ! R30   R(14,29)                1.3986         estimate D2E/DX2                !
 ! R31   R(15,16)                1.5093         estimate D2E/DX2                !
 ! R32   R(15,18)                1.4061         estimate D2E/DX2                !
 ! R33   R(16,32)                1.4958         estimate D2E/DX2                !
 ! R34   R(16,70)                1.7955         estimate D2E/DX2                !
 ! R35   R(17,18)                1.41           estimate D2E/DX2                !
 ! R36   R(17,19)                1.4266         estimate D2E/DX2                !
 ! R37   R(18,33)                1.4297         estimate D2E/DX2                !
 ! R38   R(19,21)                1.4686         estimate D2E/DX2                !
 ! R39   R(19,35)                1.4127         estimate D2E/DX2                !
 ! R40   R(20,21)                1.4463         estimate D2E/DX2                !
 ! R41   R(20,23)                1.3882         estimate D2E/DX2                !
 ! R42   R(21,38)                1.3958         estimate D2E/DX2                !
 ! R43   R(22,23)                1.4285         estimate D2E/DX2                !
 ! R44   R(22,24)                1.4209         estimate D2E/DX2                !
 ! R45   R(23,40)                1.422          estimate D2E/DX2                !
 ! R46   R(24,26)                1.3764         estimate D2E/DX2                !
 ! R47   R(24,41)                1.4327         estimate D2E/DX2                !
 ! R48   R(25,26)                1.4333         estimate D2E/DX2                !
 ! R49   R(25,28)                1.5142         estimate D2E/DX2                !
 ! R50   R(26,44)                1.4289         estimate D2E/DX2                !
 ! R51   R(27,28)                1.5143         estimate D2E/DX2                !
 ! R52   R(27,30)                1.3985         estimate D2E/DX2                !
 ! R53   R(28,45)                1.4972         estimate D2E/DX2                !
 ! R54   R(28,73)                1.7975         estimate D2E/DX2                !
 ! R55   R(29,30)                1.4069         estimate D2E/DX2                !
 ! R56   R(29,31)                1.5265         estimate D2E/DX2                !
 ! R57   R(30,47)                1.5218         estimate D2E/DX2                !
 ! R58   R(31,34)                1.5081         estimate D2E/DX2                !
 ! R59   R(31,49)                1.5012         estimate D2E/DX2                !
 ! R60   R(31,71)                1.8046         estimate D2E/DX2                !
 ! R61   R(32,33)                1.426          estimate D2E/DX2                !
 ! R62   R(32,34)                1.3574         estimate D2E/DX2                !
 ! R63   R(33,36)                1.3668         estimate D2E/DX2                !
 ! R64   R(34,51)                1.4277         estimate D2E/DX2                !
 ! R65   R(35,36)                1.4356         estimate D2E/DX2                !
 ! R66   R(35,37)                1.4236         estimate D2E/DX2                !
 ! R67   R(36,52)                1.4279         estimate D2E/DX2                !
 ! R68   R(37,39)                1.3745         estimate D2E/DX2                !
 ! R69   R(37,53)                1.449          estimate D2E/DX2                !
 ! R70   R(38,39)                1.4363         estimate D2E/DX2                !
 ! R71   R(38,42)                1.4436         estimate D2E/DX2                !
 ! R72   R(39,57)                1.4367         estimate D2E/DX2                !
 ! R73   R(40,41)                1.4382         estimate D2E/DX2                !
 ! R74   R(40,42)                1.3751         estimate D2E/DX2                !
 ! R75   R(41,43)                1.3768         estimate D2E/DX2                !
 ! R76   R(42,58)                1.435          estimate D2E/DX2                !
 ! R77   R(43,46)                1.4373         estimate D2E/DX2                !
 ! R78   R(43,59)                1.438          estimate D2E/DX2                !
 ! R79   R(44,45)                1.4235         estimate D2E/DX2                !
 ! R80   R(44,46)                1.3823         estimate D2E/DX2                !
 ! R81   R(45,48)                1.3582         estimate D2E/DX2                !
 ! R82   R(46,61)                1.4233         estimate D2E/DX2                !
 ! R83   R(47,48)                1.5049         estimate D2E/DX2                !
 ! R84   R(47,50)                1.5023         estimate D2E/DX2                !
 ! R85   R(47,72)                1.8066         estimate D2E/DX2                !
 ! R86   R(48,62)                1.4291         estimate D2E/DX2                !
 ! R87   R(49,50)                1.3568         estimate D2E/DX2                !
 ! R88   R(49,54)                1.4316         estimate D2E/DX2                !
 ! R89   R(50,63)                1.4312         estimate D2E/DX2                !
 ! R90   R(51,52)                1.3892         estimate D2E/DX2                !
 ! R91   R(51,54)                1.427          estimate D2E/DX2                !
 ! R92   R(52,53)                1.4302         estimate D2E/DX2                !
 ! R93   R(53,55)                1.3773         estimate D2E/DX2                !
 ! R94   R(54,56)                1.3823         estimate D2E/DX2                !
 ! R95   R(55,56)                1.4384         estimate D2E/DX2                !
 ! R96   R(55,60)                1.4376         estimate D2E/DX2                !
 ! R97   R(56,64)                1.4216         estimate D2E/DX2                !
 ! R98   R(57,58)                1.4323         estimate D2E/DX2                !
 ! R99   R(57,60)                1.3832         estimate D2E/DX2                !
 ! R100  R(58,59)                1.3867         estimate D2E/DX2                !
 ! R101  R(59,65)                1.4365         estimate D2E/DX2                !
 ! R102  R(60,66)                1.4354         estimate D2E/DX2                !
 ! R103  R(61,62)                1.3836         estimate D2E/DX2                !
 ! R104  R(61,65)                1.4386         estimate D2E/DX2                !
 ! R105  R(62,63)                1.4262         estimate D2E/DX2                !
 ! R106  R(63,64)                1.3798         estimate D2E/DX2                !
 ! R107  R(64,66)                1.4376         estimate D2E/DX2                !
 ! R108  R(65,66)                1.3819         estimate D2E/DX2                !
 ! A1    A(2,1,4)              106.3756         estimate D2E/DX2                !
 ! A2    A(2,1,7)              116.6511         estimate D2E/DX2                !
 ! A3    A(2,1,67)             113.8636         estimate D2E/DX2                !
 ! A4    A(4,1,7)               98.6855         estimate D2E/DX2                !
 ! A5    A(4,1,67)             113.0737         estimate D2E/DX2                !
 ! A6    A(7,1,67)             107.3284         estimate D2E/DX2                !
 ! A7    A(1,2,3)              103.6274         estimate D2E/DX2                !
 ! A8    A(1,2,10)             114.3123         estimate D2E/DX2                !
 ! A9    A(1,2,68)             110.1697         estimate D2E/DX2                !
 ! A10   A(3,2,10)             104.8137         estimate D2E/DX2                !
 ! A11   A(3,2,68)             110.789          estimate D2E/DX2                !
 ! A12   A(10,2,68)            112.6037         estimate D2E/DX2                !
 ! A13   A(2,3,5)              106.4998         estimate D2E/DX2                !
 ! A14   A(2,3,12)             105.5577         estimate D2E/DX2                !
 ! A15   A(2,3,69)             116.3595         estimate D2E/DX2                !
 ! A16   A(5,3,12)             103.4553         estimate D2E/DX2                !
 ! A17   A(5,3,69)             112.8253         estimate D2E/DX2                !
 ! A18   A(12,3,69)            111.1039         estimate D2E/DX2                !
 ! A19   A(1,4,5)              111.3647         estimate D2E/DX2                !
 ! A20   A(1,4,6)              111.879          estimate D2E/DX2                !
 ! A21   A(5,4,6)              123.2572         estimate D2E/DX2                !
 ! A22   A(3,5,4)              111.8895         estimate D2E/DX2                !
 ! A23   A(3,5,15)             120.4399         estimate D2E/DX2                !
 ! A24   A(4,5,15)             121.5547         estimate D2E/DX2                !
 ! A25   A(4,6,8)               99.7763         estimate D2E/DX2                !
 ! A26   A(4,6,17)             113.6212         estimate D2E/DX2                !
 ! A27   A(4,6,75)             113.1764         estimate D2E/DX2                !
 ! A28   A(8,6,17)             109.1186         estimate D2E/DX2                !
 ! A29   A(8,6,75)             110.8868         estimate D2E/DX2                !
 ! A30   A(17,6,75)            109.8319         estimate D2E/DX2                !
 ! A31   A(1,7,8)              111.8753         estimate D2E/DX2                !
 ! A32   A(1,7,9)              124.3437         estimate D2E/DX2                !
 ! A33   A(8,7,9)              119.7007         estimate D2E/DX2                !
 ! A34   A(6,8,7)              111.4822         estimate D2E/DX2                !
 ! A35   A(6,8,20)             121.74           estimate D2E/DX2                !
 ! A36   A(7,8,20)             124.0424         estimate D2E/DX2                !
 ! A37   A(7,9,11)             118.9436         estimate D2E/DX2                !
 ! A38   A(7,9,22)             114.4054         estimate D2E/DX2                !
 ! A39   A(11,9,22)            120.4819         estimate D2E/DX2                !
 ! A40   A(2,10,11)            120.7107         estimate D2E/DX2                !
 ! A41   A(2,10,13)            105.5888         estimate D2E/DX2                !
 ! A42   A(2,10,74)            111.1078         estimate D2E/DX2                !
 ! A43   A(11,10,13)           101.9501         estimate D2E/DX2                !
 ! A44   A(11,10,74)           107.6876         estimate D2E/DX2                !
 ! A45   A(13,10,74)           108.9543         estimate D2E/DX2                !
 ! A46   A(9,11,10)            120.497          estimate D2E/DX2                !
 ! A47   A(9,11,25)            117.5769         estimate D2E/DX2                !
 ! A48   A(10,11,25)           117.5303         estimate D2E/DX2                !
 ! A49   A(3,12,13)            111.9178         estimate D2E/DX2                !
 ! A50   A(3,12,14)            124.8276         estimate D2E/DX2                !
 ! A51   A(13,12,14)           121.4865         estimate D2E/DX2                !
 ! A52   A(10,13,12)           110.962          estimate D2E/DX2                !
 ! A53   A(10,13,27)           126.5128         estimate D2E/DX2                !
 ! A54   A(12,13,27)           120.1672         estimate D2E/DX2                !
 ! A55   A(12,14,16)           117.838          estimate D2E/DX2                !
 ! A56   A(12,14,29)           118.3781         estimate D2E/DX2                !
 ! A57   A(16,14,29)           122.5772         estimate D2E/DX2                !
 ! A58   A(5,15,16)            122.5586         estimate D2E/DX2                !
 ! A59   A(5,15,18)            117.7865         estimate D2E/DX2                !
 ! A60   A(16,15,18)           110.8322         estimate D2E/DX2                !
 ! A61   A(14,16,15)           105.0622         estimate D2E/DX2                !
 ! A62   A(14,16,32)           108.4927         estimate D2E/DX2                !
 ! A63   A(14,16,70)           110.3313         estimate D2E/DX2                !
 ! A64   A(15,16,32)           101.5533         estimate D2E/DX2                !
 ! A65   A(15,16,70)           116.8809         estimate D2E/DX2                !
 ! A66   A(32,16,70)           113.7422         estimate D2E/DX2                !
 ! A67   A(6,17,18)            117.6776         estimate D2E/DX2                !
 ! A68   A(6,17,19)            120.4319         estimate D2E/DX2                !
 ! A69   A(18,17,19)           119.021          estimate D2E/DX2                !
 ! A70   A(15,18,17)           123.7993         estimate D2E/DX2                !
 ! A71   A(15,18,33)           107.8801         estimate D2E/DX2                !
 ! A72   A(17,18,33)           121.47           estimate D2E/DX2                !
 ! A73   A(17,19,21)           119.3547         estimate D2E/DX2                !
 ! A74   A(17,19,35)           118.014          estimate D2E/DX2                !
 ! A75   A(21,19,35)           117.1947         estimate D2E/DX2                !
 ! A76   A(8,20,21)            119.6286         estimate D2E/DX2                !
 ! A77   A(8,20,23)            114.2294         estimate D2E/DX2                !
 ! A78   A(21,20,23)           120.5707         estimate D2E/DX2                !
 ! A79   A(19,21,20)           118.108          estimate D2E/DX2                !
 ! A80   A(19,21,38)           118.6769         estimate D2E/DX2                !
 ! A81   A(20,21,38)           116.5781         estimate D2E/DX2                !
 ! A82   A(9,22,23)            122.8926         estimate D2E/DX2                !
 ! A83   A(9,22,24)            121.4713         estimate D2E/DX2                !
 ! A84   A(23,22,24)           107.3787         estimate D2E/DX2                !
 ! A85   A(20,23,22)           119.9953         estimate D2E/DX2                !
 ! A86   A(20,23,40)           121.5298         estimate D2E/DX2                !
 ! A87   A(22,23,40)           108.7562         estimate D2E/DX2                !
 ! A88   A(22,24,26)           117.2964         estimate D2E/DX2                !
 ! A89   A(22,24,41)           108.7565         estimate D2E/DX2                !
 ! A90   A(26,24,41)           121.2666         estimate D2E/DX2                !
 ! A91   A(11,25,26)           120.9709         estimate D2E/DX2                !
 ! A92   A(11,25,28)           125.2472         estimate D2E/DX2                !
 ! A93   A(26,25,28)           108.4383         estimate D2E/DX2                !
 ! A94   A(24,26,25)           120.9775         estimate D2E/DX2                !
 ! A95   A(24,26,44)           119.0264         estimate D2E/DX2                !
 ! A96   A(25,26,44)           110.0021         estimate D2E/DX2                !
 ! A97   A(13,27,28)           116.7648         estimate D2E/DX2                !
 ! A98   A(13,27,30)           119.5052         estimate D2E/DX2                !
 ! A99   A(28,27,30)           122.6071         estimate D2E/DX2                !
 ! A100  A(25,28,27)           104.8529         estimate D2E/DX2                !
 ! A101  A(25,28,45)           102.2185         estimate D2E/DX2                !
 ! A102  A(25,28,73)           117.3515         estimate D2E/DX2                !
 ! A103  A(27,28,45)           110.9723         estimate D2E/DX2                !
 ! A104  A(27,28,73)           109.7736         estimate D2E/DX2                !
 ! A105  A(45,28,73)           111.305          estimate D2E/DX2                !
 ! A106  A(14,29,30)           119.887          estimate D2E/DX2                !
 ! A107  A(14,29,31)           118.6533         estimate D2E/DX2                !
 ! A108  A(30,29,31)           120.87           estimate D2E/DX2                !
 ! A109  A(27,30,29)           119.9215         estimate D2E/DX2                !
 ! A110  A(27,30,47)           119.1244         estimate D2E/DX2                !
 ! A111  A(29,30,47)           120.5761         estimate D2E/DX2                !
 ! A112  A(29,31,34)           109.1978         estimate D2E/DX2                !
 ! A113  A(29,31,49)           111.0328         estimate D2E/DX2                !
 ! A114  A(29,31,71)           107.4454         estimate D2E/DX2                !
 ! A115  A(34,31,49)           101.3621         estimate D2E/DX2                !
 ! A116  A(34,31,71)           114.177          estimate D2E/DX2                !
 ! A117  A(49,31,71)           113.5567         estimate D2E/DX2                !
 ! A118  A(16,32,33)           110.0712         estimate D2E/DX2                !
 ! A119  A(16,32,34)           122.0139         estimate D2E/DX2                !
 ! A120  A(33,32,34)           118.8567         estimate D2E/DX2                !
 ! A121  A(18,33,32)           108.4317         estimate D2E/DX2                !
 ! A122  A(18,33,36)           118.9495         estimate D2E/DX2                !
 ! A123  A(32,33,36)           122.5379         estimate D2E/DX2                !
 ! A124  A(31,34,32)           122.3973         estimate D2E/DX2                !
 ! A125  A(31,34,51)           110.9864         estimate D2E/DX2                !
 ! A126  A(32,34,51)           119.0653         estimate D2E/DX2                !
 ! A127  A(19,35,36)           120.7662         estimate D2E/DX2                !
 ! A128  A(19,35,37)           122.5123         estimate D2E/DX2                !
 ! A129  A(36,35,37)           106.6775         estimate D2E/DX2                !
 ! A130  A(33,36,35)           120.3341         estimate D2E/DX2                !
 ! A131  A(33,36,52)           118.4021         estimate D2E/DX2                !
 ! A132  A(35,36,52)           109.682          estimate D2E/DX2                !
 ! A133  A(35,37,39)           120.0867         estimate D2E/DX2                !
 ! A134  A(35,37,53)           108.324          estimate D2E/DX2                !
 ! A135  A(39,37,53)           120.1987         estimate D2E/DX2                !
 ! A136  A(21,38,39)           122.4177         estimate D2E/DX2                !
 ! A137  A(21,38,42)           122.2018         estimate D2E/DX2                !
 ! A138  A(39,38,42)           106.3529         estimate D2E/DX2                !
 ! A139  A(37,39,38)           118.9947         estimate D2E/DX2                !
 ! A140  A(37,39,57)           120.472          estimate D2E/DX2                !
 ! A141  A(38,39,57)           108.9985         estimate D2E/DX2                !
 ! A142  A(23,40,41)           107.7143         estimate D2E/DX2                !
 ! A143  A(23,40,42)           119.0258         estimate D2E/DX2                !
 ! A144  A(41,40,42)           121.3778         estimate D2E/DX2                !
 ! A145  A(24,41,40)           107.2642         estimate D2E/DX2                !
 ! A146  A(24,41,43)           119.9915         estimate D2E/DX2                !
 ! A147  A(40,41,43)           119.1347         estimate D2E/DX2                !
 ! A148  A(38,42,40)           119.739          estimate D2E/DX2                !
 ! A149  A(38,42,58)           108.9471         estimate D2E/DX2                !
 ! A150  A(40,42,58)           119.4602         estimate D2E/DX2                !
 ! A151  A(41,43,46)           118.7563         estimate D2E/DX2                !
 ! A152  A(41,43,59)           119.7559         estimate D2E/DX2                !
 ! A153  A(46,43,59)           109.0588         estimate D2E/DX2                !
 ! A154  A(26,44,45)           107.318          estimate D2E/DX2                !
 ! A155  A(26,44,46)           119.8443         estimate D2E/DX2                !
 ! A156  A(45,44,46)           121.5209         estimate D2E/DX2                !
 ! A157  A(28,45,44)           110.8247         estimate D2E/DX2                !
 ! A158  A(28,45,48)           121.7482         estimate D2E/DX2                !
 ! A159  A(44,45,48)           119.7157         estimate D2E/DX2                !
 ! A160  A(43,46,44)           121.0821         estimate D2E/DX2                !
 ! A161  A(43,46,61)           107.7233         estimate D2E/DX2                !
 ! A162  A(44,46,61)           118.9884         estimate D2E/DX2                !
 ! A163  A(30,47,48)           110.2418         estimate D2E/DX2                !
 ! A164  A(30,47,50)           110.7889         estimate D2E/DX2                !
 ! A165  A(30,47,72)           106.7548         estimate D2E/DX2                !
 ! A166  A(48,47,50)           101.6254         estimate D2E/DX2                !
 ! A167  A(48,47,72)           113.5633         estimate D2E/DX2                !
 ! A168  A(50,47,72)           113.8926         estimate D2E/DX2                !
 ! A169  A(45,48,47)           122.9234         estimate D2E/DX2                !
 ! A170  A(45,48,62)           119.1855         estimate D2E/DX2                !
 ! A171  A(47,48,62)           110.6061         estimate D2E/DX2                !
 ! A172  A(31,49,50)           122.1662         estimate D2E/DX2                !
 ! A173  A(31,49,54)           110.6169         estimate D2E/DX2                !
 ! A174  A(50,49,54)           119.5002         estimate D2E/DX2                !
 ! A175  A(47,50,49)           122.5749         estimate D2E/DX2                !
 ! A176  A(47,50,63)           110.5632         estimate D2E/DX2                !
 ! A177  A(49,50,63)           119.2925         estimate D2E/DX2                !
 ! A178  A(34,51,52)           121.451          estimate D2E/DX2                !
 ! A179  A(34,51,54)           108.1008         estimate D2E/DX2                !
 ! A180  A(52,51,54)           119.2277         estimate D2E/DX2                !
 ! A181  A(36,52,51)           118.6052         estimate D2E/DX2                !
 ! A182  A(36,52,53)           106.7666         estimate D2E/DX2                !
 ! A183  A(51,52,53)           121.1881         estimate D2E/DX2                !
 ! A184  A(37,53,52)           108.1033         estimate D2E/DX2                !
 ! A185  A(37,53,55)           119.1527         estimate D2E/DX2                !
 ! A186  A(52,53,55)           119.6165         estimate D2E/DX2                !
 ! A187  A(49,54,51)           108.5999         estimate D2E/DX2                !
 ! A188  A(49,54,56)           121.3947         estimate D2E/DX2                !
 ! A189  A(51,54,56)           119.3401         estimate D2E/DX2                !
 ! A190  A(53,55,56)           119.0471         estimate D2E/DX2                !
 ! A191  A(53,55,60)           120.2544         estimate D2E/DX2                !
 ! A192  A(56,55,60)           108.718          estimate D2E/DX2                !
 ! A193  A(54,56,55)           121.3643         estimate D2E/DX2                !
 ! A194  A(54,56,64)           119.1225         estimate D2E/DX2                !
 ! A195  A(55,56,64)           107.7793         estimate D2E/DX2                !
 ! A196  A(39,57,58)           107.7703         estimate D2E/DX2                !
 ! A197  A(39,57,60)           119.1784         estimate D2E/DX2                !
 ! A198  A(58,57,60)           119.891          estimate D2E/DX2                !
 ! A199  A(42,58,57)           107.6298         estimate D2E/DX2                !
 ! A200  A(42,58,59)           119.3104         estimate D2E/DX2                !
 ! A201  A(57,58,59)           120.0599         estimate D2E/DX2                !
 ! A202  A(43,59,58)           120.7398         estimate D2E/DX2                !
 ! A203  A(43,59,65)           106.376          estimate D2E/DX2                !
 ! A204  A(58,59,65)           119.9538         estimate D2E/DX2                !
 ! A205  A(55,60,57)           120.4135         estimate D2E/DX2                !
 ! A206  A(55,60,66)           106.767          estimate D2E/DX2                !
 ! A207  A(57,60,66)           120.0299         estimate D2E/DX2                !
 ! A208  A(46,61,62)           118.902          estimate D2E/DX2                !
 ! A209  A(46,61,65)           107.819          estimate D2E/DX2                !
 ! A210  A(62,61,65)           121.0418         estimate D2E/DX2                !
 ! A211  A(48,62,61)           121.5768         estimate D2E/DX2                !
 ! A212  A(48,62,63)           108.4179         estimate D2E/DX2                !
 ! A213  A(61,62,63)           119.6429         estimate D2E/DX2                !
 ! A214  A(50,63,62)           108.4589         estimate D2E/DX2                !
 ! A215  A(50,63,64)           121.6887         estimate D2E/DX2                !
 ! A216  A(62,63,64)           119.3906         estimate D2E/DX2                !
 ! A217  A(56,64,63)           118.9457         estimate D2E/DX2                !
 ! A218  A(56,64,66)           108.0327         estimate D2E/DX2                !
 ! A219  A(63,64,66)           121.2781         estimate D2E/DX2                !
 ! A220  A(59,65,61)           108.9691         estimate D2E/DX2                !
 ! A221  A(59,65,66)           119.7926         estimate D2E/DX2                !
 ! A222  A(61,65,66)           119.1884         estimate D2E/DX2                !
 ! A223  A(60,66,64)           108.6444         estimate D2E/DX2                !
 ! A224  A(60,66,65)           120.1321         estimate D2E/DX2                !
 ! A225  A(64,66,65)           119.3302         estimate D2E/DX2                !
 ! D1    D(4,1,2,3)             -1.8262         estimate D2E/DX2                !
 ! D2    D(4,1,2,10)          -115.2925         estimate D2E/DX2                !
 ! D3    D(4,1,2,68)           116.7365         estimate D2E/DX2                !
 ! D4    D(7,1,2,3)            107.0536         estimate D2E/DX2                !
 ! D5    D(7,1,2,10)            -6.4127         estimate D2E/DX2                !
 ! D6    D(7,1,2,68)          -134.3837         estimate D2E/DX2                !
 ! D7    D(67,1,2,3)          -127.0424         estimate D2E/DX2                !
 ! D8    D(67,1,2,10)          119.4913         estimate D2E/DX2                !
 ! D9    D(67,1,2,68)           -8.4798         estimate D2E/DX2                !
 ! D10   D(2,1,4,5)              4.4492         estimate D2E/DX2                !
 ! D11   D(2,1,4,6)            146.7901         estimate D2E/DX2                !
 ! D12   D(7,1,4,5)           -116.7379         estimate D2E/DX2                !
 ! D13   D(7,1,4,6)             25.603          estimate D2E/DX2                !
 ! D14   D(67,1,4,5)           130.147          estimate D2E/DX2                !
 ! D15   D(67,1,4,6)           -87.5121         estimate D2E/DX2                !
 ! D16   D(2,1,7,8)           -133.6889         estimate D2E/DX2                !
 ! D17   D(2,1,7,9)             23.3802         estimate D2E/DX2                !
 ! D18   D(4,1,7,8)            -20.3746         estimate D2E/DX2                !
 ! D19   D(4,1,7,9)            136.6945         estimate D2E/DX2                !
 ! D20   D(67,1,7,8)            97.2046         estimate D2E/DX2                !
 ! D21   D(67,1,7,9)          -105.7263         estimate D2E/DX2                !
 ! D22   D(1,2,3,5)             -1.0275         estimate D2E/DX2                !
 ! D23   D(1,2,3,12)          -110.5622         estimate D2E/DX2                !
 ! D24   D(1,2,3,69)           125.7214         estimate D2E/DX2                !
 ! D25   D(10,2,3,5)           119.1258         estimate D2E/DX2                !
 ! D26   D(10,2,3,12)            9.5911         estimate D2E/DX2                !
 ! D27   D(10,2,3,69)         -114.1253         estimate D2E/DX2                !
 ! D28   D(68,2,3,5)          -119.1615         estimate D2E/DX2                !
 ! D29   D(68,2,3,12)          131.3038         estimate D2E/DX2                !
 ! D30   D(68,2,3,69)            7.5874         estimate D2E/DX2                !
 ! D31   D(1,2,10,11)           -7.0771         estimate D2E/DX2                !
 ! D32   D(1,2,10,13)          107.49           estimate D2E/DX2                !
 ! D33   D(1,2,10,74)         -134.5297         estimate D2E/DX2                !
 ! D34   D(3,2,10,11)         -119.839          estimate D2E/DX2                !
 ! D35   D(3,2,10,13)           -5.272          estimate D2E/DX2                !
 ! D36   D(3,2,10,74)          112.7084         estimate D2E/DX2                !
 ! D37   D(68,2,10,11)         119.6446         estimate D2E/DX2                !
 ! D38   D(68,2,10,13)        -125.7883         estimate D2E/DX2                !
 ! D39   D(68,2,10,74)          -7.8079         estimate D2E/DX2                !
 ! D40   D(2,3,5,4)              3.9464         estimate D2E/DX2                !
 ! D41   D(2,3,5,15)          -148.957          estimate D2E/DX2                !
 ! D42   D(12,3,5,4)           114.954          estimate D2E/DX2                !
 ! D43   D(12,3,5,15)          -37.9494         estimate D2E/DX2                !
 ! D44   D(69,3,5,4)          -124.8888         estimate D2E/DX2                !
 ! D45   D(69,3,5,15)           82.2078         estimate D2E/DX2                !
 ! D46   D(2,3,12,13)          -11.2192         estimate D2E/DX2                !
 ! D47   D(2,3,12,14)          153.7481         estimate D2E/DX2                !
 ! D48   D(5,3,12,13)         -122.9191         estimate D2E/DX2                !
 ! D49   D(5,3,12,14)           42.0482         estimate D2E/DX2                !
 ! D50   D(69,3,12,13)         115.7563         estimate D2E/DX2                !
 ! D51   D(69,3,12,14)         -79.2764         estimate D2E/DX2                !
 ! D52   D(1,4,5,3)             -5.3478         estimate D2E/DX2                !
 ! D53   D(1,4,5,15)           147.2104         estimate D2E/DX2                !
 ! D54   D(6,4,5,3)           -142.6602         estimate D2E/DX2                !
 ! D55   D(6,4,5,15)             9.8981         estimate D2E/DX2                !
 ! D56   D(1,4,6,8)            -21.1815         estimate D2E/DX2                !
 ! D57   D(1,4,6,17)          -137.164          estimate D2E/DX2                !
 ! D58   D(1,4,6,75)            96.6777         estimate D2E/DX2                !
 ! D59   D(5,4,6,8)            115.9421         estimate D2E/DX2                !
 ! D60   D(5,4,6,17)            -0.0404         estimate D2E/DX2                !
 ! D61   D(5,4,6,75)          -126.1986         estimate D2E/DX2                !
 ! D62   D(3,5,15,16)           -0.6845         estimate D2E/DX2                !
 ! D63   D(3,5,15,18)          143.7445         estimate D2E/DX2                !
 ! D64   D(4,5,15,16)         -150.9495         estimate D2E/DX2                !
 ! D65   D(4,5,15,18)           -6.5205         estimate D2E/DX2                !
 ! D66   D(4,6,8,7)              7.3888         estimate D2E/DX2                !
 ! D67   D(4,6,8,20)          -154.5702         estimate D2E/DX2                !
 ! D68   D(17,6,8,7)           126.733          estimate D2E/DX2                !
 ! D69   D(17,6,8,20)          -35.226          estimate D2E/DX2                !
 ! D70   D(75,6,8,7)          -112.1625         estimate D2E/DX2                !
 ! D71   D(75,6,8,20)           85.8786         estimate D2E/DX2                !
 ! D72   D(4,6,17,18)          -12.5491         estimate D2E/DX2                !
 ! D73   D(4,6,17,19)          148.093          estimate D2E/DX2                !
 ! D74   D(8,6,17,18)         -122.8986         estimate D2E/DX2                !
 ! D75   D(8,6,17,19)           37.7435         estimate D2E/DX2                !
 ! D76   D(75,6,17,18)         115.3562         estimate D2E/DX2                !
 ! D77   D(75,6,17,19)         -84.0017         estimate D2E/DX2                !
 ! D78   D(1,7,8,6)              8.7417         estimate D2E/DX2                !
 ! D79   D(1,7,8,20)           170.2086         estimate D2E/DX2                !
 ! D80   D(9,7,8,6)           -149.5209         estimate D2E/DX2                !
 ! D81   D(9,7,8,20)            11.9459         estimate D2E/DX2                !
 ! D82   D(1,7,9,11)           -25.1341         estimate D2E/DX2                !
 ! D83   D(1,7,9,22)          -177.6915         estimate D2E/DX2                !
 ! D84   D(8,7,9,11)           130.2678         estimate D2E/DX2                !
 ! D85   D(8,7,9,22)           -22.2897         estimate D2E/DX2                !
 ! D86   D(6,8,20,21)           13.8916         estimate D2E/DX2                !
 ! D87   D(6,8,20,23)          167.7331         estimate D2E/DX2                !
 ! D88   D(7,8,20,21)         -145.7565         estimate D2E/DX2                !
 ! D89   D(7,8,20,23)            8.085          estimate D2E/DX2                !
 ! D90   D(7,9,11,10)            9.1683         estimate D2E/DX2                !
 ! D91   D(7,9,11,25)         -146.7255         estimate D2E/DX2                !
 ! D92   D(22,9,11,10)         160.0257         estimate D2E/DX2                !
 ! D93   D(22,9,11,25)           4.1319         estimate D2E/DX2                !
 ! D94   D(7,9,22,23)           13.9775         estimate D2E/DX2                !
 ! D95   D(7,9,22,24)          158.3616         estimate D2E/DX2                !
 ! D96   D(11,9,22,23)        -138.1196         estimate D2E/DX2                !
 ! D97   D(11,9,22,24)           6.2646         estimate D2E/DX2                !
 ! D98   D(2,10,11,9)            6.3222         estimate D2E/DX2                !
 ! D99   D(2,10,11,25)         162.2269         estimate D2E/DX2                !
 ! D100  D(13,10,11,9)        -110.1146         estimate D2E/DX2                !
 ! D101  D(13,10,11,25)         45.7901         estimate D2E/DX2                !
 ! D102  D(74,10,11,9)         135.3046         estimate D2E/DX2                !
 ! D103  D(74,10,11,25)        -68.7907         estimate D2E/DX2                !
 ! D104  D(2,10,13,12)          -1.3979         estimate D2E/DX2                !
 ! D105  D(2,10,13,27)        -163.7943         estimate D2E/DX2                !
 ! D106  D(11,10,13,12)        125.5437         estimate D2E/DX2                !
 ! D107  D(11,10,13,27)        -36.8528         estimate D2E/DX2                !
 ! D108  D(74,10,13,12)       -120.8126         estimate D2E/DX2                !
 ! D109  D(74,10,13,27)         76.791          estimate D2E/DX2                !
 ! D110  D(9,11,25,26)         -10.1754         estimate D2E/DX2                !
 ! D111  D(9,11,25,28)         140.9639         estimate D2E/DX2                !
 ! D112  D(10,11,25,26)       -166.7931         estimate D2E/DX2                !
 ! D113  D(10,11,25,28)        -15.6538         estimate D2E/DX2                !
 ! D114  D(3,12,13,10)           8.0709         estimate D2E/DX2                !
 ! D115  D(3,12,13,27)         171.7422         estimate D2E/DX2                !
 ! D116  D(14,12,13,10)       -157.4711         estimate D2E/DX2                !
 ! D117  D(14,12,13,27)          6.2002         estimate D2E/DX2                !
 ! D118  D(3,12,14,16)          -5.2776         estimate D2E/DX2                !
 ! D119  D(3,12,14,29)        -173.0578         estimate D2E/DX2                !
 ! D120  D(13,12,14,16)        158.3327         estimate D2E/DX2                !
 ! D121  D(13,12,14,29)         -9.4474         estimate D2E/DX2                !
 ! D122  D(10,13,27,28)         -6.235          estimate D2E/DX2                !
 ! D123  D(10,13,27,30)        161.9709         estimate D2E/DX2                !
 ! D124  D(12,13,27,28)       -167.1691         estimate D2E/DX2                !
 ! D125  D(12,13,27,30)          1.0367         estimate D2E/DX2                !
 ! D126  D(12,14,16,15)        -34.4992         estimate D2E/DX2                !
 ! D127  D(12,14,16,32)       -142.4802         estimate D2E/DX2                !
 ! D128  D(12,14,16,70)         92.3026         estimate D2E/DX2                !
 ! D129  D(29,14,16,15)        132.7331         estimate D2E/DX2                !
 ! D130  D(29,14,16,32)         24.7521         estimate D2E/DX2                !
 ! D131  D(29,14,16,70)       -100.4651         estimate D2E/DX2                !
 ! D132  D(12,14,29,30)          5.5571         estimate D2E/DX2                !
 ! D133  D(12,14,29,31)        176.8306         estimate D2E/DX2                !
 ! D134  D(16,14,29,30)       -161.6097         estimate D2E/DX2                !
 ! D135  D(16,14,29,31)          9.6638         estimate D2E/DX2                !
 ! D136  D(5,15,16,14)          38.3212         estimate D2E/DX2                !
 ! D137  D(5,15,16,32)         151.2927         estimate D2E/DX2                !
 ! D138  D(5,15,16,70)         -84.3498         estimate D2E/DX2                !
 ! D139  D(18,15,16,14)       -108.2684         estimate D2E/DX2                !
 ! D140  D(18,15,16,32)          4.7031         estimate D2E/DX2                !
 ! D141  D(18,15,16,70)        129.0606         estimate D2E/DX2                !
 ! D142  D(5,15,18,17)          -7.2994         estimate D2E/DX2                !
 ! D143  D(5,15,18,33)        -158.4716         estimate D2E/DX2                !
 ! D144  D(16,15,18,17)        141.0604         estimate D2E/DX2                !
 ! D145  D(16,15,18,33)        -10.1119         estimate D2E/DX2                !
 ! D146  D(14,16,32,33)        112.8348         estimate D2E/DX2                !
 ! D147  D(14,16,32,34)        -33.7211         estimate D2E/DX2                !
 ! D148  D(15,16,32,33)          2.4666         estimate D2E/DX2                !
 ! D149  D(15,16,32,34)       -144.0893         estimate D2E/DX2                !
 ! D150  D(70,16,32,33)       -123.9799         estimate D2E/DX2                !
 ! D151  D(70,16,32,34)         89.4643         estimate D2E/DX2                !
 ! D152  D(6,17,18,15)          16.8879         estimate D2E/DX2                !
 ! D153  D(6,17,18,33)         164.3385         estimate D2E/DX2                !
 ! D154  D(19,17,18,15)       -144.0351         estimate D2E/DX2                !
 ! D155  D(19,17,18,33)          3.4156         estimate D2E/DX2                !
 ! D156  D(6,17,19,21)         -19.401          estimate D2E/DX2                !
 ! D157  D(6,17,19,35)        -172.6734         estimate D2E/DX2                !
 ! D158  D(18,17,19,21)        140.9847         estimate D2E/DX2                !
 ! D159  D(18,17,19,35)        -12.2878         estimate D2E/DX2                !
 ! D160  D(15,18,33,32)         11.5003         estimate D2E/DX2                !
 ! D161  D(15,18,33,36)        157.8307         estimate D2E/DX2                !
 ! D162  D(17,18,33,32)       -140.4794         estimate D2E/DX2                !
 ! D163  D(17,18,33,36)          5.8511         estimate D2E/DX2                !
 ! D164  D(17,19,21,20)         -5.4473         estimate D2E/DX2                !
 ! D165  D(17,19,21,38)       -155.9414         estimate D2E/DX2                !
 ! D166  D(35,19,21,20)        148.0398         estimate D2E/DX2                !
 ! D167  D(35,19,21,38)         -2.4543         estimate D2E/DX2                !
 ! D168  D(17,19,35,36)         12.4011         estimate D2E/DX2                !
 ! D169  D(17,19,35,37)        153.2518         estimate D2E/DX2                !
 ! D170  D(21,19,35,36)       -141.4491         estimate D2E/DX2                !
 ! D171  D(21,19,35,37)         -0.5985         estimate D2E/DX2                !
 ! D172  D(8,20,21,19)           8.2442         estimate D2E/DX2                !
 ! D173  D(8,20,21,38)         159.3523         estimate D2E/DX2                !
 ! D174  D(23,20,21,19)       -143.9211         estimate D2E/DX2                !
 ! D175  D(23,20,21,38)          7.187          estimate D2E/DX2                !
 ! D176  D(8,20,23,22)         -16.4768         estimate D2E/DX2                !
 ! D177  D(8,20,23,40)        -158.636          estimate D2E/DX2                !
 ! D178  D(21,20,23,22)        137.0948         estimate D2E/DX2                !
 ! D179  D(21,20,23,40)         -5.0643         estimate D2E/DX2                !
 ! D180  D(19,21,38,39)          3.4634         estimate D2E/DX2                !
 ! D181  D(19,21,38,42)        146.034          estimate D2E/DX2                !
 ! D182  D(20,21,38,39)       -147.4743         estimate D2E/DX2                !
 ! D183  D(20,21,38,42)         -4.9037         estimate D2E/DX2                !
 ! D184  D(9,22,23,20)           5.7311         estimate D2E/DX2                !
 ! D185  D(9,22,23,40)         152.2111         estimate D2E/DX2                !
 ! D186  D(24,22,23,20)       -142.9069         estimate D2E/DX2                !
 ! D187  D(24,22,23,40)          3.5731         estimate D2E/DX2                !
 ! D188  D(9,22,24,26)         -10.3485         estimate D2E/DX2                !
 ! D189  D(9,22,24,41)        -152.7269         estimate D2E/DX2                !
 ! D190  D(23,22,24,26)        138.8289         estimate D2E/DX2                !
 ! D191  D(23,22,24,41)         -3.5494         estimate D2E/DX2                !
 ! D192  D(20,23,40,41)        143.6387         estimate D2E/DX2                !
 ! D193  D(20,23,40,42)          0.2835         estimate D2E/DX2                !
 ! D194  D(22,23,40,41)         -2.2291         estimate D2E/DX2                !
 ! D195  D(22,23,40,42)       -145.5843         estimate D2E/DX2                !
 ! D196  D(22,24,26,25)          4.2486         estimate D2E/DX2                !
 ! D197  D(22,24,26,44)       -137.8803         estimate D2E/DX2                !
 ! D198  D(41,24,26,25)        141.6979         estimate D2E/DX2                !
 ! D199  D(41,24,26,44)         -0.4311         estimate D2E/DX2                !
 ! D200  D(22,24,41,40)          2.1913         estimate D2E/DX2                !
 ! D201  D(22,24,41,43)        142.368          estimate D2E/DX2                !
 ! D202  D(26,24,41,40)       -138.4151         estimate D2E/DX2                !
 ! D203  D(26,24,41,43)          1.7616         estimate D2E/DX2                !
 ! D204  D(11,25,26,24)          6.0841         estimate D2E/DX2                !
 ! D205  D(11,25,26,44)        151.2476         estimate D2E/DX2                !
 ! D206  D(28,25,26,24)       -149.3636         estimate D2E/DX2                !
 ! D207  D(28,25,26,44)         -4.2001         estimate D2E/DX2                !
 ! D208  D(11,25,28,27)        -29.1747         estimate D2E/DX2                !
 ! D209  D(11,25,28,45)       -145.0426         estimate D2E/DX2                !
 ! D210  D(11,25,28,73)         92.9141         estimate D2E/DX2                !
 ! D211  D(26,25,28,27)        124.9598         estimate D2E/DX2                !
 ! D212  D(26,25,28,45)          9.0918         estimate D2E/DX2                !
 ! D213  D(26,25,28,73)       -112.9514         estimate D2E/DX2                !
 ! D214  D(24,26,44,45)        142.9875         estimate D2E/DX2                !
 ! D215  D(24,26,44,46)         -1.134          estimate D2E/DX2                !
 ! D216  D(25,26,44,45)         -2.9489         estimate D2E/DX2                !
 ! D217  D(25,26,44,46)       -147.0704         estimate D2E/DX2                !
 ! D218  D(13,27,28,25)         38.4998         estimate D2E/DX2                !
 ! D219  D(13,27,28,45)        148.1419         estimate D2E/DX2                !
 ! D220  D(13,27,28,73)        -88.4025         estimate D2E/DX2                !
 ! D221  D(30,27,28,25)       -129.3091         estimate D2E/DX2                !
 ! D222  D(30,27,28,45)        -19.6671         estimate D2E/DX2                !
 ! D223  D(30,27,28,73)        103.7886         estimate D2E/DX2                !
 ! D224  D(13,27,30,29)         -4.7529         estimate D2E/DX2                !
 ! D225  D(13,27,30,47)       -177.7371         estimate D2E/DX2                !
 ! D226  D(28,27,30,29)        162.7351         estimate D2E/DX2                !
 ! D227  D(28,27,30,47)        -10.2491         estimate D2E/DX2                !
 ! D228  D(25,28,45,44)        -11.1783         estimate D2E/DX2                !
 ! D229  D(25,28,45,48)        138.0283         estimate D2E/DX2                !
 ! D230  D(27,28,45,44)       -122.5176         estimate D2E/DX2                !
 ! D231  D(27,28,45,48)         26.6889         estimate D2E/DX2                !
 ! D232  D(73,28,45,44)        114.9098         estimate D2E/DX2                !
 ! D233  D(73,28,45,48)        -95.8836         estimate D2E/DX2                !
 ! D234  D(14,29,30,27)          1.3918         estimate D2E/DX2                !
 ! D235  D(14,29,30,47)        174.2727         estimate D2E/DX2                !
 ! D236  D(31,29,30,27)       -169.6849         estimate D2E/DX2                !
 ! D237  D(31,29,30,47)          3.196          estimate D2E/DX2                !
 ! D238  D(14,29,31,34)        -35.6186         estimate D2E/DX2                !
 ! D239  D(14,29,31,49)       -146.5585         estimate D2E/DX2                !
 ! D240  D(14,29,31,71)         88.7145         estimate D2E/DX2                !
 ! D241  D(30,29,31,34)        135.566          estimate D2E/DX2                !
 ! D242  D(30,29,31,49)         24.6261         estimate D2E/DX2                !
 ! D243  D(30,29,31,71)       -100.1009         estimate D2E/DX2                !
 ! D244  D(27,30,47,48)         32.7307         estimate D2E/DX2                !
 ! D245  D(27,30,47,50)        144.4296         estimate D2E/DX2                !
 ! D246  D(27,30,47,72)        -91.0478         estimate D2E/DX2                !
 ! D247  D(29,30,47,48)       -140.2064         estimate D2E/DX2                !
 ! D248  D(29,30,47,50)        -28.5075         estimate D2E/DX2                !
 ! D249  D(29,30,47,72)         96.0152         estimate D2E/DX2                !
 ! D250  D(29,31,34,32)         28.0222         estimate D2E/DX2                !
 ! D251  D(29,31,34,51)       -121.2545         estimate D2E/DX2                !
 ! D252  D(49,31,34,32)        145.2547         estimate D2E/DX2                !
 ! D253  D(49,31,34,51)         -4.022          estimate D2E/DX2                !
 ! D254  D(71,31,34,32)        -92.262          estimate D2E/DX2                !
 ! D255  D(71,31,34,51)        118.4612         estimate D2E/DX2                !
 ! D256  D(29,31,49,50)        -27.4678         estimate D2E/DX2                !
 ! D257  D(29,31,49,54)        121.6388         estimate D2E/DX2                !
 ! D258  D(34,31,49,50)       -143.3559         estimate D2E/DX2                !
 ! D259  D(34,31,49,54)          5.7508         estimate D2E/DX2                !
 ! D260  D(71,31,49,50)         93.7334         estimate D2E/DX2                !
 ! D261  D(71,31,49,54)       -117.1599         estimate D2E/DX2                !
 ! D262  D(16,32,33,18)         -8.6355         estimate D2E/DX2                !
 ! D263  D(16,32,33,36)       -153.5042         estimate D2E/DX2                !
 ! D264  D(34,32,33,18)        139.1181         estimate D2E/DX2                !
 ! D265  D(34,32,33,36)         -5.7505         estimate D2E/DX2                !
 ! D266  D(16,32,34,31)          7.4471         estimate D2E/DX2                !
 ! D267  D(16,32,34,51)        154.3727         estimate D2E/DX2                !
 ! D268  D(33,32,34,31)       -136.3219         estimate D2E/DX2                !
 ! D269  D(33,32,34,51)         10.6037         estimate D2E/DX2                !
 ! D270  D(18,33,36,35)         -5.8943         estimate D2E/DX2                !
 ! D271  D(18,33,36,52)       -145.362          estimate D2E/DX2                !
 ! D272  D(32,33,36,35)        135.5049         estimate D2E/DX2                !
 ! D273  D(32,33,36,52)         -3.9628         estimate D2E/DX2                !
 ! D274  D(31,34,51,52)        144.2762         estimate D2E/DX2                !
 ! D275  D(31,34,51,54)          0.9459         estimate D2E/DX2                !
 ! D276  D(32,34,51,52)         -6.1513         estimate D2E/DX2                !
 ! D277  D(32,34,51,54)       -149.4817         estimate D2E/DX2                !
 ! D278  D(19,35,36,33)         -3.268          estimate D2E/DX2                !
 ! D279  D(19,35,36,52)        139.3502         estimate D2E/DX2                !
 ! D280  D(37,35,36,33)       -149.5039         estimate D2E/DX2                !
 ! D281  D(37,35,36,52)         -6.8856         estimate D2E/DX2                !
 ! D282  D(19,35,37,39)          2.8117         estimate D2E/DX2                !
 ! D283  D(19,35,37,53)       -140.7263         estimate D2E/DX2                !
 ! D284  D(36,35,37,39)        148.3183         estimate D2E/DX2                !
 ! D285  D(36,35,37,53)          4.7804         estimate D2E/DX2                !
 ! D286  D(33,36,52,51)          8.3994         estimate D2E/DX2                !
 ! D287  D(33,36,52,53)        149.6906         estimate D2E/DX2                !
 ! D288  D(35,36,52,51)       -135.0374         estimate D2E/DX2                !
 ! D289  D(35,36,52,53)          6.2538         estimate D2E/DX2                !
 ! D290  D(35,37,39,38)         -1.8552         estimate D2E/DX2                !
 ! D291  D(35,37,39,57)       -141.1359         estimate D2E/DX2                !
 ! D292  D(53,37,39,38)        137.3962         estimate D2E/DX2                !
 ! D293  D(53,37,39,57)         -1.8845         estimate D2E/DX2                !
 ! D294  D(35,37,53,52)         -1.024          estimate D2E/DX2                !
 ! D295  D(35,37,53,55)        140.0264         estimate D2E/DX2                !
 ! D296  D(39,37,53,52)       -144.5139         estimate D2E/DX2                !
 ! D297  D(39,37,53,55)         -3.4635         estimate D2E/DX2                !
 ! D298  D(21,38,39,37)         -1.2976         estimate D2E/DX2                !
 ! D299  D(21,38,39,57)        142.2154         estimate D2E/DX2                !
 ! D300  D(42,38,39,37)       -148.8876         estimate D2E/DX2                !
 ! D301  D(42,38,39,57)         -5.3746         estimate D2E/DX2                !
 ! D302  D(21,38,42,40)          0.3782         estimate D2E/DX2                !
 ! D303  D(21,38,42,58)       -142.276          estimate D2E/DX2                !
 ! D304  D(39,38,42,40)        148.0547         estimate D2E/DX2                !
 ! D305  D(39,38,42,58)          5.4005         estimate D2E/DX2                !
 ! D306  D(37,39,57,58)        146.2478         estimate D2E/DX2                !
 ! D307  D(37,39,57,60)          5.1393         estimate D2E/DX2                !
 ! D308  D(38,39,57,58)          3.3661         estimate D2E/DX2                !
 ! D309  D(38,39,57,60)       -137.7424         estimate D2E/DX2                !
 ! D310  D(23,40,41,24)          0.0304         estimate D2E/DX2                !
 ! D311  D(23,40,41,43)       -140.5487         estimate D2E/DX2                !
 ! D312  D(42,40,41,24)        142.3477         estimate D2E/DX2                !
 ! D313  D(42,40,41,43)          1.7687         estimate D2E/DX2                !
 ! D314  D(23,40,42,38)          2.0746         estimate D2E/DX2                !
 ! D315  D(23,40,42,58)        140.8538         estimate D2E/DX2                !
 ! D316  D(41,40,42,38)       -136.1705         estimate D2E/DX2                !
 ! D317  D(41,40,42,58)          2.6088         estimate D2E/DX2                !
 ! D318  D(24,41,43,46)         -1.4737         estimate D2E/DX2                !
 ! D319  D(24,41,43,59)       -139.4412         estimate D2E/DX2                !
 ! D320  D(40,41,43,46)        134.0869         estimate D2E/DX2                !
 ! D321  D(40,41,43,59)         -3.8806         estimate D2E/DX2                !
 ! D322  D(38,42,58,57)         -3.4068         estimate D2E/DX2                !
 ! D323  D(38,42,58,59)        137.9609         estimate D2E/DX2                !
 ! D324  D(40,42,58,57)       -146.1816         estimate D2E/DX2                !
 ! D325  D(40,42,58,59)         -4.8139         estimate D2E/DX2                !
 ! D326  D(41,43,46,44)         -0.0859         estimate D2E/DX2                !
 ! D327  D(41,43,46,61)       -141.9664         estimate D2E/DX2                !
 ! D328  D(59,43,46,44)        141.9635         estimate D2E/DX2                !
 ! D329  D(59,43,46,61)          0.0831         estimate D2E/DX2                !
 ! D330  D(41,43,59,58)          1.6587         estimate D2E/DX2                !
 ! D331  D(41,43,59,65)        142.9417         estimate D2E/DX2                !
 ! D332  D(46,43,59,58)       -139.9506         estimate D2E/DX2                !
 ! D333  D(46,43,59,65)          1.3324         estimate D2E/DX2                !
 ! D334  D(26,44,45,28)          9.1574         estimate D2E/DX2                !
 ! D335  D(26,44,45,48)       -140.7593         estimate D2E/DX2                !
 ! D336  D(46,44,45,28)        152.5497         estimate D2E/DX2                !
 ! D337  D(46,44,45,48)          2.633          estimate D2E/DX2                !
 ! D338  D(26,44,46,43)          1.4073         estimate D2E/DX2                !
 ! D339  D(26,44,46,61)        139.1684         estimate D2E/DX2                !
 ! D340  D(45,44,46,43)       -137.571          estimate D2E/DX2                !
 ! D341  D(45,44,46,61)          0.1901         estimate D2E/DX2                !
 ! D342  D(28,45,48,47)         -3.1888         estimate D2E/DX2                !
 ! D343  D(28,45,48,62)       -150.5316         estimate D2E/DX2                !
 ! D344  D(44,45,48,47)        143.3788         estimate D2E/DX2                !
 ! D345  D(44,45,48,62)         -3.964          estimate D2E/DX2                !
 ! D346  D(43,46,61,62)        141.2915         estimate D2E/DX2                !
 ! D347  D(43,46,61,65)         -1.4738         estimate D2E/DX2                !
 ! D348  D(44,46,61,62)         -1.523          estimate D2E/DX2                !
 ! D349  D(44,46,61,65)       -144.2883         estimate D2E/DX2                !
 ! D350  D(30,47,48,45)        -26.7595         estimate D2E/DX2                !
 ! D351  D(30,47,48,62)        123.0214         estimate D2E/DX2                !
 ! D352  D(50,47,48,45)       -144.2808         estimate D2E/DX2                !
 ! D353  D(50,47,48,62)          5.5002         estimate D2E/DX2                !
 ! D354  D(72,47,48,45)         92.9779         estimate D2E/DX2                !
 ! D355  D(72,47,48,62)       -117.2411         estimate D2E/DX2                !
 ! D356  D(30,47,50,49)         26.6777         estimate D2E/DX2                !
 ! D357  D(30,47,50,63)       -122.616          estimate D2E/DX2                !
 ! D358  D(48,47,50,49)        143.8026         estimate D2E/DX2                !
 ! D359  D(48,47,50,63)         -5.4911         estimate D2E/DX2                !
 ! D360  D(72,47,50,49)        -93.6822         estimate D2E/DX2                !
 ! D361  D(72,47,50,63)        117.0242         estimate D2E/DX2                !
 ! D362  D(45,48,62,61)          2.6565         estimate D2E/DX2                !
 ! D363  D(45,48,62,63)        147.3995         estimate D2E/DX2                !
 ! D364  D(47,48,62,61)       -148.4025         estimate D2E/DX2                !
 ! D365  D(47,48,62,63)         -3.6595         estimate D2E/DX2                !
 ! D366  D(31,49,50,47)          1.5413         estimate D2E/DX2                !
 ! D367  D(31,49,50,63)        148.2977         estimate D2E/DX2                !
 ! D368  D(54,49,50,47)       -144.9447         estimate D2E/DX2                !
 ! D369  D(54,49,50,63)          1.8118         estimate D2E/DX2                !
 ! D370  D(31,49,54,51)         -5.5843         estimate D2E/DX2                !
 ! D371  D(31,49,54,56)       -149.7824         estimate D2E/DX2                !
 ! D372  D(50,49,54,51)        144.4571         estimate D2E/DX2                !
 ! D373  D(50,49,54,56)          0.259          estimate D2E/DX2                !
 ! D374  D(47,50,63,62)          3.655          estimate D2E/DX2                !
 ! D375  D(47,50,63,64)        148.1529         estimate D2E/DX2                !
 ! D376  D(49,50,63,62)       -146.7808         estimate D2E/DX2                !
 ! D377  D(49,50,63,64)         -2.2829         estimate D2E/DX2                !
 ! D378  D(34,51,52,36)         -3.5514         estimate D2E/DX2                !
 ! D379  D(34,51,52,53)       -139.1294         estimate D2E/DX2                !
 ! D380  D(54,51,52,36)        135.8724         estimate D2E/DX2                !
 ! D381  D(54,51,52,53)          0.2944         estimate D2E/DX2                !
 ! D382  D(34,51,54,49)          2.8194         estimate D2E/DX2                !
 ! D383  D(34,51,54,56)        147.8724         estimate D2E/DX2                !
 ! D384  D(52,51,54,49)       -141.4632         estimate D2E/DX2                !
 ! D385  D(52,51,54,56)          3.5898         estimate D2E/DX2                !
 ! D386  D(36,52,53,37)         -3.1759         estimate D2E/DX2                !
 ! D387  D(36,52,53,55)       -144.0144         estimate D2E/DX2                !
 ! D388  D(51,52,53,37)        136.8989         estimate D2E/DX2                !
 ! D389  D(51,52,53,55)         -3.9396         estimate D2E/DX2                !
 ! D390  D(37,53,55,56)       -132.9859         estimate D2E/DX2                !
 ! D391  D(37,53,55,60)          5.5103         estimate D2E/DX2                !
 ! D392  D(52,53,55,56)          3.5963         estimate D2E/DX2                !
 ! D393  D(52,53,55,60)        142.0924         estimate D2E/DX2                !
 ! D394  D(49,54,56,55)        136.571          estimate D2E/DX2                !
 ! D395  D(49,54,56,64)         -1.9277         estimate D2E/DX2                !
 ! D396  D(51,54,56,55)         -3.9339         estimate D2E/DX2                !
 ! D397  D(51,54,56,64)       -142.4325         estimate D2E/DX2                !
 ! D398  D(53,55,56,54)          0.304          estimate D2E/DX2                !
 ! D399  D(53,55,56,64)        142.8661         estimate D2E/DX2                !
 ! D400  D(60,55,56,54)       -142.5119         estimate D2E/DX2                !
 ! D401  D(60,55,56,64)          0.0502         estimate D2E/DX2                !
 ! D402  D(53,55,60,57)         -2.2654         estimate D2E/DX2                !
 ! D403  D(53,55,60,66)       -143.7952         estimate D2E/DX2                !
 ! D404  D(56,55,60,57)        140.0241         estimate D2E/DX2                !
 ! D405  D(56,55,60,66)         -1.5057         estimate D2E/DX2                !
 ! D406  D(54,56,64,63)          1.4638         estimate D2E/DX2                !
 ! D407  D(54,56,64,66)        144.9785         estimate D2E/DX2                !
 ! D408  D(55,56,64,63)       -142.0814         estimate D2E/DX2                !
 ! D409  D(55,56,64,66)          1.4333         estimate D2E/DX2                !
 ! D410  D(39,57,58,42)          0.036          estimate D2E/DX2                !
 ! D411  D(39,57,58,59)       -140.988          estimate D2E/DX2                !
 ! D412  D(60,57,58,42)        140.817          estimate D2E/DX2                !
 ! D413  D(60,57,58,59)         -0.2071         estimate D2E/DX2                !
 ! D414  D(39,57,60,55)         -3.0838         estimate D2E/DX2                !
 ! D415  D(39,57,60,66)        133.443          estimate D2E/DX2                !
 ! D416  D(58,57,60,55)       -139.4831         estimate D2E/DX2                !
 ! D417  D(58,57,60,66)         -2.9563         estimate D2E/DX2                !
 ! D418  D(42,58,59,43)          2.7216         estimate D2E/DX2                !
 ! D419  D(42,58,59,65)       -133.441          estimate D2E/DX2                !
 ! D420  D(57,58,59,43)        139.2922         estimate D2E/DX2                !
 ! D421  D(57,58,59,65)          3.1296         estimate D2E/DX2                !
 ! D422  D(43,59,65,61)         -2.2483         estimate D2E/DX2                !
 ! D423  D(43,59,65,66)       -144.5293         estimate D2E/DX2                !
 ! D424  D(58,59,65,61)        139.4011         estimate D2E/DX2                !
 ! D425  D(58,59,65,66)         -2.8798         estimate D2E/DX2                !
[...]
    15 C(13)  Bbb    -0.2937   -39.416   -14.065   -13.148 -0.3183  0.9001  0.2975
              Bcc     0.5991    80.396    28.687    26.817  0.5642 -0.0723  0.8224
 
              Baa    -0.0092    -1.238    -0.442    -0.413  0.8978  0.1137  0.4255
    16 C(13)  Bbb    -0.0044    -0.584    -0.209    -0.195 -0.3593 -0.3695  0.8570
              Bcc     0.0136     1.823     0.650     0.608 -0.2546  0.9223  0.2909
 
              Baa    -0.1246   -16.722    -5.967    -5.578  0.2029  0.6199  0.7580
    17 C(13)  Bbb    -0.1178   -15.810    -5.642    -5.274  0.9105  0.1653 -0.3789
              Bcc     0.2424    32.533    11.608    10.852 -0.3602  0.7670 -0.5309
 
              Baa    -0.1193   -16.003    -5.710    -5.338  0.4988 -0.4691  0.7288
    18 C(13)  Bbb     0.0482     6.470     2.308     2.158  0.6814 -0.3074 -0.6642
              Bcc     0.0710     9.533     3.402     3.180  0.5356  0.8279  0.1664
 
              Baa    -0.0630    -8.451    -3.015    -2.819 -0.2006  0.8941 -0.4004
    19 C(13)  Bbb     0.0267     3.589     1.281     1.197 -0.0866  0.3910  0.9163
              Bcc     0.0362     4.862     1.735     1.622  0.9758  0.2185 -0.0010
 
              Baa    -0.0134    -1.804    -0.644    -0.602 -0.3393  0.9205  0.1936
    20 C(13)  Bbb     0.0052     0.694     0.247     0.231 -0.6043 -0.3711  0.7051
              Bcc     0.0083     1.110     0.396     0.370  0.7209  0.1223  0.6822
 
              Baa    -0.0136    -1.825    -0.651    -0.609 -0.3226 -0.0571  0.9448
    21 C(13)  Bbb    -0.0112    -1.506    -0.537    -0.502  0.9202  0.2148  0.3272
              Bcc     0.0248     3.331     1.189     1.111 -0.2216  0.9750 -0.0168
 
              Baa    -0.0038    -0.514    -0.183    -0.171  0.0685  0.9813  0.1797
    22 C(13)  Bbb    -0.0008    -0.110    -0.039    -0.037  0.5583 -0.1870  0.8083
              Bcc     0.0046     0.623     0.222     0.208  0.8268  0.0450 -0.5607
 
              Baa    -0.0140    -1.885    -0.673    -0.629  0.5947  0.5528 -0.5837
    23 C(13)  Bbb    -0.0123    -1.653    -0.590    -0.551  0.7059 -0.0116  0.7082
              Bcc     0.0264     3.537     1.262     1.180 -0.3847  0.8332  0.3971
 
              Baa    -0.0020    -0.266    -0.095    -0.089  0.4739  0.8788  0.0563
    24 C(13)  Bbb    -0.0008    -0.114    -0.041    -0.038  0.7737 -0.4461  0.4498
              Bcc     0.0028     0.380     0.136     0.127 -0.4204  0.1696  0.8914
 
              Baa    -0.0038    -0.507    -0.181    -0.169  0.5617  0.7203  0.4070
    25 C(13)  Bbb    -0.0031    -0.414    -0.148    -0.138  0.7746 -0.6307  0.0471
              Bcc     0.0069     0.922     0.329     0.307 -0.2907 -0.2888  0.9122
 
              Baa    -0.0015    -0.208    -0.074    -0.069 -0.0071  0.9760  0.2177
    26 C(13)  Bbb    -0.0014    -0.188    -0.067    -0.063  0.9979 -0.0070  0.0636
              Bcc     0.0030     0.396     0.141     0.132 -0.0636 -0.2177  0.9739
 
              Baa    -0.0094    -1.256    -0.448    -0.419  0.8746 -0.2557 -0.4119
    27 C(13)  Bbb    -0.0071    -0.951    -0.339    -0.317  0.3754 -0.1806  0.9091
              Bcc     0.0164     2.207     0.788     0.736  0.3069  0.9497  0.0620
 
              Baa    -0.0006    -0.085    -0.030    -0.028  0.9387  0.2197 -0.2656
    28 C(13)  Bbb    -0.0003    -0.035    -0.013    -0.012  0.0123  0.7487  0.6628
              Bcc     0.0009     0.120     0.043     0.040  0.3444 -0.6254  0.7001
 
              Baa    -0.0081    -1.090    -0.389    -0.364 -0.3314 -0.0741  0.9406
    29 C(13)  Bbb    -0.0050    -0.669    -0.239    -0.223  0.7602 -0.6114  0.2197
              Bcc     0.0131     1.759     0.628     0.587  0.5588  0.7879  0.2590
 
              Baa    -0.0059    -0.788    -0.281    -0.263  0.3252  0.9455 -0.0144
    30 C(13)  Bbb     0.0018     0.244     0.087     0.081  0.8015 -0.2837 -0.5264
              Bcc     0.0041     0.544     0.194     0.181  0.5018 -0.1597  0.8501
 
              Baa    -0.0011    -0.154    -0.055    -0.051  0.2882  0.1786  0.9408
    31 C(13)  Bbb    -0.0007    -0.099    -0.035    -0.033  0.6399  0.6950 -0.3280
              Bcc     0.0019     0.253     0.090     0.084  0.7124 -0.6965 -0.0861
 
              Baa    -0.0231    -3.098    -1.105    -1.033  0.2289  0.0916  0.9691
    32 C(13)  Bbb     0.0061     0.819     0.292     0.273  0.3640  0.9153 -0.1725
              Bcc     0.0170     2.279     0.813     0.760  0.9028 -0.3923 -0.1762
 
              Baa    -0.0373    -5.008    -1.787    -1.670 -0.2277  0.9146  0.3342
    33 C(13)  Bbb    -0.0318    -4.265    -1.522    -1.423  0.9362  0.3000 -0.1829
              Bcc     0.0691     9.273     3.309     3.093  0.2676 -0.2713  0.9246
 
              Baa    -0.0135    -1.815    -0.648    -0.605  0.4644  0.8070 -0.3649
    34 C(13)  Bbb    -0.0123    -1.655    -0.591    -0.552  0.8647 -0.3242  0.3835
              Bcc     0.0259     3.470     1.238     1.158 -0.1912  0.4936  0.8484
 
              Baa    -0.0765   -10.263    -3.662    -3.423 -0.3650  0.5282  0.7667
    35 C(13)  Bbb    -0.0712    -9.549    -3.407    -3.185  0.9285  0.2667  0.2582
              Bcc     0.1476    19.812     7.069     6.608 -0.0681  0.8061 -0.5878
 
              Baa    -0.0472    -6.339    -2.262    -2.114  0.0268 -0.5040  0.8633
    36 C(13)  Bbb     0.0223     2.991     1.067     0.998  0.9102 -0.3447 -0.2295
              Bcc     0.0249     3.348     1.195     1.117  0.4133  0.7919  0.4494
 
              Baa    -0.0332    -4.461    -1.592    -1.488  0.2428  0.8132 -0.5290
    37 C(13)  Bbb     0.0131     1.761     0.628     0.587 -0.4909  0.5733  0.6560
              Bcc     0.0201     2.700     0.963     0.901  0.8367  0.1004  0.5384
 
              Baa    -0.0224    -3.009    -1.074    -1.004  0.1098  0.9860 -0.1253
    38 C(13)  Bbb     0.0104     1.393     0.497     0.465  0.5159  0.0512  0.8551
              Bcc     0.0120     1.616     0.577     0.539  0.8496 -0.1586 -0.5031
 
              Baa    -0.0397    -5.327    -1.901    -1.777 -0.3694  0.3601  0.8567
    39 C(13)  Bbb    -0.0369    -4.946    -1.765    -1.650  0.8368 -0.2720  0.4752
              Bcc     0.0766    10.273     3.665     3.427  0.4041  0.8924 -0.2009
 
              Baa    -0.0120    -1.611    -0.575    -0.537 -0.0476  0.8064  0.5895
    40 C(13)  Bbb     0.0049     0.662     0.236     0.221 -0.1379 -0.5898  0.7957
              Bcc     0.0071     0.949     0.339     0.317  0.9893 -0.0434  0.1393
 
              Baa    -0.0015    -0.207    -0.074    -0.069 -0.3282  0.9432 -0.0521
    41 C(13)  Bbb    -0.0010    -0.133    -0.047    -0.044  0.7576  0.2298 -0.6109
              Bcc     0.0025     0.340     0.121     0.113  0.5642  0.2400  0.7900
 
              Baa    -0.0082    -1.101    -0.393    -0.367 -0.2079 -0.3369  0.9183
    42 C(13)  Bbb    -0.0074    -0.990    -0.353    -0.330  0.9681 -0.2053  0.1439
              Bcc     0.0156     2.091     0.746     0.698  0.1401  0.9189  0.3688
 
              Baa    -0.0027    -0.361    -0.129    -0.121  0.3293  0.4404  0.8352
    43 C(13)  Bbb     0.0011     0.153     0.055     0.051  0.6372  0.5492 -0.5407
              Bcc     0.0016     0.208     0.074     0.069 -0.6969  0.7102 -0.0998
 
              Baa    -0.0038    -0.511    -0.182    -0.171  0.0046 -0.4519  0.8920
    44 C(13)  Bbb     0.0018     0.245     0.087     0.082 -0.5991  0.7130  0.3643
              Bcc     0.0020     0.266     0.095     0.089  0.8007  0.5361  0.2675
 
              Baa    -0.0063    -0.841    -0.300    -0.281 -0.2960  0.6539  0.6963
    45 C(13)  Bbb    -0.0057    -0.759    -0.271    -0.253  0.9466  0.2986  0.1219
              Bcc     0.0119     1.600     0.571     0.534  0.1282 -0.6951  0.7074
 
              Baa    -0.0015    -0.203    -0.073    -0.068 -0.3992  0.7829  0.4772
    46 C(13)  Bbb    -0.0014    -0.184    -0.066    -0.061  0.7914  0.5570 -0.2519
              Bcc     0.0029     0.387     0.138     0.129  0.4630 -0.2771  0.8419
 
              Baa    -0.0006    -0.078    -0.028    -0.026 -0.4368 -0.0600  0.8975
    47 C(13)  Bbb    -0.0005    -0.071    -0.025    -0.024  0.5425  0.7783  0.3161
              Bcc     0.0011     0.149     0.053     0.050  0.7175 -0.6250  0.3075
 
              Baa    -0.0044    -0.586    -0.209    -0.196 -0.1639  0.8864 -0.4330
    48 C(13)  Bbb     0.0017     0.234     0.084     0.078  0.1457  0.4558  0.8781
              Bcc     0.0026     0.352     0.126     0.117  0.9757  0.0808 -0.2038
 
              Baa    -0.0030    -0.407    -0.145    -0.136 -0.3164  0.6876  0.6535
    49 C(13)  Bbb     0.0009     0.118     0.042     0.040  0.4874  0.7089 -0.5099
              Bcc     0.0022     0.289     0.103     0.096  0.8138 -0.1572  0.5594
 
              Baa    -0.0005    -0.072    -0.026    -0.024  0.5112  0.7130 -0.4798
    50 C(13)  Bbb    -0.0003    -0.035    -0.013    -0.012  0.1723  0.4619  0.8700
              Bcc     0.0008     0.107     0.038     0.036  0.8420 -0.5275  0.1132
 
              Baa    -0.0160    -2.146    -0.766    -0.716 -0.3048  0.2241  0.9257
    51 C(13)  Bbb     0.0075     1.010     0.360     0.337 -0.2007  0.9350 -0.2925
              Bcc     0.0085     1.136     0.405     0.379  0.9310  0.2749  0.2400
 
              Baa    -0.0100    -1.341    -0.479    -0.447 -0.3750  0.9150 -0.1488
    52 C(13)  Bbb    -0.0081    -1.091    -0.389    -0.364  0.8228  0.4025  0.4013
              Bcc     0.0181     2.432     0.868     0.811 -0.4271 -0.0281  0.9038
 
              Baa    -0.0052    -0.703    -0.251    -0.235 -0.2290  0.8695  0.4377
    53 C(13)  Bbb    -0.0043    -0.575    -0.205    -0.192  0.6240 -0.2140  0.7516
              Bcc     0.0095     1.279     0.456     0.426  0.7471  0.4452 -0.4936
 
              Baa    -0.0009    -0.124    -0.044    -0.041 -0.0053 -0.6290  0.7774
    54 C(13)  Bbb    -0.0007    -0.094    -0.034    -0.031  0.5303  0.6573  0.5354
              Bcc     0.0016     0.218     0.078     0.073  0.8478 -0.4151 -0.3301
 
              Baa    -0.0099    -1.322    -0.472    -0.441  0.8278  0.3380 -0.4477
    55 C(13)  Bbb     0.0045     0.605     0.216     0.202 -0.3876  0.9216 -0.0210
              Bcc     0.0053     0.717     0.256     0.239  0.4055  0.1909  0.8939
 
              Baa    -0.0053    -0.707    -0.252    -0.236  0.8444 -0.2333 -0.4823
    56 C(13)  Bbb     0.0023     0.314     0.112     0.105  0.1916  0.9722 -0.1348
              Bcc     0.0029     0.392     0.140     0.131  0.5003  0.0214  0.8656
 
              Baa    -0.0128    -1.717    -0.613    -0.573  0.6651  0.7417 -0.0875
    57 C(13)  Bbb     0.0049     0.654     0.233     0.218 -0.2575  0.3377  0.9054
              Bcc     0.0079     1.064     0.380     0.355  0.7010 -0.5796  0.4156
 
              Baa    -0.0068    -0.911    -0.325    -0.304 -0.5536  0.1064  0.8260
    58 C(13)  Bbb    -0.0061    -0.818    -0.292    -0.273 -0.4563  0.7910 -0.4077
              Bcc     0.0129     1.729     0.617     0.577  0.6967  0.6025  0.3893
 
              Baa    -0.0012    -0.165    -0.059    -0.055  0.9382  0.3326 -0.0955
    59 C(13)  Bbb     0.0005     0.074     0.026     0.025  0.1505 -0.1436  0.9781
              Bcc     0.0007     0.091     0.033     0.030 -0.3116  0.9321  0.1848
 
              Baa    -0.0137    -1.838    -0.656    -0.613 -0.1298  0.6010  0.7886
    60 C(13)  Bbb    -0.0127    -1.698    -0.606    -0.566 -0.3520  0.7156 -0.6033
              Bcc     0.0264     3.536     1.262     1.180  0.9269  0.3560 -0.1187
 
              Baa    -0.0050    -0.673    -0.240    -0.224  0.7004 -0.4120  0.5828
    61 C(13)  Bbb     0.0022     0.290     0.103     0.097 -0.5487  0.2114  0.8088
              Bcc     0.0029     0.383     0.137     0.128  0.4564  0.8863  0.0780
 
              Baa    -0.0052    -0.697    -0.249    -0.232  0.0373  0.5075  0.8609
    62 C(13)  Bbb    -0.0049    -0.663    -0.237    -0.221  0.7607  0.5442 -0.3538
              Bcc     0.0101     1.360     0.485     0.454 -0.6481  0.6680 -0.3657
 
              Baa    -0.0050    -0.671    -0.239    -0.224  0.7118 -0.7019  0.0263
    63 C(13)  Bbb     0.0024     0.326     0.116     0.109  0.6982  0.7112  0.0824
              Bcc     0.0026     0.344     0.123     0.115 -0.0765 -0.0402  0.9963
 
              Baa    -0.0024    -0.319    -0.114    -0.106 -0.1458 -0.2904  0.9457
    64 C(13)  Bbb    -0.0021    -0.287    -0.102    -0.096  0.3652  0.8726  0.3243
              Bcc     0.0045     0.606     0.216     0.202  0.9195 -0.3926  0.0212
 
              Baa    -0.0074    -0.988    -0.353    -0.330 -0.4499  0.1243  0.8844
    65 C(13)  Bbb    -0.0069    -0.931    -0.332    -0.311  0.0987  0.9911 -0.0890
              Bcc     0.0143     1.919     0.685     0.640  0.8876 -0.0473  0.4582
 
              Baa    -0.0073    -0.984    -0.351    -0.328  0.9917  0.0828  0.0982
    66 C(13)  Bbb     0.0032     0.429     0.153     0.143 -0.1270  0.7474  0.6521
              Bcc     0.0041     0.555     0.198     0.185 -0.0194 -0.6592  0.7517
 
              Baa    -0.0842    -4.408    -1.573    -1.470  0.7291 -0.3208  0.6046
    67 Cl(35) Bbb    -0.0730    -3.820    -1.363    -1.274  0.4553  0.8869 -0.0783
              Bcc     0.1572     8.228     2.936     2.745 -0.5111  0.3324  0.7927
 
              Baa    -0.0061    -0.318    -0.114    -0.106  0.3515  0.3274  0.8770
    68 Cl(35) Bbb    -0.0052    -0.274    -0.098    -0.091 -0.5615  0.8234 -0.0823
              Bcc     0.0113     0.592     0.211     0.198  0.7491  0.4635 -0.4733
 
              Baa    -0.0605    -3.168    -1.131    -1.057  0.5657  0.8241  0.0306
    69 Cl(35) Bbb     0.0191     0.997     0.356     0.333  0.8119 -0.5500 -0.1955
              Bcc     0.0415     2.171     0.775     0.724  0.1443 -0.1355  0.9802
 
              Baa    -0.1337    -6.996    -2.496    -2.334  0.8893 -0.2911  0.3528
    70 Cl(35) Bbb    -0.1184    -6.196    -2.211    -2.067 -0.4556 -0.4966  0.7387
              Bcc     0.2521    13.192     4.707     4.400  0.0398  0.8177  0.5743
 
              Baa    -0.0075    -0.391    -0.140    -0.130  0.9141  0.0566  0.4016
    71 Cl(35) Bbb     0.0003     0.018     0.006     0.006 -0.4032  0.2325  0.8851
              Bcc     0.0071     0.374     0.133     0.125  0.0433  0.9709 -0.2354
 
              Baa    -0.0049    -0.257    -0.092    -0.086 -0.2614  0.9644  0.0404
    72 Cl(35) Bbb     0.0020     0.102     0.037     0.034  0.6790  0.1540  0.7178
              Bcc     0.0029     0.154     0.055     0.051 -0.6860 -0.2151  0.6951
 
              Baa    -0.0053    -0.278    -0.099    -0.093  0.7152 -0.6166 -0.3292
    73 Cl(35) Bbb     0.0000     0.001     0.000     0.000  0.2001 -0.2706  0.9417
              Bcc     0.0053     0.278     0.099     0.093  0.6697  0.7393  0.0702
 
              Baa    -0.0040    -0.208    -0.074    -0.069 -0.4069 -0.1518  0.9008
    74 Cl(35) Bbb     0.0005     0.024     0.008     0.008 -0.4712  0.8796 -0.0646
              Bcc     0.0035     0.184     0.066     0.061  0.7826  0.4508  0.4294
 
              Baa    -0.2246   -11.757    -4.195    -3.922  0.2838  0.0590  0.9571
    75 Cl(35) Bbb    -0.1944   -10.173    -3.630    -3.393  0.8579  0.4302 -0.2809
              Bcc     0.4190    21.930     7.825     7.315 -0.4284  0.9008  0.0715
 

 ---------------------------------------------------------------------------------

 No NMR shielding tensors so no spin-rotation constants.
 Leave Link  601 at Fri Jul 15 08:36:09 2022, MaxMem=  1342177280 cpu:             123.8 elap:               2.9
 (Enter /home/mkliu/g16/l9999.exe)
 1\1\GINC-NODE03\FOpt\UB3LYP\6-311G(d,p)\C66Cl9(2)\MKLIU\15-Jul-2022\0\
 \#P opt b3lyp/6-311G(d, p) empiricaldispersion=GD3\\force\\0,2\C,-1.31
 5604886,1.8616199651,-3.9048701893\C,0.2040819692,2.2829127265,-4.1149
 316921\C,0.9464595954,0.8702293703,-4.2860275306\C,-1.3602308115,0.372
 4695396,-4.0353833258\C,-0.1295169276,-0.1728174535,-4.2031686086\C,-2
 .4262271495,-0.2261390137,-3.1558597858\C,-1.8592038083,1.9988401191,-
 2.5182961329\C,-2.6114267309,0.8911792514,-2.165543689\C,-1.3768775517
 ,2.9091558896,-1.5445909929\C,0.8962501663,2.9426720122,-2.8001242339\
 C,0.0085391932,3.297295811,-1.5998325193\C,1.778085933,0.707024724,-3.
 0430215775\C,1.827339493,1.8556425561,-2.2849458956\C,2.1558699215,-0.
 5316933264,-2.5102575308\C,0.1690884673,-1.4374644801,-3.6745943893\C,
 1.56465587,-1.7885887496,-3.1636954738\C,-1.9886362841,-1.4744684738,-
 2.42899575\C,-0.8070334578,-2.096170265,-2.8601681346\C,-2.5030732209,
 -1.7595063298,-1.1091587474\C,-3.0688513548,0.6725157763,-0.8432327804
 \C,-3.120232025,-0.6852680043,-0.3088105529\C,-2.044240961,2.857117535
 3,-0.3057061983\C,-2.9339900861,1.7710474064,0.026399531\C,-1.40360343
 67,3.2794359583,0.8998589668\C,0.6654006799,3.5223406395,-0.4012615182
 \C,-0.0388476253,3.5485841153,0.8418141282\C,2.3839582762,1.8438577565
 ,-1.002920674\C,2.1096708897,3.0563465246,-0.1238906648\C,2.7731723532
 ,-0.5621152624,-1.2466887298\C,2.9161217805,0.6400510271,-0.5009918632
 \C,3.1078816838,-1.9230880324,-0.6161431148\C,1.271878934,-2.812557562
 7,-2.0965471173\C,-0.1344336872,-3.0501545952,-2.0277136938\C,2.026295
 2035,-2.9356354881,-0.9693730862\C,-1.9504159825,-2.8627535873,-0.4081
 167336\C,-0.7314381386,-3.4901706337,-0.8622043895\C,-1.9470749263,-2.
 9366657961,1.0303691277\C,-3.1694328045,-0.8220143733,1.0923276757\C,-
 2.559853994,-1.9435642078,1.7721969021\C,-2.9070691219,1.5954614532,1.
 4528730868\C,-1.9501967636,2.5256816786,2.0097692651\C,-3.0424929915,0
 .3230408163,1.9780730627\C,-1.1379791284,2.1273671364,3.0634027125\C,0
 .8166106238,3.089686342,1.9141587191\C,2.0459355896,2.6629234389,1.331
 7321212\C,0.2826896964,2.4246301225,3.0191604405\C,3.4633617235,0.6067
 866209,0.9297938819\C,2.7011060634,1.5733519968,1.8238803083\C,3.00189
 65972,-1.8752401293,0.8965853796\C,3.1806125682,-0.7237301017,1.603444
 3185\C,1.4440263301,-3.4709314151,0.2243567868\C,0.0844673967,-3.79791
 65557,0.278447115\C,-0.6804846387,-3.4959383431,1.4666800455\C,2.07856
 09749,-2.8647580122,1.3691167316\C,-0.0550140057,-2.9852438236,2.59808
 18939\C,1.3627671585,-2.6718715793,2.5532883103\C,-1.9581778016,-1.474
 3681013,3.0028596988\C,-2.2574794666,-0.0680581045,3.1305853931\C,-1.3
 001906585,0.8112253674,3.6476468513\C,-0.7096958527,-1.9659731269,3.39
 38775347\C,0.9896873757,1.3037280404,3.5718539381\C,2.1773602408,0.887
 5134995,2.964617443\C,2.4740737663,-0.5194841714,2.8326899749\C,1.5775
 165066,-1.4742842707,3.3149302328\C,0.0153316315,0.3099719275,3.992917
 2548\C,0.3028879741,-1.0454235587,3.8684152912\Cl,-2.5352793615,2.7043
 378541,-4.9972571049\Cl,0.3767458731,3.3005116401,-5.5647061233\Cl,1.9
 962599056,0.6902540145,-5.754808182\Cl,2.6762742986,-2.4953577992,-4.4
 468536997\Cl,4.7882593004,-2.4428909546,-1.1633406603\Cl,5.2697328442,
 0.9818812087,0.8803296595\Cl,3.4226031703,4.3397355831,-0.2940975288\C
 l,1.848017108,4.4443584536,-3.2291542924\Cl,-3.996057963,-0.5985803811
 ,-4.1038431076\\Version=ES64L-G16RevA.03\State=2-A\HF=-6657.4556997\S2
 =0.787043\S2-1=0.\S2A=0.751058\RMSD=7.430e-09\RMSF=3.609e-05\Dipole=-0
 .9834813,-0.6403429,2.0807343\Quadrupole=-6.6154211,5.1449905,1.470430
 6,-0.443871,-5.4975701,0.4448266\PG=C01 [X(C66Cl9)]\\@


            THE IRISH PIG
 'TWAS AN EVENING IN NOVEMBER,
 AS I VERY WELL REMEMBER
 I WAS STROLLING DOWN THE STREET IN DRUNKEN PRIDE,
 BUT MY KNEES WERE ALL A'FLUTTER
 SO I LANDED IN THE GUTTER,
 AND A PIG CAME UP AND LAY DOWN BY MY SIDE.

 YES, I LAY THERE IN THE GUTTER
 THINKING THOUGHTS I COULD NOT UTTER
 WHEN A COLLEEN PASSING BY DID SOFTLY SAY,
 'YE CAN TELL A MAN THAT BOOZES
 BY THE COMPANY THAT HE CHOOSES.' -
 AT THAT, THE PIG GOT UP AND WALKED AWAY!
     -- THE ECONOMIST, AUGUST 23, 1986
 Job cpu time:       5 days 11 hours 26 minutes 40.3 seconds.
 Elapsed time:       0 days  2 hours 44 minutes 34.5 seconds.
 File lengths (MBytes):  RWF=   2194 Int=      0 D2E=      0 Chk=    197 Scr=      1
 Normal termination of Gaussian 16 at Fri Jul 15 08:36:12 2022.
