 Entering Gaussian System, Link 0=g16
 Input=elk7luz4zyqyo_addon_4.gjf
 Output=elk7luz4zyqyo_addon_4.log
 Initial command:
 /home/mkliu/g16/l1.exe "/data/scratch/Gau-73481.inp" -scrdir="/data/scratch/"
 Entering Link 1 = /home/mkliu/g16/l1.exe PID=     73482.
  
 Copyright (c) 1988,1990,1992,1993,1995,1998,2003,2009,2016,
            Gaussian, Inc.  All Rights Reserved.
  
 This is part of the Gaussian(R) 16 program.  It is based on
 the Gaussian(R) 09 system (copyright 2009, Gaussian, Inc.),
 the Gaussian(R) 03 system (copyright 2003, Gaussian, Inc.),
 the Gaussian(R) 98 system (copyright 1998, Gaussian, Inc.),
 the Gaussian(R) 94 system (copyright 1995, Gaussian, Inc.),
 the Gaussian 92(TM) system (copyright 1992, Gaussian, Inc.),
 the Gaussian 90(TM) system (copyright 1990, Gaussian, Inc.),
 the Gaussian 88(TM) system (copyright 1988, Gaussian, Inc.),
 the Gaussian 86(TM) system (copyright 1986, Carnegie Mellon
 University), and the Gaussian 82(TM) system (copyright 1983,
 Carnegie Mellon University). Gaussian is a federally registered
 trademark of Gaussian, Inc.
  
 This software contains proprietary and confidential information,
 including trade secrets, belonging to Gaussian, Inc.
  
 This software is provided under written license and may be
 used, copied, transmitted, or stored only in accord with that
 written license.
  
 The following legend is applicable only to US Government
 contracts under FAR:
  
                    RESTRICTED RIGHTS LEGEND
  
 Use, reproduction and disclosure by the US Government is
 subject to restrictions as set forth in subparagraphs (a)
 and (c) of the Commercial Computer Software - Restricted
 Rights clause in FAR 52.227-19.
  
 Gaussian, Inc.
 340 Quinnipiac St., Bldg. 40, Wallingford CT 06492
  
  
 ---------------------------------------------------------------
 Warning -- This program may not be used in any manner that
 competes with the business of Gaussian, Inc. or will provide
 assistance to any competitor of Gaussian, Inc.  The licensee
 of this program is prohibited from giving any competitor of
 Gaussian, Inc. access to this program.  By using this program,
 the user acknowledges that Gaussian, Inc. is engaged in the
 business of creating and licensing software in the field of
 computational chemistry and represents and warrants to the
 licensee that it is not a competitor of Gaussian, Inc. and that
 it will not use this program in any manner prohibited above.
 ---------------------------------------------------------------
  

 Cite this work as:
 Gaussian 16, Revision A.03,
 M. J. Frisch, G. W. Trucks, H. B. Schlegel, G. E. Scuseria, 
 M. A. Robb, J. R. Cheeseman, G. Scalmani, V. Barone, 
 G. A. Petersson, H. Nakatsuji, X. Li, M. Caricato, A. V. Marenich, 
 J. Bloino, B. G. Janesko, R. Gomperts, B. Mennucci, H. P. Hratchian, 
 J. V. Ortiz, A. F. Izmaylov, J. L. Sonnenberg, D. Williams-Young, 
 F. Ding, F. Lipparini, F. Egidi, J. Goings, B. Peng, A. Petrone, 
 T. Henderson, D. Ranasinghe, V. G. Zakrzewski, J. Gao, N. Rega, 
 G. Zheng, W. Liang, M. Hada, M. Ehara, K. Toyota, R. Fukuda, 
 J. Hasegawa, M. Ishida, T. Nakajima, Y. Honda, O. Kitao, H. Nakai, 
 T. Vreven, K. Throssell, J. A. Montgomery, Jr., J. E. Peralta, 
 F. Ogliaro, M. J. Bearpark, J. J. Heyd, E. N. Brothers, K. N. Kudin, 
 V. N. Staroverov, T. A. Keith, R. Kobayashi, J. Normand, 
 K. Raghavachari, A. P. Rendell, J. C. Burant, S. S. Iyengar, 
 J. Tomasi, M. Cossi, J. M. Millam, M. Klene, C. Adamo, R. Cammi, 
 J. W. Ochterski, R. L. Martin, K. Morokuma, O. Farkas, 
 J. B. Foresman, and D. J. Fox, Gaussian, Inc., Wallingford CT, 2016.
 
 ******************************************
 Gaussian 16:  ES64L-G16RevA.03 25-Dec-2016
                16-Jul-2022 
 ******************************************
 %mem=10GB
 %chk=elk7luz4zyqyo_addon_4.chk
 %nprocshared=48
 Will use up to   48 processors via shared memory.
 -------------------------------------------------
 #P opt b3lyp/6-311G(d, p) empiricaldispersion=GD3
 -------------------------------------------------
 1/18=20,19=15,26=3,38=1/1,3;
 2/9=110,12=2,17=6,18=5,40=1/2;
 3/5=4,6=6,7=101,11=2,25=1,30=1,71=1,74=-5,124=31/1,2,3;
 4//1;
 5/5=2,38=5/2;
 6/7=2,8=2,9=2,10=2,28=1/1;
 7//1,2,3,16;
 1/18=20,19=15,26=3/3(2);
 2/9=110/2;
 99//99;
 2/9=110/2;
 3/5=4,6=6,7=101,11=2,25=1,30=1,71=1,74=-5,124=31/1,2,3;
 4/5=5,16=3,69=1/1;
 5/5=2,38=5/2;
 7//1,2,3,16;
 1/18=20,19=15,26=3/3(-5);
 2/9=110/2;
 6/7=2,8=2,9=2,10=2,19=2,28=1/1;
 99/9=1/99;
 Leave Link    1 at Sat Jul 16 06:19:23 2022, MaxMem=  1342177280 cpu:               3.9 elap:               0.2
 (Enter /home/mkliu/g16/l101.exe)
 -----
 force
 -----
 Symbolic Z-matrix:
 Charge =  0 Multiplicity = 1
 C                    -1.33481   1.88688  -3.94411 
 C                     0.20543   2.22245  -3.98629 
 C                     0.95574   0.88566  -4.23776 
 C                    -1.47635   0.35497  -4.16626 
 C                    -0.091    -0.13859  -4.08412 
 C                    -2.22424  -0.17998  -2.97839 
 C                    -1.91758   2.04974  -2.57798 
 C                    -2.59848   0.87708  -2.15111 
 C                    -1.42323   2.90297  -1.5969 
 C                     0.74744   2.62443  -2.65395 
 C                     0.0022    3.21071  -1.63765 
 C                     1.92752   0.71956  -3.10304 
 C                     1.87667   1.8446   -2.28287 
 C                     2.26965  -0.52002  -2.54407 
 C                     0.18369  -1.32571  -3.54915 
 C                     1.47106  -1.62384  -2.94445 
 C                    -1.98706  -1.44108  -2.41605 
 C                    -0.82698  -2.12115  -2.87479 
 C                    -2.48214  -1.7324   -1.0829 
 C                    -3.05696   0.66024  -0.83294 
 C                    -3.08275  -0.67876  -0.30187 
 C                    -2.04418   2.82727  -0.33227 
 C                    -2.91987   1.75984   0.02066 
 C                    -1.38306   3.2487    0.85811 
 C                     0.67473   3.41134  -0.41322 
 C                    -0.03022   3.53897   0.81782 
 C                     2.46296   1.85002  -0.99799 
 C                     1.93188   2.80484  -0.12509 
 C                     2.92103  -0.5681   -1.24705 
 C                     3.07411   0.64886  -0.48807 
 C                     2.89732  -1.79295  -0.56175 
 C                     1.28036  -2.74035  -2.11629 
 C                    -0.143    -3.04745  -2.073 
 C                     2.03414  -2.86775  -0.95956 
 C                    -1.91395  -2.82787  -0.41555 
 C                    -0.7091   -3.45636  -0.8757 
 C                    -1.9002   -2.90498   1.01501 
 C                    -3.12988  -0.8111    1.09817 
 C                    -2.51472  -1.92223   1.76046 
 C                    -2.87329   1.59234   1.44083 
 C                    -1.92282   2.52111   1.98015 
 C                    -3.00525   0.3257    1.97075 
 C                    -1.10608   2.12706   3.02151 
 C                     0.82568   3.11179   1.89688 
 C                     2.04123   2.64968   1.29241 
 C                     0.305     2.42994   2.97834 
 C                     3.25099   0.56291   0.90541 
 C                     2.71494   1.55678   1.79645 
 C                     2.99669  -1.85292   0.86705 
 C                     3.18894  -0.69465   1.58845 
 C                     1.47459  -3.47432   0.21513 
 C                     0.11572  -3.76542   0.2565 
 C                    -0.64322  -3.46363   1.43823 
 C                     2.10624  -2.8728    1.35612 
 C                    -0.02028  -2.94832   2.56238 
 C                     1.38856  -2.64554   2.51951 
 C                    -1.91215  -1.4545    2.97968 
 C                    -2.21374  -0.05659   3.10645 
 C                    -1.26096   0.82137   3.60239 
 C                    -0.66918  -1.93739   3.3513 
 C                     1.01749   1.31102   3.53145 
 C                     2.21676   0.89678   2.97027 
 C                     2.51404  -0.5017    2.84422 
 C                     1.60396  -1.44775   3.28248 
 C                     0.04917   0.32645   3.9445 
 C                     0.33756  -1.02181   3.82214 
 Cl                   -2.26507   2.85666  -5.10796 
 Cl                    0.58435   3.48899  -5.17529 
 Cl                    1.74192   0.74263  -5.847 
 Cl                   -2.22586  -0.12819  -5.72645 
 
 ITRead=  0  0  0  0  0  0  0  0  0  0  0  0  0  0  0  0  0  0  0  0
 ITRead=  0  0  0  0  0  0  0  0  0  0  0  0  0  0  0  0  0  0  0  0
 ITRead=  0  0  0  0  0  0  0  0  0  0  0  0  0  0  0  0  0  0  0  0
 ITRead=  0  0  0  0  0  0  0  0  0  0
 MicOpt= -1 -1 -1 -1 -1 -1 -1 -1 -1 -1 -1 -1 -1 -1 -1 -1 -1 -1 -1 -1
 MicOpt= -1 -1 -1 -1 -1 -1 -1 -1 -1 -1 -1 -1 -1 -1 -1 -1 -1 -1 -1 -1
 MicOpt= -1 -1 -1 -1 -1 -1 -1 -1 -1 -1 -1 -1 -1 -1 -1 -1 -1 -1 -1 -1
 MicOpt= -1 -1 -1 -1 -1 -1 -1 -1 -1 -1
 NAtoms=     70 NQM=       70 NQMF=       0 NMMI=      0 NMMIF=      0
                NMic=       0 NMicF=      0.
                    Isotopes and Nuclear Properties:
 (Nuclear quadrupole moments (NQMom) in fm**2, nuclear magnetic moments (NMagM)
  in nuclear magnetons)

  Atom         1           2           3           4           5           6           7           8           9          10
 IAtWgt=          12          12          12          12          12          12          12          12          12          12
 AtmWgt=  12.0000000  12.0000000  12.0000000  12.0000000  12.0000000  12.0000000  12.0000000  12.0000000  12.0000000  12.0000000
 NucSpn=           0           0           0           0           0           0           0           0           0           0
 AtZEff=  -0.0000000  -0.0000000  -0.0000000  -0.0000000  -0.0000000  -0.0000000  -0.0000000  -0.0000000  -0.0000000  -0.0000000
 NQMom=    0.0000000   0.0000000   0.0000000   0.0000000   0.0000000   0.0000000   0.0000000   0.0000000   0.0000000   0.0000000
 NMagM=    0.0000000   0.0000000   0.0000000   0.0000000   0.0000000   0.0000000   0.0000000   0.0000000   0.0000000   0.0000000
 AtZNuc=   6.0000000   6.0000000   6.0000000   6.0000000   6.0000000   6.0000000   6.0000000   6.0000000   6.0000000   6.0000000

  Atom        11          12          13          14          15          16          17          18          19          20
 IAtWgt=          12          12          12          12          12          12          12          12          12          12
 AtmWgt=  12.0000000  12.0000000  12.0000000  12.0000000  12.0000000  12.0000000  12.0000000  12.0000000  12.0000000  12.0000000
 NucSpn=           0           0           0           0           0           0           0           0           0           0
 AtZEff=  -0.0000000  -0.0000000  -0.0000000  -0.0000000  -0.0000000  -0.0000000  -0.0000000  -0.0000000  -0.0000000  -0.0000000
 NQMom=    0.0000000   0.0000000   0.0000000   0.0000000   0.0000000   0.0000000   0.0000000   0.0000000   0.0000000   0.0000000
 NMagM=    0.0000000   0.0000000   0.0000000   0.0000000   0.0000000   0.0000000   0.0000000   0.0000000   0.0000000   0.0000000
 AtZNuc=   6.0000000   6.0000000   6.0000000   6.0000000   6.0000000   6.0000000   6.0000000   6.0000000   6.0000000   6.0000000

  Atom        21          22          23          24          25          26          27          28          29          30
 IAtWgt=          12          12          12          12          12          12          12          12          12          12
 AtmWgt=  12.0000000  12.0000000  12.0000000  12.0000000  12.0000000  12.0000000  12.0000000  12.0000000  12.0000000  12.0000000
 NucSpn=           0           0           0           0           0           0           0           0           0           0
 AtZEff=  -0.0000000  -0.0000000  -0.0000000  -0.0000000  -0.0000000  -0.0000000  -0.0000000  -0.0000000  -0.0000000  -0.0000000
 NQMom=    0.0000000   0.0000000   0.0000000   0.0000000   0.0000000   0.0000000   0.0000000   0.0000000   0.0000000   0.0000000
 NMagM=    0.0000000   0.0000000   0.0000000   0.0000000   0.0000000   0.0000000   0.0000000   0.0000000   0.0000000   0.0000000
 AtZNuc=   6.0000000   6.0000000   6.0000000   6.0000000   6.0000000   6.0000000   6.0000000   6.0000000   6.0000000   6.0000000

  Atom        31          32          33          34          35          36          37          38          39          40
 IAtWgt=          12          12          12          12          12          12          12          12          12          12
 AtmWgt=  12.0000000  12.0000000  12.0000000  12.0000000  12.0000000  12.0000000  12.0000000  12.0000000  12.0000000  12.0000000
 NucSpn=           0           0           0           0           0           0           0           0           0           0
 AtZEff=  -0.0000000  -0.0000000  -0.0000000  -0.0000000  -0.0000000  -0.0000000  -0.0000000  -0.0000000  -0.0000000  -0.0000000
 NQMom=    0.0000000   0.0000000   0.0000000   0.0000000   0.0000000   0.0000000   0.0000000   0.0000000   0.0000000   0.0000000
 NMagM=    0.0000000   0.0000000   0.0000000   0.0000000   0.0000000   0.0000000   0.0000000   0.0000000   0.0000000   0.0000000
 AtZNuc=   6.0000000   6.0000000   6.0000000   6.0000000   6.0000000   6.0000000   6.0000000   6.0000000   6.0000000   6.0000000

  Atom        41          42          43          44          45          46          47          48          49          50
 IAtWgt=          12          12          12          12          12          12          12          12          12          12
 AtmWgt=  12.0000000  12.0000000  12.0000000  12.0000000  12.0000000  12.0000000  12.0000000  12.0000000  12.0000000  12.0000000
 NucSpn=           0           0           0           0           0           0           0           0           0           0
 AtZEff=  -0.0000000  -0.0000000  -0.0000000  -0.0000000  -0.0000000  -0.0000000  -0.0000000  -0.0000000  -0.0000000  -0.0000000
 NQMom=    0.0000000   0.0000000   0.0000000   0.0000000   0.0000000   0.0000000   0.0000000   0.0000000   0.0000000   0.0000000
 NMagM=    0.0000000   0.0000000   0.0000000   0.0000000   0.0000000   0.0000000   0.0000000   0.0000000   0.0000000   0.0000000
 AtZNuc=   6.0000000   6.0000000   6.0000000   6.0000000   6.0000000   6.0000000   6.0000000   6.0000000   6.0000000   6.0000000

  Atom        51          52          53          54          55          56          57          58          59          60
 IAtWgt=          12          12          12          12          12          12          12          12          12          12
 AtmWgt=  12.0000000  12.0000000  12.0000000  12.0000000  12.0000000  12.0000000  12.0000000  12.0000000  12.0000000  12.0000000
 NucSpn=           0           0           0           0           0           0           0           0           0           0
 AtZEff=  -0.0000000  -0.0000000  -0.0000000  -0.0000000  -0.0000000  -0.0000000  -0.0000000  -0.0000000  -0.0000000  -0.0000000
 NQMom=    0.0000000   0.0000000   0.0000000   0.0000000   0.0000000   0.0000000   0.0000000   0.0000000   0.0000000   0.0000000
 NMagM=    0.0000000   0.0000000   0.0000000   0.0000000   0.0000000   0.0000000   0.0000000   0.0000000   0.0000000   0.0000000
 AtZNuc=   6.0000000   6.0000000   6.0000000   6.0000000   6.0000000   6.0000000   6.0000000   6.0000000   6.0000000   6.0000000

  Atom        61          62          63          64          65          66          67          68          69          70
 IAtWgt=          12          12          12          12          12          12          35          35          35          35
 AtmWgt=  12.0000000  12.0000000  12.0000000  12.0000000  12.0000000  12.0000000  34.9688527  34.9688527  34.9688527  34.9688527
 NucSpn=           0           0           0           0           0           0           3           3           3           3
 AtZEff=  -0.0000000  -0.0000000  -0.0000000  -0.0000000  -0.0000000  -0.0000000  -0.0000000  -0.0000000  -0.0000000  -0.0000000
 NQMom=    0.0000000   0.0000000   0.0000000   0.0000000   0.0000000   0.0000000  -8.1650000  -8.1650000  -8.1650000  -8.1650000
 NMagM=    0.0000000   0.0000000   0.0000000   0.0000000   0.0000000   0.0000000   0.8218740   0.8218740   0.8218740   0.8218740
 AtZNuc=   6.0000000   6.0000000   6.0000000   6.0000000   6.0000000   6.0000000  17.0000000  17.0000000  17.0000000  17.0000000
 Leave Link  101 at Sat Jul 16 06:19:23 2022, MaxMem=  1342177280 cpu:              13.5 elap:               0.3
 (Enter /home/mkliu/g16/l103.exe)

 GradGradGradGradGradGradGradGradGradGradGradGradGradGradGradGradGradGrad
 Berny optimization.
 Initialization pass.
                           ----------------------------
                           !    Initial Parameters    !
                           ! (Angstroms and Degrees)  !
 --------------------------                            --------------------------
 ! Name  Definition              Value          Derivative Info.                !
 --------------------------------------------------------------------------------
 ! R1    R(1,2)                  1.5769         estimate D2E/DX2                !
 ! R2    R(1,4)                  1.5544         estimate D2E/DX2                !
 ! R3    R(1,7)                  1.4941         estimate D2E/DX2                !
 ! R4    R(1,67)                 1.7778         estimate D2E/DX2                !
 ! R5    R(2,3)                  1.5534         estimate D2E/DX2                !
 ! R6    R(2,10)                 1.4935         estimate D2E/DX2                !
 ! R7    R(2,68)                 1.778          estimate D2E/DX2                !
 ! R8    R(3,5)                  1.4725         estimate D2E/DX2                !
 ! R9    R(3,12)                 1.5032         estimate D2E/DX2                !
 ! R10   R(3,69)                 1.7967         estimate D2E/DX2                !
 ! R11   R(4,5)                  1.4729         estimate D2E/DX2                !
 ! R12   R(4,6)                  1.5022         estimate D2E/DX2                !
 ! R13   R(4,70)                 1.7971         estimate D2E/DX2                !
 ! R14   R(5,15)                 1.3308         estimate D2E/DX2                !
 ! R15   R(6,8)                  1.3935         estimate D2E/DX2                !
 ! R16   R(6,17)                 1.401          estimate D2E/DX2                !
 ! R17   R(7,8)                  1.4216         estimate D2E/DX2                !
 ! R18   R(7,9)                  1.391          estimate D2E/DX2                !
 ! R19   R(8,20)                 1.4124         estimate D2E/DX2                !
 ! R20   R(9,11)                 1.4588         estimate D2E/DX2                !
 ! R21   R(9,22)                 1.4109         estimate D2E/DX2                !
 ! R22   R(10,11)                1.3899         estimate D2E/DX2                !
 ! R23   R(10,13)                1.4216         estimate D2E/DX2                !
 ! R24   R(11,25)                1.4113         estimate D2E/DX2                !
 ! R25   R(12,13)                1.3932         estimate D2E/DX2                !
 ! R26   R(12,14)                1.4022         estimate D2E/DX2                !
 ! R27   R(13,27)                1.4123         estimate D2E/DX2                !
 ! R28   R(14,16)                1.42           estimate D2E/DX2                !
 ! R29   R(14,29)                1.4522         estimate D2E/DX2                !
 ! R30   R(15,16)                1.4532         estimate D2E/DX2                !
 ! R31   R(15,18)                1.4522         estimate D2E/DX2                !
 ! R32   R(16,32)                1.4031         estimate D2E/DX2                !
 ! R33   R(17,18)                1.4208         estimate D2E/DX2                !
 ! R34   R(17,19)                1.4516         estimate D2E/DX2                !
 ! R35   R(18,33)                1.4031         estimate D2E/DX2                !
 ! R36   R(19,21)                1.4425         estimate D2E/DX2                !
 ! R37   R(19,35)                1.4029         estimate D2E/DX2                !
 ! R38   R(20,21)                1.4407         estimate D2E/DX2                !
 ! R39   R(20,23)                1.3988         estimate D2E/DX2                !
 ! R40   R(21,38)                1.4071         estimate D2E/DX2                !
 ! R41   R(22,23)                1.4251         estimate D2E/DX2                !
 ! R42   R(22,24)                1.4254         estimate D2E/DX2                !
 ! R43   R(23,40)                1.4308         estimate D2E/DX2                !
 ! R44   R(24,26)                1.3842         estimate D2E/DX2                !
 ! R45   R(24,41)                1.4421         estimate D2E/DX2                !
 ! R46   R(25,26)                1.4243         estimate D2E/DX2                !
 ! R47   R(25,28)                1.4252         estimate D2E/DX2                !
 ! R48   R(26,44)                1.442          estimate D2E/DX2                !
 ! R49   R(27,28)                1.3984         estimate D2E/DX2                !
 ! R50   R(27,30)                1.4409         estimate D2E/DX2                !
 ! R51   R(28,45)                1.4302         estimate D2E/DX2                !
 ! R52   R(29,30)                1.4424         estimate D2E/DX2                !
 ! R53   R(29,31)                1.4037         estimate D2E/DX2                !
 ! R54   R(30,47)                1.4073         estimate D2E/DX2                !
 ! R55   R(31,34)                1.4348         estimate D2E/DX2                !
 ! R56   R(31,49)                1.4335         estimate D2E/DX2                !
 ! R57   R(32,33)                1.4568         estimate D2E/DX2                !
 ! R58   R(32,34)                1.3865         estimate D2E/DX2                !
 ! R59   R(33,36)                1.3861         estimate D2E/DX2                !
 ! R60   R(34,51)                1.4356         estimate D2E/DX2                !
 ! R61   R(35,36)                1.4347         estimate D2E/DX2                !
 ! R62   R(35,37)                1.4327         estimate D2E/DX2                !
 ! R63   R(36,52)                1.4345         estimate D2E/DX2                !
 ! R64   R(37,39)                1.3781         estimate D2E/DX2                !
 ! R65   R(37,53)                1.4392         estimate D2E/DX2                !
 ! R66   R(38,39)                1.4324         estimate D2E/DX2                !
 ! R67   R(38,42)                1.4385         estimate D2E/DX2                !
 ! R68   R(39,57)                1.4382         estimate D2E/DX2                !
 ! R69   R(40,41)                1.4342         estimate D2E/DX2                !
 ! R70   R(40,42)                1.3793         estimate D2E/DX2                !
 ! R71   R(41,43)                1.3809         estimate D2E/DX2                !
 ! R72   R(42,58)                1.4361         estimate D2E/DX2                !
 ! R73   R(43,46)                1.4439         estimate D2E/DX2                !
 ! R74   R(43,59)                1.4374         estimate D2E/DX2                !
 ! R75   R(44,45)                1.434          estimate D2E/DX2                !
 ! R76   R(44,46)                1.3804         estimate D2E/DX2                !
 ! R77   R(45,48)                1.3793         estimate D2E/DX2                !
 ! R78   R(46,61)                1.4372         estimate D2E/DX2                !
 ! R79   R(47,48)                1.4384         estimate D2E/DX2                !
 ! R80   R(47,50)                1.4324         estimate D2E/DX2                !
 ! R81   R(48,62)                1.4358         estimate D2E/DX2                !
 ! R82   R(49,50)                1.378          estimate D2E/DX2                !
 ! R83   R(49,54)                1.4395         estimate D2E/DX2                !
 ! R84   R(50,63)                1.4386         estimate D2E/DX2                !
 ! R85   R(51,52)                1.3903         estimate D2E/DX2                !
 ! R86   R(51,54)                1.4362         estimate D2E/DX2                !
 ! R87   R(52,53)                1.4365         estimate D2E/DX2                !
 ! R88   R(53,55)                1.3847         estimate D2E/DX2                !
 ! R89   R(54,56)                1.3857         estimate D2E/DX2                !
 ! R90   R(55,56)                1.4416         estimate D2E/DX2                !
 ! R91   R(55,60)                1.4372         estimate D2E/DX2                !
 ! R92   R(56,64)                1.4364         estimate D2E/DX2                !
 ! R93   R(57,58)                1.4357         estimate D2E/DX2                !
 ! R94   R(57,60)                1.3843         estimate D2E/DX2                !
 ! R95   R(58,59)                1.3873         estimate D2E/DX2                !
 ! R96   R(59,65)                1.4417         estimate D2E/DX2                !
 ! R97   R(60,66)                1.44           estimate D2E/DX2                !
 ! R98   R(61,62)                1.3874         estimate D2E/DX2                !
 ! R99   R(61,65)                1.4414         estimate D2E/DX2                !
 ! R100  R(62,63)                1.4353         estimate D2E/DX2                !
 ! R101  R(63,64)                1.384          estimate D2E/DX2                !
 ! R102  R(64,66)                1.441          estimate D2E/DX2                !
 ! R103  R(65,66)                1.3842         estimate D2E/DX2                !
 ! A1    A(2,1,4)              107.1477         estimate D2E/DX2                !
 ! A2    A(2,1,7)              112.4717         estimate D2E/DX2                !
 ! A3    A(2,1,67)             112.1794         estimate D2E/DX2                !
 ! A4    A(4,1,7)              101.6877         estimate D2E/DX2                !
 ! A5    A(4,1,67)             113.3537         estimate D2E/DX2                !
 ! A6    A(7,1,67)             109.5742         estimate D2E/DX2                !
 ! A7    A(1,2,3)              107.0358         estimate D2E/DX2                !
 ! A8    A(1,2,10)             112.8228         estimate D2E/DX2                !
 ! A9    A(1,2,68)             112.1866         estimate D2E/DX2                !
 ! A10   A(3,2,10)             101.5804         estimate D2E/DX2                !
 ! A11   A(3,2,68)             113.6902         estimate D2E/DX2                !
 ! A12   A(10,2,68)            109.1166         estimate D2E/DX2                !
 ! A13   A(2,3,5)              103.7884         estimate D2E/DX2                !
 ! A14   A(2,3,12)             106.5671         estimate D2E/DX2                !
 ! A15   A(2,3,69)             115.1404         estimate D2E/DX2                !
 ! A16   A(5,3,12)             107.6932         estimate D2E/DX2                !
 ! A17   A(5,3,69)             110.4332         estimate D2E/DX2                !
 ! A18   A(12,3,69)            112.6091         estimate D2E/DX2                !
 ! A19   A(1,4,5)              103.6876         estimate D2E/DX2                !
 ! A20   A(1,4,6)              106.4562         estimate D2E/DX2                !
 ! A21   A(1,4,70)             115.2793         estimate D2E/DX2                !
 ! A22   A(5,4,6)              107.7483         estimate D2E/DX2                !
 ! A23   A(5,4,70)             110.524          estimate D2E/DX2                !
 ! A24   A(6,4,70)             112.5285         estimate D2E/DX2                !
 ! A25   A(3,5,4)              115.4469         estimate D2E/DX2                !
 ! A26   A(3,5,15)             121.0449         estimate D2E/DX2                !
 ! A27   A(4,5,15)             121.0298         estimate D2E/DX2                !
 ! A28   A(4,6,8)              109.4526         estimate D2E/DX2                !
 ! A29   A(4,6,17)             123.6184         estimate D2E/DX2                !
 ! A30   A(8,6,17)             119.3401         estimate D2E/DX2                !
 ! A31   A(1,7,8)              111.8052         estimate D2E/DX2                !
 ! A32   A(1,7,9)              124.9674         estimate D2E/DX2                !
 ! A33   A(8,7,9)              117.6726         estimate D2E/DX2                !
 ! A34   A(6,8,7)              108.5924         estimate D2E/DX2                !
 ! A35   A(6,8,20)             121.6541         estimate D2E/DX2                !
 ! A36   A(7,8,20)             124.2197         estimate D2E/DX2                !
 ! A37   A(7,9,11)             117.1903         estimate D2E/DX2                !
 ! A38   A(7,9,22)             116.2864         estimate D2E/DX2                !
 ! A39   A(11,9,22)            117.8003         estimate D2E/DX2                !
 ! A40   A(2,10,11)            124.8363         estimate D2E/DX2                !
 ! A41   A(2,10,13)            111.9314         estimate D2E/DX2                !
 ! A42   A(11,10,13)           117.801          estimate D2E/DX2                !
 ! A43   A(9,11,10)            117.0861         estimate D2E/DX2                !
 ! A44   A(9,11,25)            118.1233         estimate D2E/DX2                !
 ! A45   A(10,11,25)           116.0289         estimate D2E/DX2                !
 ! A46   A(3,12,13)            109.3642         estimate D2E/DX2                !
 ! A47   A(3,12,14)            123.8047         estimate D2E/DX2                !
 ! A48   A(13,12,14)           119.2169         estimate D2E/DX2                !
 ! A49   A(10,13,12)           108.5596         estimate D2E/DX2                !
 ! A50   A(10,13,27)           124.4103         estimate D2E/DX2                !
 ! A51   A(12,13,27)           121.5686         estimate D2E/DX2                !
 ! A52   A(12,14,16)           115.9491         estimate D2E/DX2                !
 ! A53   A(12,14,29)           119.6542         estimate D2E/DX2                !
 ! A54   A(16,14,29)           118.5773         estimate D2E/DX2                !
 ! A55   A(5,15,16)            122.2183         estimate D2E/DX2                !
 ! A56   A(5,15,18)            122.1162         estimate D2E/DX2                !
 ! A57   A(16,15,18)           108.1148         estimate D2E/DX2                !
 ! A58   A(14,16,15)           117.1326         estimate D2E/DX2                !
 ! A59   A(14,16,32)           121.9078         estimate D2E/DX2                !
 ! A60   A(15,16,32)           106.7645         estimate D2E/DX2                !
 ! A61   A(6,17,18)            116.0707         estimate D2E/DX2                !
 ! A62   A(6,17,19)            119.4406         estimate D2E/DX2                !
 ! A63   A(18,17,19)           118.6147         estimate D2E/DX2                !
 ! A64   A(15,18,17)           117.1285         estimate D2E/DX2                !
 ! A65   A(15,18,33)           106.7207         estimate D2E/DX2                !
 ! A66   A(17,18,33)           121.972          estimate D2E/DX2                !
 ! A67   A(17,19,21)           119.5151         estimate D2E/DX2                !
 ! A68   A(17,19,35)           117.0924         estimate D2E/DX2                !
 ! A69   A(21,19,35)           118.7774         estimate D2E/DX2                !
 ! A70   A(8,20,21)            119.5074         estimate D2E/DX2                !
 ! A71   A(8,20,23)            114.6475         estimate D2E/DX2                !
 ! A72   A(21,20,23)           120.4932         estimate D2E/DX2                !
 ! A73   A(19,21,20)           118.1522         estimate D2E/DX2                !
 ! A74   A(19,21,38)           118.9454         estimate D2E/DX2                !
 ! A75   A(20,21,38)           117.0515         estimate D2E/DX2                !
 ! A76   A(9,22,23)            122.1828         estimate D2E/DX2                !
 ! A77   A(9,22,24)            121.9086         estimate D2E/DX2                !
 ! A78   A(23,22,24)           107.437          estimate D2E/DX2                !
 ! A79   A(20,23,22)           119.8635         estimate D2E/DX2                !
 ! A80   A(20,23,40)           121.1235         estimate D2E/DX2                !
 ! A81   A(22,23,40)           108.2708         estimate D2E/DX2                !
 ! A82   A(22,24,26)           119.4063         estimate D2E/DX2                !
 ! A83   A(22,24,41)           109.0871         estimate D2E/DX2                !
 ! A84   A(26,24,41)           119.6201         estimate D2E/DX2                !
 ! A85   A(11,25,26)           121.7851         estimate D2E/DX2                !
 ! A86   A(11,25,28)           122.3598         estimate D2E/DX2                !
 ! A87   A(26,25,28)           107.456          estimate D2E/DX2                !
 ! A88   A(24,26,25)           119.3463         estimate D2E/DX2                !
 ! A89   A(24,26,44)           119.7481         estimate D2E/DX2                !
 ! A90   A(25,26,44)           109.0525         estimate D2E/DX2                !
 ! A91   A(13,27,28)           114.3829         estimate D2E/DX2                !
 ! A92   A(13,27,30)           119.6573         estimate D2E/DX2                !
 ! A93   A(28,27,30)           120.6195         estimate D2E/DX2                !
 ! A94   A(25,28,27)           119.9558         estimate D2E/DX2                !
 ! A95   A(25,28,45)           108.2995         estimate D2E/DX2                !
 ! A96   A(27,28,45)           121.0348         estimate D2E/DX2                !
 ! A97   A(14,29,30)           119.317          estimate D2E/DX2                !
 ! A98   A(14,29,31)           117.2158         estimate D2E/DX2                !
 ! A99   A(30,29,31)           118.7576         estimate D2E/DX2                !
 ! A100  A(27,30,29)           118.1703         estimate D2E/DX2                !
 ! A101  A(27,30,47)           117.0408         estimate D2E/DX2                !
 ! A102  A(29,30,47)           118.8713         estimate D2E/DX2                !
 ! A103  A(29,31,34)           121.9011         estimate D2E/DX2                !
 ! A104  A(29,31,49)           121.4614         estimate D2E/DX2                !
 ! A105  A(34,31,49)           106.662          estimate D2E/DX2                !
 ! A106  A(16,32,33)           108.547          estimate D2E/DX2                !
 ! A107  A(16,32,34)           119.4473         estimate D2E/DX2                !
 ! A108  A(33,32,34)           119.1455         estimate D2E/DX2                !
 ! A109  A(18,33,32)           108.6714         estimate D2E/DX2                !
 ! A110  A(18,33,36)           119.2933         estimate D2E/DX2                !
 ! A111  A(32,33,36)           119.1382         estimate D2E/DX2                !
 ! A112  A(31,34,32)           119.3115         estimate D2E/DX2                !
 ! A113  A(31,34,51)           108.913          estimate D2E/DX2                !
 ! A114  A(32,34,51)           120.6352         estimate D2E/DX2                !
 ! A115  A(19,35,36)           121.9791         estimate D2E/DX2                !
 ! A116  A(19,35,37)           121.3912         estimate D2E/DX2                !
 ! A117  A(36,35,37)           106.7744         estimate D2E/DX2                !
 ! A118  A(33,36,35)           119.3926         estimate D2E/DX2                !
 ! A119  A(33,36,52)           120.6972         estimate D2E/DX2                !
 ! A120  A(35,36,52)           108.9122         estimate D2E/DX2                !
 ! A121  A(35,37,39)           119.8319         estimate D2E/DX2                !
 ! A122  A(35,37,53)           108.8388         estimate D2E/DX2                !
 ! A123  A(39,37,53)           120.479          estimate D2E/DX2                !
 ! A124  A(21,38,39)           121.2409         estimate D2E/DX2                !
 ! A125  A(21,38,42)           121.7579         estimate D2E/DX2                !
 ! A126  A(39,38,42)           107.1793         estimate D2E/DX2                !
 ! A127  A(37,39,38)           119.6432         estimate D2E/DX2                !
 ! A128  A(37,39,57)           120.2428         estimate D2E/DX2                !
 ! A129  A(38,39,57)           108.641          estimate D2E/DX2                !
 ! A130  A(23,40,41)           108.6036         estimate D2E/DX2                !
 ! A131  A(23,40,42)           119.0601         estimate D2E/DX2                !
 ! A132  A(41,40,42)           120.9048         estimate D2E/DX2                !
 ! A133  A(24,41,40)           106.3912         estimate D2E/DX2                !
 ! A134  A(24,41,43)           120.6208         estimate D2E/DX2                !
 ! A135  A(40,41,43)           119.3913         estimate D2E/DX2                !
 ! A136  A(38,42,40)           120.0627         estimate D2E/DX2                !
 ! A137  A(38,42,58)           108.4864         estimate D2E/DX2                !
 ! A138  A(40,42,58)           119.7048         estimate D2E/DX2                !
 ! A139  A(41,43,46)           119.7118         estimate D2E/DX2                !
 ! A140  A(41,43,59)           120.0155         estimate D2E/DX2                !
 ! A141  A(46,43,59)           107.9341         estimate D2E/DX2                !
 ! A142  A(26,44,45)           106.4483         estimate D2E/DX2                !
 ! A143  A(26,44,46)           120.5758         estimate D2E/DX2                !
 ! A144  A(45,44,46)           119.3912         estimate D2E/DX2                !
 ! A145  A(28,45,44)           108.5431         estimate D2E/DX2                !
 ! A146  A(28,45,48)           119.0462         estimate D2E/DX2                !
 ! A147  A(44,45,48)           121.02           estimate D2E/DX2                !
 ! A148  A(43,46,44)           119.7132         estimate D2E/DX2                !
 ! A149  A(43,46,61)           108.0394         estimate D2E/DX2                !
 ! A150  A(44,46,61)           119.9382         estimate D2E/DX2                !
 ! A151  A(30,47,48)           121.6235         estimate D2E/DX2                !
 ! A152  A(30,47,50)           121.3548         estimate D2E/DX2                !
 ! A153  A(48,47,50)           107.1618         estimate D2E/DX2                !
 ! A154  A(45,48,47)           120.2085         estimate D2E/DX2                !
 ! A155  A(45,48,62)           119.5709         estimate D2E/DX2                !
 ! A156  A(47,48,62)           108.5488         estimate D2E/DX2                !
 ! A157  A(31,49,50)           119.7552         estimate D2E/DX2                !
 ! A158  A(31,49,54)           108.989          estimate D2E/DX2                !
 ! A159  A(50,49,54)           120.2608         estimate D2E/DX2                !
 ! A160  A(47,50,49)           119.6257         estimate D2E/DX2                !
 ! A161  A(47,50,63)           108.5904         estimate D2E/DX2                !
 ! A162  A(49,50,63)           120.281          estimate D2E/DX2                !
 ! A163  A(34,51,52)           119.5886         estimate D2E/DX2                !
 ! A164  A(34,51,54)           107.5586         estimate D2E/DX2                !
 ! A165  A(52,51,54)           119.5984         estimate D2E/DX2                !
 ! A166  A(36,52,51)           119.5643         estimate D2E/DX2                !
 ! A167  A(36,52,53)           107.4723         estimate D2E/DX2                !
 ! A168  A(51,52,53)           119.7925         estimate D2E/DX2                !
 ! A169  A(37,53,52)           107.5223         estimate D2E/DX2                !
 ! A170  A(37,53,55)           119.1575         estimate D2E/DX2                !
 ! A171  A(52,53,55)           120.5551         estimate D2E/DX2                !
 ! A172  A(49,54,51)           107.3901         estimate D2E/DX2                !
 ! A173  A(49,54,56)           119.302          estimate D2E/DX2                !
 ! A174  A(51,54,56)           120.5239         estimate D2E/DX2                !
 ! A175  A(53,55,56)           119.5817         estimate D2E/DX2                !
 ! A176  A(53,55,60)           120.2853         estimate D2E/DX2                !
 ! A177  A(56,55,60)           108.049          estimate D2E/DX2                !
 ! A178  A(54,56,55)           119.7785         estimate D2E/DX2                !
 ! A179  A(54,56,64)           120.3343         estimate D2E/DX2                !
 ! A180  A(55,56,64)           107.8116         estimate D2E/DX2                !
 ! A181  A(39,57,58)           107.6684         estimate D2E/DX2                !
 ! A182  A(39,57,60)           119.3632         estimate D2E/DX2                !
 ! A183  A(58,57,60)           120.3029         estimate D2E/DX2                !
 ! A184  A(42,58,57)           107.7666         estimate D2E/DX2                !
 ! A185  A(42,58,59)           119.5224         estimate D2E/DX2                !
 ! A186  A(57,58,59)           120.2325         estimate D2E/DX2                !
 ! A187  A(43,59,58)           120.2912         estimate D2E/DX2                !
 ! A188  A(43,59,65)           108.048          estimate D2E/DX2                !
 ! A189  A(58,59,65)           119.4523         estimate D2E/DX2                !
 ! A190  A(55,60,57)           120.2274         estimate D2E/DX2                !
 ! A191  A(55,60,66)           108.1238         estimate D2E/DX2                !
 ! A192  A(57,60,66)           119.5874         estimate D2E/DX2                !
 ! A193  A(46,61,62)           120.3528         estimate D2E/DX2                !
 ! A194  A(46,61,65)           108.0013         estimate D2E/DX2                !
 ! A195  A(62,61,65)           119.5166         estimate D2E/DX2                !
 ! A196  A(48,62,61)           119.5615         estimate D2E/DX2                !
 ! A197  A(48,62,63)           107.7111         estimate D2E/DX2                !
 ! A198  A(61,62,63)           120.3641         estimate D2E/DX2                !
 ! A199  A(50,63,62)           107.7286         estimate D2E/DX2                !
 ! A200  A(50,63,64)           119.5533         estimate D2E/DX2                !
 ! A201  A(62,63,64)           120.1355         estimate D2E/DX2                !
 ! A202  A(56,64,63)           120.0288         estimate D2E/DX2                !
 ! A203  A(56,64,66)           108.2779         estimate D2E/DX2                !
 ! A204  A(63,64,66)           119.6344         estimate D2E/DX2                !
 ! A205  A(59,65,61)           107.9385         estimate D2E/DX2                !
 ! A206  A(59,65,66)           120.1824         estimate D2E/DX2                !
 ! A207  A(61,65,66)           120.0029         estimate D2E/DX2                !
 ! A208  A(60,66,64)           107.7004         estimate D2E/DX2                !
 ! A209  A(60,66,65)           120.17           estimate D2E/DX2                !
 ! A210  A(64,66,65)           120.2736         estimate D2E/DX2                !
 ! D1    D(4,1,2,3)              0.191          estimate D2E/DX2                !
 ! D2    D(4,1,2,10)          -110.7089         estimate D2E/DX2                !
 ! D3    D(4,1,2,68)           125.5568         estimate D2E/DX2                !
 ! D4    D(7,1,2,3)            111.1101         estimate D2E/DX2                !
 ! D5    D(7,1,2,10)             0.2102         estimate D2E/DX2                !
 ! D6    D(7,1,2,68)          -123.5242         estimate D2E/DX2                !
 ! D7    D(67,1,2,3)          -124.8234         estimate D2E/DX2                !
 ! D8    D(67,1,2,10)          124.2767         estimate D2E/DX2                !
 ! D9    D(67,1,2,68)            0.5423         estimate D2E/DX2                !
 ! D10   D(2,1,4,5)              9.5225         estimate D2E/DX2                !
 ! D11   D(2,1,4,6)            123.0437         estimate D2E/DX2                !
 ! D12   D(2,1,4,70)          -111.4133         estimate D2E/DX2                !
 ! D13   D(7,1,4,5)           -108.6616         estimate D2E/DX2                !
 ! D14   D(7,1,4,6)              4.8596         estimate D2E/DX2                !
 ! D15   D(7,1,4,70)           130.4026         estimate D2E/DX2                !
 ! D16   D(67,1,4,5)           133.8241         estimate D2E/DX2                !
 ! D17   D(67,1,4,6)          -112.6547         estimate D2E/DX2                !
 ! D18   D(67,1,4,70)           12.8883         estimate D2E/DX2                !
 ! D19   D(2,1,7,8)           -126.4234         estimate D2E/DX2                !
 ! D20   D(2,1,7,9)             26.4741         estimate D2E/DX2                !
 ! D21   D(4,1,7,8)            -12.1316         estimate D2E/DX2                !
 ! D22   D(4,1,7,9)            140.766          estimate D2E/DX2                !
 ! D23   D(67,1,7,8)           108.0793         estimate D2E/DX2                !
 ! D24   D(67,1,7,9)           -99.0232         estimate D2E/DX2                !
 ! D25   D(1,2,3,5)             -9.8319         estimate D2E/DX2                !
 ! D26   D(1,2,3,12)          -123.3787         estimate D2E/DX2                !
 ! D27   D(1,2,3,69)           110.9825         estimate D2E/DX2                !
 ! D28   D(10,2,3,5)           108.6513         estimate D2E/DX2                !
 ! D29   D(10,2,3,12)           -4.8955         estimate D2E/DX2                !
 ! D30   D(10,2,3,69)         -130.5343         estimate D2E/DX2                !
 ! D31   D(68,2,3,5)          -134.2858         estimate D2E/DX2                !
 ! D32   D(68,2,3,12)          112.1674         estimate D2E/DX2                !
 ! D33   D(68,2,3,69)          -13.4714         estimate D2E/DX2                !
 ! D34   D(1,2,10,11)          -26.8351         estimate D2E/DX2                !
 ! D35   D(1,2,10,13)          126.39           estimate D2E/DX2                !
 ! D36   D(3,2,10,11)         -141.0834         estimate D2E/DX2                !
 ! D37   D(3,2,10,13)           12.1417         estimate D2E/DX2                !
 ! D38   D(68,2,10,11)          98.5785         estimate D2E/DX2                !
 ! D39   D(68,2,10,13)        -108.1965         estimate D2E/DX2                !
 ! D40   D(2,3,5,4)             17.5795         estimate D2E/DX2                !
 ! D41   D(2,3,5,15)          -144.7328         estimate D2E/DX2                !
 ! D42   D(12,3,5,4)           130.3141         estimate D2E/DX2                !
 ! D43   D(12,3,5,15)          -31.9981         estimate D2E/DX2                !
 ! D44   D(69,3,5,4)          -106.3549         estimate D2E/DX2                !
 ! D45   D(69,3,5,15)           91.3328         estimate D2E/DX2                !
 ! D46   D(2,3,12,13)           -3.7089         estimate D2E/DX2                !
 ! D47   D(2,3,12,14)          145.3806         estimate D2E/DX2                !
 ! D48   D(5,3,12,13)         -114.5579         estimate D2E/DX2                !
 ! D49   D(5,3,12,14)           34.5316         estimate D2E/DX2                !
 ! D50   D(69,3,12,13)         123.4498         estimate D2E/DX2                !
 ! D51   D(69,3,12,14)         -87.4607         estimate D2E/DX2                !
 ! D52   D(1,4,5,3)            -17.442          estimate D2E/DX2                !
 ! D53   D(1,4,5,15)           144.8732         estimate D2E/DX2                !
 ! D54   D(6,4,5,3)           -130.0289         estimate D2E/DX2                !
 ! D55   D(6,4,5,15)            32.2862         estimate D2E/DX2                !
 ! D56   D(70,4,5,3)           106.6467         estimate D2E/DX2                !
 ! D57   D(70,4,5,15)          -91.0382         estimate D2E/DX2                !
 ! D58   D(1,4,6,8)              3.774          estimate D2E/DX2                !
 ! D59   D(1,4,6,17)          -145.4138         estimate D2E/DX2                !
 ! D60   D(5,4,6,8)            114.4823         estimate D2E/DX2                !
 ! D61   D(5,4,6,17)           -34.7056         estimate D2E/DX2                !
 ! D62   D(70,4,6,8)          -123.4246         estimate D2E/DX2                !
 ! D63   D(70,4,6,17)           87.3875         estimate D2E/DX2                !
 ! D64   D(3,5,15,16)            7.5561         estimate D2E/DX2                !
 ! D65   D(3,5,15,18)          153.6005         estimate D2E/DX2                !
 ! D66   D(4,5,15,16)         -153.7707         estimate D2E/DX2                !
 ! D67   D(4,5,15,18)           -7.7263         estimate D2E/DX2                !
 ! D68   D(4,6,8,7)            -11.4767         estimate D2E/DX2                !
 ! D69   D(4,6,8,20)          -166.2214         estimate D2E/DX2                !
 ! D70   D(17,6,8,7)           139.2275         estimate D2E/DX2                !
 ! D71   D(17,6,8,20)          -15.5172         estimate D2E/DX2                !
 ! D72   D(4,6,17,18)           10.8325         estimate D2E/DX2                !
 ! D73   D(4,6,17,19)          163.5011         estimate D2E/DX2                !
 ! D74   D(8,6,17,18)         -135.5218         estimate D2E/DX2                !
 ! D75   D(8,6,17,19)           17.1468         estimate D2E/DX2                !
 ! D76   D(1,7,8,6)             15.3338         estimate D2E/DX2                !
 ! D77   D(1,7,8,20)           169.28           estimate D2E/DX2                !
 ! D78   D(9,7,8,6)           -139.7331         estimate D2E/DX2                !
 ! D79   D(9,7,8,20)            14.2132         estimate D2E/DX2                !
 ! D80   D(1,7,9,11)           -27.6739         estimate D2E/DX2                !
 ! D81   D(1,7,9,22)          -174.6612         estimate D2E/DX2                !
 ! D82   D(8,7,9,11)           123.7961         estimate D2E/DX2                !
 ! D83   D(8,7,9,22)           -23.1912         estimate D2E/DX2                !
 ! D84   D(6,8,20,21)            2.9261         estimate D2E/DX2                !
 ! D85   D(6,8,20,23)          157.2409         estimate D2E/DX2                !
 ! D86   D(7,8,20,21)         -147.796          estimate D2E/DX2                !
 ! D87   D(7,8,20,23)            6.5188         estimate D2E/DX2                !
 ! D88   D(7,9,11,10)           -0.03           estimate D2E/DX2                !
 ! D89   D(7,9,11,25)         -146.3558         estimate D2E/DX2                !
 ! D90   D(22,9,11,10)         146.4503         estimate D2E/DX2                !
 ! D91   D(22,9,11,25)           0.1245         estimate D2E/DX2                !
 ! D92   D(7,9,22,23)           13.1121         estimate D2E/DX2                !
 ! D93   D(7,9,22,24)          157.1031         estimate D2E/DX2                !
 ! D94   D(11,9,22,23)        -133.6681         estimate D2E/DX2                !
 ! D95   D(11,9,22,24)          10.3229         estimate D2E/DX2                !
 ! D96   D(2,10,11,9)           27.7767         estimate D2E/DX2                !
 ! D97   D(2,10,11,25)         174.8064         estimate D2E/DX2                !
 ! D98   D(13,10,11,9)        -124.0321         estimate D2E/DX2                !
 ! D99   D(13,10,11,25)         22.9977         estimate D2E/DX2                !
 ! D100  D(2,10,13,12)         -15.3135         estimate D2E/DX2                !
 ! D101  D(2,10,13,27)        -169.387          estimate D2E/DX2                !
 ! D102  D(11,10,13,12)        139.9779         estimate D2E/DX2                !
 ! D103  D(11,10,13,27)        -14.0955         estimate D2E/DX2                !
 ! D104  D(9,11,25,26)         -10.4937         estimate D2E/DX2                !
 ! D105  D(9,11,25,28)         133.6433         estimate D2E/DX2                !
 ! D106  D(10,11,25,26)       -157.1693         estimate D2E/DX2                !
 ! D107  D(10,11,25,28)        -13.0323         estimate D2E/DX2                !
 ! D108  D(3,12,13,10)          11.4005         estimate D2E/DX2                !
 ! D109  D(3,12,13,27)         166.3534         estimate D2E/DX2                !
 ! D110  D(14,12,13,10)       -139.3199         estimate D2E/DX2                !
 ! D111  D(14,12,13,27)         15.633          estimate D2E/DX2                !
 ! D112  D(3,12,14,16)         -10.7871         estimate D2E/DX2                !
 ! D113  D(3,12,14,29)        -163.561          estimate D2E/DX2                !
 ! D114  D(13,12,14,16)        135.4828         estimate D2E/DX2                !
 ! D115  D(13,12,14,29)        -17.2912         estimate D2E/DX2                !
 ! D116  D(10,13,27,28)         -6.5316         estimate D2E/DX2                !
 ! D117  D(10,13,27,30)        147.8377         estimate D2E/DX2                !
 ! D118  D(12,13,27,28)       -157.4227         estimate D2E/DX2                !
 ! D119  D(12,13,27,30)         -3.0535         estimate D2E/DX2                !
 ! D120  D(12,14,16,15)        -17.5574         estimate D2E/DX2                !
 ! D121  D(12,14,16,32)       -152.0534         estimate D2E/DX2                !
 ! D122  D(29,14,16,15)        135.5231         estimate D2E/DX2                !
 ! D123  D(29,14,16,32)          1.0271         estimate D2E/DX2                !
 ! D124  D(12,14,29,30)          6.7459         estimate D2E/DX2                !
 ! D125  D(12,14,29,31)        162.1499         estimate D2E/DX2                !
 ! D126  D(16,14,29,30)       -145.3204         estimate D2E/DX2                !
 ! D127  D(16,14,29,31)         10.0836         estimate D2E/DX2                !
 ! D128  D(5,15,16,14)          20.0841         estimate D2E/DX2                !
 ! D129  D(5,15,16,32)         160.8569         estimate D2E/DX2                !
 ! D130  D(18,15,16,14)       -130.0648         estimate D2E/DX2                !
 ! D131  D(18,15,16,32)         10.7079         estimate D2E/DX2                !
 ! D132  D(5,15,18,17)         -20.0398         estimate D2E/DX2                !
 ! D133  D(5,15,18,33)        -160.8577         estimate D2E/DX2                !
 ! D134  D(16,15,18,17)        130.146          estimate D2E/DX2                !
 ! D135  D(16,15,18,33)        -10.6719         estimate D2E/DX2                !
 ! D136  D(14,16,32,33)        131.8401         estimate D2E/DX2                !
 ! D137  D(14,16,32,34)         -9.3597         estimate D2E/DX2                !
 ! D138  D(15,16,32,33)         -6.6323         estimate D2E/DX2                !
 ! D139  D(15,16,32,34)       -147.8321         estimate D2E/DX2                !
 ! D140  D(6,17,18,15)          17.602          estimate D2E/DX2                !
 ! D141  D(6,17,18,33)         152.1001         estimate D2E/DX2                !
 ! D142  D(19,17,18,15)       -135.3023         estimate D2E/DX2                !
 ! D143  D(19,17,18,33)         -0.8041         estimate D2E/DX2                !
 ! D144  D(6,17,19,21)          -6.6304         estimate D2E/DX2                !
 ! D145  D(6,17,19,35)        -162.2724         estimate D2E/DX2                !
 ! D146  D(18,17,19,21)        145.3481         estimate D2E/DX2                !
 ! D147  D(18,17,19,35)        -10.2939         estimate D2E/DX2                !
 ! D148  D(15,18,33,32)          6.5619         estimate D2E/DX2                !
 ! D149  D(15,18,33,36)        147.7227         estimate D2E/DX2                !
 ! D150  D(17,18,33,32)       -131.9222         estimate D2E/DX2                !
 ! D151  D(17,18,33,36)          9.2386         estimate D2E/DX2                !
 ! D152  D(17,19,21,20)         -5.6158         estimate D2E/DX2                !
 ! D153  D(17,19,21,38)       -157.9169         estimate D2E/DX2                !
 ! D154  D(35,19,21,20)        149.6178         estimate D2E/DX2                !
 ! D155  D(35,19,21,38)         -2.6833         estimate D2E/DX2                !
 ! D156  D(17,19,35,36)         13.5215         estimate D2E/DX2                !
 ! D157  D(17,19,35,37)        154.7416         estimate D2E/DX2                !
 ! D158  D(21,19,35,36)       -142.3059         estimate D2E/DX2                !
 ! D159  D(21,19,35,37)         -1.0858         estimate D2E/DX2                !
 ! D160  D(8,20,21,19)           7.528          estimate D2E/DX2                !
 ! D161  D(8,20,21,38)         160.352          estimate D2E/DX2                !
 ! D162  D(23,20,21,19)       -145.2674         estimate D2E/DX2                !
 ! D163  D(23,20,21,38)          7.5565         estimate D2E/DX2                !
 ! D164  D(8,20,23,22)         -17.122          estimate D2E/DX2                !
 ! D165  D(8,20,23,40)        -157.385          estimate D2E/DX2                !
 ! D166  D(21,20,23,22)        136.9173         estimate D2E/DX2                !
 ! D167  D(21,20,23,40)         -3.3457         estimate D2E/DX2                !
 ! D168  D(19,21,38,39)          4.3015         estimate D2E/DX2                !
 ! D169  D(19,21,38,42)        145.725          estimate D2E/DX2                !
 ! D170  D(20,21,38,39)       -148.2998         estimate D2E/DX2                !
 ! D171  D(20,21,38,42)         -6.8763         estimate D2E/DX2                !
 ! D172  D(9,22,23,20)           7.9688         estimate D2E/DX2                !
 ! D173  D(9,22,23,40)         152.7781         estimate D2E/DX2                !
 ! D174  D(24,22,23,20)       -140.4899         estimate D2E/DX2                !
 ! D175  D(24,22,23,40)          4.3193         estimate D2E/DX2                !
 ! D176  D(9,22,24,26)         -10.5567         estimate D2E/DX2                !
 ! D177  D(9,22,24,41)        -153.2475         estimate D2E/DX2                !
 ! D178  D(23,22,24,26)        138.0072         estimate D2E/DX2                !
 ! D179  D(23,22,24,41)         -4.6837         estimate D2E/DX2                !
 ! D180  D(20,23,40,41)        141.92           estimate D2E/DX2                !
 ! D181  D(20,23,40,42)         -1.8863         estimate D2E/DX2                !
 ! D182  D(22,23,40,41)         -2.3609         estimate D2E/DX2                !
 ! D183  D(22,23,40,42)       -146.1672         estimate D2E/DX2                !
 ! D184  D(22,24,26,25)          0.0301         estimate D2E/DX2                !
 ! D185  D(22,24,26,44)       -138.7909         estimate D2E/DX2                !
 ! D186  D(41,24,26,25)        138.8144         estimate D2E/DX2                !
 ! D187  D(41,24,26,44)         -0.0066         estimate D2E/DX2                !
 ! D188  D(22,24,41,40)          3.2133         estimate D2E/DX2                !
 ! D189  D(22,24,41,43)        143.4379         estimate D2E/DX2                !
 ! D190  D(26,24,41,40)       -139.3852         estimate D2E/DX2                !
 ! D191  D(26,24,41,43)          0.8394         estimate D2E/DX2                !
 ! D192  D(11,25,26,24)         10.5457         estimate D2E/DX2                !
 ! D193  D(11,25,26,44)        153.3331         estimate D2E/DX2                !
 ! D194  D(28,25,26,24)       -138.2053         estimate D2E/DX2                !
 ! D195  D(28,25,26,44)          4.5821         estimate D2E/DX2                !
 ! D196  D(11,25,28,27)         -7.9134         estimate D2E/DX2                !
 ! D197  D(11,25,28,45)       -152.7328         estimate D2E/DX2                !
 ! D198  D(26,25,28,27)        140.6181         estimate D2E/DX2                !
 ! D199  D(26,25,28,45)         -4.2013         estimate D2E/DX2                !
 ! D200  D(24,26,44,45)        139.4408         estimate D2E/DX2                !
 ! D201  D(24,26,44,46)         -0.804          estimate D2E/DX2                !
 ! D202  D(25,26,44,45)         -3.1731         estimate D2E/DX2                !
 ! D203  D(25,26,44,46)       -143.4179         estimate D2E/DX2                !
 ! D204  D(13,27,28,25)         17.014          estimate D2E/DX2                !
 ! D205  D(13,27,28,45)        157.3412         estimate D2E/DX2                !
 ! D206  D(30,27,28,25)       -137.0856         estimate D2E/DX2                !
 ! D207  D(30,27,28,45)          3.2416         estimate D2E/DX2                !
 ! D208  D(13,27,30,29)         -7.4475         estimate D2E/DX2                !
 ! D209  D(13,27,30,47)       -160.1071         estimate D2E/DX2                !
 ! D210  D(28,27,30,29)        145.3058         estimate D2E/DX2                !
 ! D211  D(28,27,30,47)         -7.3537         estimate D2E/DX2                !
 ! D212  D(25,28,45,44)          2.2637         estimate D2E/DX2                !
 ! D213  D(25,28,45,48)        146.1687         estimate D2E/DX2                !
 ! D214  D(27,28,45,44)       -142.104          estimate D2E/DX2                !
 ! D215  D(27,28,45,48)          1.801          estimate D2E/DX2                !
 ! D216  D(14,29,30,27)          5.5318         estimate D2E/DX2                !
 ! D217  D(14,29,30,47)        157.6836         estimate D2E/DX2                !
 ! D218  D(31,29,30,27)       -149.4938         estimate D2E/DX2                !
 ! D219  D(31,29,30,47)          2.6579         estimate D2E/DX2                !
 ! D220  D(14,29,31,34)        -13.4123         estimate D2E/DX2                !
 ! D221  D(14,29,31,49)       -154.3825         estimate D2E/DX2                !
 ! D222  D(30,29,31,34)        142.1335         estimate D2E/DX2                !
 ! D223  D(30,29,31,49)          1.1632         estimate D2E/DX2                !
 ! D224  D(27,30,47,48)          6.7361         estimate D2E/DX2                !
 ! D225  D(27,30,47,50)        148.0871         estimate D2E/DX2                !
 ! D226  D(29,30,47,48)       -145.7256         estimate D2E/DX2                !
 ! D227  D(29,30,47,50)         -4.3746         estimate D2E/DX2                !
 ! D228  D(29,31,34,32)          5.397          estimate D2E/DX2                !
 ! D229  D(29,31,34,51)       -138.7091         estimate D2E/DX2                !
 ! D230  D(49,31,34,32)        151.2934         estimate D2E/DX2                !
 ! D231  D(49,31,34,51)          7.1872         estimate D2E/DX2                !
 ! D232  D(29,31,49,50)         -3.3954         estimate D2E/DX2                !
 ! D233  D(29,31,49,54)        140.7586         estimate D2E/DX2                !
 ! D234  D(34,31,49,50)       -149.4749         estimate D2E/DX2                !
 ! D235  D(34,31,49,54)         -5.3209         estimate D2E/DX2                !
 ! D236  D(16,32,33,18)          0.0468         estimate D2E/DX2                !
 ! D237  D(16,32,33,36)       -141.1837         estimate D2E/DX2                !
 ! D238  D(34,32,33,18)        141.3825         estimate D2E/DX2                !
 ! D239  D(34,32,33,36)          0.152          estimate D2E/DX2                !
 ! D240  D(16,32,34,31)          6.1969         estimate D2E/DX2                !
 ! D241  D(16,32,34,51)        146.0611         estimate D2E/DX2                !
 ! D242  D(33,32,34,31)       -130.9452         estimate D2E/DX2                !
 ! D243  D(33,32,34,51)          8.919          estimate D2E/DX2                !
 ! D244  D(18,33,36,35)         -6.1929         estimate D2E/DX2                !
 ! D245  D(18,33,36,52)       -146.2827         estimate D2E/DX2                !
 ! D246  D(32,33,36,35)        130.9468         estimate D2E/DX2                !
 ! D247  D(32,33,36,52)         -9.143          estimate D2E/DX2                !
 ! D248  D(31,34,51,52)        134.4968         estimate D2E/DX2                !
 ! D249  D(31,34,51,54)         -6.3458         estimate D2E/DX2                !
 ! D250  D(32,34,51,52)         -9.0512         estimate D2E/DX2                !
 ! D251  D(32,34,51,54)       -149.8937         estimate D2E/DX2                !
 ! D252  D(19,35,36,33)         -5.4054         estimate D2E/DX2                !
 ! D253  D(19,35,36,52)        138.921          estimate D2E/DX2                !
 ! D254  D(37,35,36,33)       -151.4591         estimate D2E/DX2                !
 ! D255  D(37,35,36,52)         -7.1327         estimate D2E/DX2                !
 ! D256  D(19,35,37,39)          3.3592         estimate D2E/DX2                !
 ! D257  D(19,35,37,53)       -141.0748         estimate D2E/DX2                !
 ! D258  D(36,35,37,39)        149.6561         estimate D2E/DX2                !
 ! D259  D(36,35,37,53)          5.222          estimate D2E/DX2                !
 ! D260  D(33,36,52,51)          9.0887         estimate D2E/DX2                !
 ! D261  D(33,36,52,53)        150.1133         estimate D2E/DX2                !
 ! D262  D(35,36,52,51)       -134.6905         estimate D2E/DX2                !
 ! D263  D(35,36,52,53)          6.3341         estimate D2E/DX2                !
 ! D264  D(35,37,39,38)         -1.7617         estimate D2E/DX2                !
 ! D265  D(35,37,39,57)       -141.0053         estimate D2E/DX2                !
 ! D266  D(53,37,39,38)        138.5399         estimate D2E/DX2                !
 ! D267  D(53,37,39,57)         -0.7037         estimate D2E/DX2                !
 ! D268  D(35,37,53,52)         -1.3849         estimate D2E/DX2                !
 ! D269  D(35,37,53,55)        140.4844         estimate D2E/DX2                !
 ! D270  D(39,37,53,52)       -145.5489         estimate D2E/DX2                !
 ! D271  D(39,37,53,55)         -3.6795         estimate D2E/DX2                !
 ! D272  D(21,38,39,37)         -2.0742         estimate D2E/DX2                !
 ! D273  D(21,38,39,57)        141.3977         estimate D2E/DX2                !
 ! D274  D(42,38,39,37)       -148.3664         estimate D2E/DX2                !
 ! D275  D(42,38,39,57)         -4.8945         estimate D2E/DX2                !
 ! D276  D(21,38,42,40)          1.8823         estimate D2E/DX2                !
 ! D277  D(21,38,42,58)       -140.9829         estimate D2E/DX2                !
 ! D278  D(39,38,42,40)        147.9623         estimate D2E/DX2                !
 ! D279  D(39,38,42,58)          5.097          estimate D2E/DX2                !
 ! D280  D(37,39,57,58)        146.0641         estimate D2E/DX2                !
 ! D281  D(37,39,57,60)          4.1742         estimate D2E/DX2                !
 ! D282  D(38,39,57,58)          2.8493         estimate D2E/DX2                !
 ! D283  D(38,39,57,60)       -139.0406         estimate D2E/DX2                !
 ! D284  D(23,40,41,24)         -0.5122         estimate D2E/DX2                !
 ! D285  D(23,40,41,43)       -141.3217         estimate D2E/DX2                !
 ! D286  D(42,40,41,24)        142.504          estimate D2E/DX2                !
 ! D287  D(42,40,41,43)          1.6944         estimate D2E/DX2                !
 ! D288  D(23,40,42,38)          2.6353         estimate D2E/DX2                !
 ! D289  D(23,40,42,58)        141.3994         estimate D2E/DX2                !
 ! D290  D(41,40,42,38)       -136.6517         estimate D2E/DX2                !
 ! D291  D(41,40,42,58)          2.1123         estimate D2E/DX2                !
 ! D292  D(24,41,43,46)         -0.8604         estimate D2E/DX2                !
 ! D293  D(24,41,43,59)       -138.5171         estimate D2E/DX2                !
 ! D294  D(40,41,43,46)        134.3547         estimate D2E/DX2                !
 ! D295  D(40,41,43,59)         -3.3021         estimate D2E/DX2                !
 ! D296  D(38,42,58,57)         -3.3719         estimate D2E/DX2                !
 ! D297  D(38,42,58,59)        138.7267         estimate D2E/DX2                !
 ! D298  D(40,42,58,57)       -146.3924         estimate D2E/DX2                !
 ! D299  D(40,42,58,59)         -4.2939         estimate D2E/DX2                !
 ! D300  D(41,43,46,44)          0.0484         estimate D2E/DX2                !
 ! D301  D(41,43,46,61)       -142.1547         estimate D2E/DX2                !
 ! D302  D(59,43,46,44)        142.2399         estimate D2E/DX2                !
 ! D303  D(59,43,46,61)          0.0368         estimate D2E/DX2                !
 ! D304  D(41,43,59,58)          1.1098         estimate D2E/DX2                !
 ! D305  D(41,43,59,65)        143.2255         estimate D2E/DX2                !
 ! D306  D(46,43,59,58)       -140.9461         estimate D2E/DX2                !
 ! D307  D(46,43,59,65)          1.1697         estimate D2E/DX2                !
 ! D308  D(26,44,45,28)          0.5464         estimate D2E/DX2                !
 ! D309  D(26,44,45,48)       -142.5137         estimate D2E/DX2                !
 ! D310  D(46,44,45,28)        141.3541         estimate D2E/DX2                !
 ! D311  D(46,44,45,48)         -1.706          estimate D2E/DX2                !
 ! D312  D(26,44,46,43)          0.7836         estimate D2E/DX2                !
 ! D313  D(26,44,46,61)        138.5257         estimate D2E/DX2                !
 ! D314  D(45,44,46,43)       -134.4723         estimate D2E/DX2                !
 ! D315  D(45,44,46,61)          3.2698         estimate D2E/DX2                !
 ! D316  D(28,45,48,47)         -2.473          estimate D2E/DX2                !
 ! D317  D(28,45,48,62)       -141.3744         estimate D2E/DX2                !
 ! D318  D(44,45,48,47)        136.8534         estimate D2E/DX2                !
 ! D319  D(44,45,48,62)         -2.048          estimate D2E/DX2                !
 ! D320  D(43,46,61,62)        141.0129         estimate D2E/DX2                !
 ! D321  D(43,46,61,65)         -1.229          estimate D2E/DX2                !
 ! D322  D(44,46,61,62)         -1.09           estimate D2E/DX2                !
 ! D323  D(44,46,61,65)       -143.332          estimate D2E/DX2                !
 ! D324  D(30,47,48,45)         -1.9346         estimate D2E/DX2                !
 ! D325  D(30,47,48,62)        140.976          estimate D2E/DX2                !
 ! D326  D(50,47,48,45)       -148.0036         estimate D2E/DX2                !
 ! D327  D(50,47,48,62)         -5.093          estimate D2E/DX2                !
 ! D328  D(30,47,50,49)          2.1896         estimate D2E/DX2                !
 ! D329  D(30,47,50,63)       -141.2548         estimate D2E/DX2                !
 ! D330  D(48,47,50,49)        148.3692         estimate D2E/DX2                !
 ! D331  D(48,47,50,63)          4.9247         estimate D2E/DX2                !
 ! D332  D(45,48,62,61)          4.2179         estimate D2E/DX2                !
 ! D333  D(45,48,62,63)        146.5152         estimate D2E/DX2                !
 ! D334  D(47,48,62,61)       -138.9684         estimate D2E/DX2                !
 ! D335  D(47,48,62,63)          3.3289         estimate D2E/DX2                !
 ! D336  D(31,49,50,47)          1.7023         estimate D2E/DX2                !
 ! D337  D(31,49,50,63)        140.8799         estimate D2E/DX2                !
 ! D338  D(54,49,50,47)       -138.4241         estimate D2E/DX2                !
 ! D339  D(54,49,50,63)          0.7535         estimate D2E/DX2                !
 ! D340  D(31,49,54,51)          1.4821         estimate D2E/DX2                !
 ! D341  D(31,49,54,56)       -140.3388         estimate D2E/DX2                !
 ! D342  D(50,49,54,51)        145.4243         estimate D2E/DX2                !
 ! D343  D(50,49,54,56)          3.6034         estimate D2E/DX2                !
 ! D344  D(47,50,63,62)         -2.9098         estimate D2E/DX2                !
 ! D345  D(47,50,63,64)        139.0122         estimate D2E/DX2                !
 ! D346  D(49,50,63,62)       -146.0728         estimate D2E/DX2                !
 ! D347  D(49,50,63,64)         -4.1508         estimate D2E/DX2                !
 ! D348  D(34,51,52,36)          0.0329         estimate D2E/DX2                !
 ! D349  D(34,51,52,53)       -136.2308         estimate D2E/DX2                !
 ! D350  D(54,51,52,36)        136.2138         estimate D2E/DX2                !
 ! D351  D(54,51,52,53)         -0.0499         estimate D2E/DX2                !
 ! D352  D(34,51,54,49)          2.9644         estimate D2E/DX2                !
 ! D353  D(34,51,54,56)        144.2269         estimate D2E/DX2                !
 ! D354  D(52,51,54,49)       -137.8736         estimate D2E/DX2                !
 ! D355  D(52,51,54,56)          3.3889         estimate D2E/DX2                !
 ! D356  D(36,52,53,37)         -3.0191         estimate D2E/DX2                !
 ! D357  D(36,52,53,55)       -144.2514         estimate D2E/DX2                !
 ! D358  D(51,52,53,37)        137.9001         estimate D2E/DX2                !
 ! D359  D(51,52,53,55)         -3.3322         estimate D2E/DX2                !
 ! D360  D(37,53,55,56)       -133.4965         estimate D2E/DX2                !
 ! D361  D(37,53,55,60)          4.5847         estimate D2E/DX2                !
 ! D362  D(52,53,55,56)          3.3659         estimate D2E/DX2                !
 ! D363  D(52,53,55,60)        141.4471         estimate D2E/DX2                !
 ! D364  D(49,54,56,55)        133.4285         estimate D2E/DX2                !
 ! D365  D(49,54,56,64)         -4.5726         estimate D2E/DX2                !
 ! D366  D(51,54,56,55)         -3.3543         estimate D2E/DX2                !
 ! D367  D(51,54,56,64)       -141.3554         estimate D2E/DX2                !
 ! D368  D(53,55,56,54)         -0.0259         estimate D2E/DX2                !
 ! D369  D(53,55,56,64)        142.6311         estimate D2E/DX2                !
 ! D370  D(60,55,56,54)       -142.6705         estimate D2E/DX2                !
 ! D371  D(60,55,56,64)         -0.0135         estimate D2E/DX2                !
 ! D372  D(53,55,60,57)         -1.1321         estimate D2E/DX2                !
 ! D373  D(53,55,60,66)       -143.5038         estimate D2E/DX2                !
 ! D374  D(56,55,60,57)        141.2014         estimate D2E/DX2                !
 ! D375  D(56,55,60,66)         -1.1703         estimate D2E/DX2                !
 ! D376  D(54,56,64,63)          1.1938         estimate D2E/DX2                !
 ! D377  D(54,56,64,66)        143.6028         estimate D2E/DX2                !
 ! D378  D(55,56,64,63)       -141.2167         estimate D2E/DX2                !
 ! D379  D(55,56,64,66)          1.1923         estimate D2E/DX2                !
 ! D380  D(39,57,58,42)          0.3301         estimate D2E/DX2                !
 ! D381  D(39,57,58,59)       -141.4491         estimate D2E/DX2                !
 ! D382  D(60,57,58,42)        141.7939         estimate D2E/DX2                !
 ! D383  D(60,57,58,59)          0.0148         estimate D2E/DX2                !
 ! D384  D(39,57,60,55)         -3.2623         estimate D2E/DX2                !
 ! D385  D(39,57,60,66)        134.8822         estimate D2E/DX2                !
 ! D386  D(58,57,60,55)       -140.3308         estimate D2E/DX2                !
 ! D387  D(58,57,60,66)         -2.1862         estimate D2E/DX2                !
 ! D388  D(42,58,59,43)          2.6977         estimate D2E/DX2                !
 ! D389  D(42,58,59,65)       -135.1961         estimate D2E/DX2                !
 ! D390  D(57,58,59,43)        140.0803         estimate D2E/DX2                !
 ! D391  D(57,58,59,65)          2.1865         estimate D2E/DX2                !
 ! D392  D(43,59,65,61)         -1.9287         estimate D2E/DX2                !
 ! D393  D(43,59,65,66)       -144.7076         estimate D2E/DX2                !
 ! D394  D(58,59,65,61)        140.5594         estimate D2E/DX2                !
 ! D395  D(58,59,65,66)         -2.2195         estimate D2E/DX2                !
 ! D396  D(55,60,66,64)          1.8995         estimate D2E/DX2                !
 ! D397  D(55,60,66,65)        144.8031         estimate D2E/DX2                !
 ! D398  D(57,60,66,64)       -140.7545         estimate D2E/DX2                !
 ! D399  D(57,60,66,65)          2.1491         estimate D2E/DX2                !
 ! D400  D(46,61,62,48)         -2.6684         estimate D2E/DX2                !
 ! D401  D(46,61,62,63)       -140.1991         estimate D2E/DX2                !
 ! D402  D(65,61,62,48)        135.3255         estimate D2E/DX2                !
 ! D403  D(65,61,62,63)         -2.2052         estimate D2E/DX2                !
 ! D404  D(46,61,65,59)          1.9504         estimate D2E/DX2                !
 ! D405  D(46,61,65,66)        144.8082         estimate D2E/DX2                !
 ! D406  D(62,61,65,59)       -140.662          estimate D2E/DX2                !
 ! D407  D(62,61,65,66)          2.1959         estimate D2E/DX2                !
 ! D408  D(48,62,63,50)         -0.2651         estimate D2E/DX2                !
 ! D409  D(48,62,63,64)       -141.9242         estimate D2E/DX2                !
 ! D410  D(61,62,63,50)        141.6721         estimate D2E/DX2                !
 ! D411  D(61,62,63,64)          0.013          estimate D2E/DX2                !
 ! D412  D(50,63,64,56)          3.1771         estimate D2E/DX2                !
 ! D413  D(50,63,64,66)       -135.0323         estimate D2E/DX2                !
 ! D414  D(62,63,64,56)        140.3919         estimate D2E/DX2                !
 ! D415  D(62,63,64,66)          2.1825         estimate D2E/DX2                !
 ! D416  D(56,64,66,60)         -1.9115         estimate D2E/DX2                !
 ! D417  D(56,64,66,65)       -144.7694         estimate D2E/DX2                !
 ! D418  D(63,64,66,60)        140.6711         estimate D2E/DX2                !
 ! D419  D(63,64,66,65)         -2.1868         estimate D2E/DX2                !
 ! D420  D(59,65,66,60)          0.0548         estimate D2E/DX2                !
 ! D421  D(59,65,66,64)        138.3466         estimate D2E/DX2                !
 ! D422  D(61,65,66,60)       -138.2986         estimate D2E/DX2                !
 ! D423  D(61,65,66,64)         -0.0068         estimate D2E/DX2                !
 --------------------------------------------------------------------------------
 Trust Radius=3.00D-01 FncErr=1.00D-07 GrdErr=1.00D-06 EigMax=2.50D+02 EigMin=1.00D-04
 Number of steps in this run=    420 maximum allowed number of steps=    420.
 GradGradGradGradGradGradGradGradGradGradGradGradGradGradGradGradGradGrad

 Leave Link  103 at Sat Jul 16 06:19:23 2022, MaxMem=  1342177280 cpu:               1.4 elap:               0.0
 (Enter /home/mkliu/g16/l202.exe)
 Stoichiometry    C66Cl4
 Framework group  C1[X(C66Cl4)]
 Deg. of freedom   204
 Full point group                 C1      NOp   1
 Largest Abelian subgroup         C1      NOp   1
 Largest concise Abelian subgroup C1      NOp   1
                         Standard orientation:                         
 ---------------------------------------------------------------------
 Center     Atomic      Atomic             Coordinates (Angstroms)
 Number     Number       Type             X           Y           Z
 ---------------------------------------------------------------------
      1          6           0       -3.595958   -0.798216   -0.784402
      2          6           0       -3.591559   -0.792917    0.792518
      3          6           0       -3.365561    0.676788    1.242064
      4          6           0       -3.367613    0.667677   -1.248261
      5          6           0       -3.014409    1.375418   -0.005730
      6          6           0       -2.149891    0.650936   -2.127709
      7          6           0       -2.399591   -1.486573   -1.356534
      8          6           0       -1.710682   -0.661872   -2.287251
      9          6           0       -1.672882   -2.485484   -0.717021
     10          6           0       -2.393067   -1.470966    1.370754
     11          6           0       -1.669607   -2.477430    0.741791
     12          6           0       -2.146960    0.673243    2.122146
     13          6           0       -1.704428   -0.636689    2.293116
     14          6           0       -1.217235    1.721691    2.171465
     15          6           0       -2.129301    2.369130   -0.010164
     16          6           0       -1.346161    2.714387    1.164294
     17          6           0       -1.220401    1.697612   -2.185563
     18          6           0       -1.347332    2.701283   -1.187934
     19          6           0        0.087025    1.459342   -2.769630
     20          6           0       -0.436093   -0.957579   -2.819033
     21          6           0        0.462164    0.119241   -3.149486
     22          6           0       -0.506071   -2.928105   -1.375234
[...]
 Alpha virt. eigenvalues --    0.97026   0.97648   0.97824   0.98478   0.99317
 Alpha virt. eigenvalues --    0.99783   1.00234   1.00259   1.00453   1.00686
 Alpha virt. eigenvalues --    1.01957   1.02452   1.02726   1.03299   1.03533
 Alpha virt. eigenvalues --    1.03850   1.04589   1.05393   1.05462   1.05584
 Alpha virt. eigenvalues --    1.05640   1.05947   1.05977   1.06129   1.06484
 Alpha virt. eigenvalues --    1.07150   1.07505   1.07571   1.07990   1.08255
 Alpha virt. eigenvalues --    1.08531   1.08634   1.08797   1.09783   1.09950
 Alpha virt. eigenvalues --    1.10146   1.10417   1.11076   1.11252   1.11676
 Alpha virt. eigenvalues --    1.11810   1.11910   1.12731   1.12821   1.13411
 Alpha virt. eigenvalues --    1.14174   1.14664   1.14883   1.15421   1.15951
 Alpha virt. eigenvalues --    1.16580   1.16882   1.17358   1.18080   1.18587
 Alpha virt. eigenvalues --    1.18708   1.19095   1.19241   1.19984   1.19997
 Alpha virt. eigenvalues --    1.20426   1.20744   1.20975   1.21409   1.22346
 Alpha virt. eigenvalues --    1.22596   1.22830   1.23479   1.23530   1.24061
 Alpha virt. eigenvalues --    1.24360   1.24625   1.25647   1.26149   1.26832
 Alpha virt. eigenvalues --    1.26917   1.27213   1.27832   1.28003   1.28032
 Alpha virt. eigenvalues --    1.28826   1.29119   1.29836   1.30527   1.31196
 Alpha virt. eigenvalues --    1.31399   1.32433   1.32471   1.32979   1.33061
 Alpha virt. eigenvalues --    1.33457   1.33754   1.34087   1.34318   1.34638
 Alpha virt. eigenvalues --    1.34754   1.35229   1.35790   1.35849   1.36099
 Alpha virt. eigenvalues --    1.36183   1.36692   1.37198   1.37898   1.37994
 Alpha virt. eigenvalues --    1.38354   1.38570   1.39173   1.39181   1.39471
 Alpha virt. eigenvalues --    1.39799   1.40347   1.40422   1.40799   1.41086
 Alpha virt. eigenvalues --    1.41247   1.41655   1.42044   1.42496   1.42620
 Alpha virt. eigenvalues --    1.42950   1.43819   1.44084   1.44089   1.44464
 Alpha virt. eigenvalues --    1.44690   1.44851   1.44941   1.45300   1.45357
 Alpha virt. eigenvalues --    1.45780   1.46052   1.46249   1.46476   1.46661
 Alpha virt. eigenvalues --    1.46763   1.47316   1.47675   1.47796   1.48055
 Alpha virt. eigenvalues --    1.48187   1.48360   1.48687   1.48734   1.49004
 Alpha virt. eigenvalues --    1.49495   1.49943   1.50284   1.50290   1.50463
 Alpha virt. eigenvalues --    1.51033   1.51362   1.51781   1.51832   1.51982
 Alpha virt. eigenvalues --    1.52455   1.52723   1.52988   1.53092   1.53633
 Alpha virt. eigenvalues --    1.53967   1.54323   1.54768   1.54906   1.55066
 Alpha virt. eigenvalues --    1.56113   1.56242   1.56792   1.56923   1.57144
 Alpha virt. eigenvalues --    1.57956   1.58124   1.58159   1.58254   1.58697
 Alpha virt. eigenvalues --    1.59977   1.60277   1.60606   1.60669   1.60987
 Alpha virt. eigenvalues --    1.61656   1.62644   1.62787   1.63144   1.63812
 Alpha virt. eigenvalues --    1.64479   1.64805   1.64930   1.64967   1.65966
 Alpha virt. eigenvalues --    1.66170   1.66372   1.66793   1.67366   1.67627
 Alpha virt. eigenvalues --    1.68114   1.68353   1.68489   1.69096   1.69358
 Alpha virt. eigenvalues --    1.69830   1.70075   1.70553   1.70717   1.71341
 Alpha virt. eigenvalues --    1.71638   1.72129   1.72236   1.72867   1.73012
 Alpha virt. eigenvalues --    1.73394   1.74659   1.74773   1.75422   1.75585
 Alpha virt. eigenvalues --    1.75934   1.76087   1.76407   1.76795   1.77039
 Alpha virt. eigenvalues --    1.77241   1.77454   1.77693   1.78166   1.78175
 Alpha virt. eigenvalues --    1.78558   1.79630   1.80144   1.80234   1.80547
 Alpha virt. eigenvalues --    1.80833   1.81050   1.81146   1.82704   1.82894
 Alpha virt. eigenvalues --    1.83803   1.83939   1.84463   1.85686   1.86595
 Alpha virt. eigenvalues --    1.86746   1.87316   1.87740   1.88145   1.88832
 Alpha virt. eigenvalues --    1.89438   1.89904   1.90392   1.90531   1.91028
 Alpha virt. eigenvalues --    1.91343   1.92439   1.92697   1.93066   1.93713
 Alpha virt. eigenvalues --    1.94207   1.94658   1.95364   1.95566   1.95663
 Alpha virt. eigenvalues --    1.96245   1.96579   1.97307   1.97966   1.99512
 Alpha virt. eigenvalues --    1.99698   1.99820   2.00054   2.00365   2.01096
 Alpha virt. eigenvalues --    2.01115   2.01554   2.01917   2.01968   2.02263
 Alpha virt. eigenvalues --    2.02657   2.02967   2.03311   2.03466   2.03748
 Alpha virt. eigenvalues --    2.04605   2.05583   2.06102   2.06349   2.07124
 Alpha virt. eigenvalues --    2.07332   2.08221   2.08653   2.09025   2.09719
 Alpha virt. eigenvalues --    2.10218   2.10656   2.10743   2.11892   2.12075
 Alpha virt. eigenvalues --    2.12421   2.12926   2.12967   2.14038   2.14352
 Alpha virt. eigenvalues --    2.14436   2.14937   2.15411   2.16262   2.17311
 Alpha virt. eigenvalues --    2.17702   2.17948   2.18586   2.19260   2.19497
 Alpha virt. eigenvalues --    2.20199   2.20208   2.20709   2.21324   2.22400
 Alpha virt. eigenvalues --    2.22419   2.23111   2.23406   2.23962   2.24366
 Alpha virt. eigenvalues --    2.24561   2.24966   2.25578   2.25798   2.26169
 Alpha virt. eigenvalues --    2.26288   2.27057   2.28397   2.28433   2.28618
 Alpha virt. eigenvalues --    2.28955   2.29391   2.29624   2.30722   2.31105
 Alpha virt. eigenvalues --    2.31666   2.31825   2.32728   2.33200   2.33414
 Alpha virt. eigenvalues --    2.33561   2.34410   2.34947   2.35640   2.36060
 Alpha virt. eigenvalues --    2.36873   2.36990   2.38291   2.38575   2.38854
 Alpha virt. eigenvalues --    2.38904   2.39592   2.40571   2.40576   2.41150
 Alpha virt. eigenvalues --    2.41580   2.41829   2.42518   2.42932   2.43120
 Alpha virt. eigenvalues --    2.43231   2.43781   2.44147   2.44658   2.45337
 Alpha virt. eigenvalues --    2.45601   2.46369   2.46783   2.47727   2.49002
 Alpha virt. eigenvalues --    2.49097   2.49906   2.50196   2.50445   2.51161
 Alpha virt. eigenvalues --    2.51606   2.51907   2.53033   2.53322   2.53787
 Alpha virt. eigenvalues --    2.54409   2.54945   2.55245   2.55433   2.55642
 Alpha virt. eigenvalues --    2.56603   2.56603   2.57202   2.57217   2.57986
 Alpha virt. eigenvalues --    2.58356   2.58707   2.59186   2.59553   2.60160
 Alpha virt. eigenvalues --    2.60577   2.61168   2.61565   2.61566   2.62791
 Alpha virt. eigenvalues --    2.62849   2.63011   2.63308   2.63957   2.64013
 Alpha virt. eigenvalues --    2.64197   2.66275   2.67619   2.69274   2.69407
 Alpha virt. eigenvalues --    2.69857   2.70708   2.71583   2.71680   2.71929
 Alpha virt. eigenvalues --    2.73418   2.74774   2.75675   2.76363   2.76421
 Alpha virt. eigenvalues --    2.78851   2.79327   2.79706   2.80421   2.81176
 Alpha virt. eigenvalues --    2.82887   2.83350   2.84048   2.84507   2.84951
 Alpha virt. eigenvalues --    2.85839   2.86404   2.86960   2.87208   2.87786
 Alpha virt. eigenvalues --    2.89699   2.90573   2.91196   2.92163   2.92501
 Alpha virt. eigenvalues --    2.92730   2.93696   2.93795   2.93953   2.94805
 Alpha virt. eigenvalues --    2.95498   2.95751   2.96362   2.96608   2.97144
 Alpha virt. eigenvalues --    2.97377   2.97977   2.98255   2.98694   2.98876
 Alpha virt. eigenvalues --    2.99432   2.99591   2.99753   2.99946   3.00344
 Alpha virt. eigenvalues --    3.01462   3.01793   3.01855   3.02447   3.02683
 Alpha virt. eigenvalues --    3.03028   3.03037   3.03294   3.03394   3.03529
 Alpha virt. eigenvalues --    3.03953   3.04102   3.05037   3.05287   3.05585
 Alpha virt. eigenvalues --    3.05741   3.06347   3.06433   3.07282   3.07632
 Alpha virt. eigenvalues --    3.07900   3.08431   3.08877   3.09074   3.09604
 Alpha virt. eigenvalues --    3.10023   3.10178   3.10553   3.11083   3.11831
 Alpha virt. eigenvalues --    3.11949   3.12458   3.12517   3.12809   3.13039
 Alpha virt. eigenvalues --    3.13406   3.13448   3.13745   3.14053   3.14271
 Alpha virt. eigenvalues --    3.14455   3.14636   3.15898   3.16188   3.17338
 Alpha virt. eigenvalues --    3.17570   3.18006   3.18149   3.18563   3.18818
 Alpha virt. eigenvalues --    3.19013   3.19159   3.20663   3.21423   3.23770
 Alpha virt. eigenvalues --    3.24392   3.26289   3.26660   3.30197   3.34286
 Alpha virt. eigenvalues --    3.37553   3.40418   3.41351   3.42596   3.43103
 Alpha virt. eigenvalues --    3.44099   3.46124   3.47522   3.47936   3.48407
 Alpha virt. eigenvalues --    3.49260   3.51233   3.51306   3.52173   3.52316
 Alpha virt. eigenvalues --    3.52758   3.53950   3.54689   3.56230   3.57023
 Alpha virt. eigenvalues --    3.57635   3.57861   3.57890   3.58899   3.60952
 Alpha virt. eigenvalues --    3.62473   3.63415   3.63483   3.64478   3.64838
 Alpha virt. eigenvalues --    3.66035   3.67475   3.67971   3.68931   3.70014
 Alpha virt. eigenvalues --    3.70238   3.71346   3.72514   3.73043   3.73352
 Alpha virt. eigenvalues --    3.75612   3.76028   3.76628   3.79586   3.80357
 Alpha virt. eigenvalues --    3.80680   3.82238   3.82938   3.84607   3.84647
 Alpha virt. eigenvalues --    3.85313   3.86276   3.86954   3.87993   3.88106
 Alpha virt. eigenvalues --    3.88923   3.89075   3.89161   3.89885   3.90449
 Alpha virt. eigenvalues --    3.91566   3.92894   3.95321   4.00714   4.05486
 Alpha virt. eigenvalues --    4.19709   4.22447   4.22526   4.25014   4.27228
 Alpha virt. eigenvalues --    4.28049   4.35591   4.35785   4.36193   4.38458
 Alpha virt. eigenvalues --    4.39161   4.44212   4.47434   4.51320   4.57860
 Alpha virt. eigenvalues --    4.59343   4.59633   4.62236   4.63929   4.65369
 Alpha virt. eigenvalues --    4.67724   4.68794   4.72984   4.73405   4.79795
 Alpha virt. eigenvalues --    4.84077   4.85083   4.92775   4.92850   4.97781
 Alpha virt. eigenvalues --    5.00260   5.02421   5.02786   5.04704   9.48534
 Alpha virt. eigenvalues --    9.62927   9.65015   9.70444  22.99172  23.20330
 Alpha virt. eigenvalues --   23.20360  23.22825  23.43888  23.45397  23.47912
 Alpha virt. eigenvalues --   23.48274  23.49247  23.62149  23.66748  23.67038
 Alpha virt. eigenvalues --   23.67825  23.69136  23.71593  23.74214  23.77638
 Alpha virt. eigenvalues --   23.78249  23.78273  23.81621  23.81984  23.83369
 Alpha virt. eigenvalues --   23.83476  23.86146  23.87189  23.87921  23.89727
 Alpha virt. eigenvalues --   23.90850  23.90889  23.91473  23.92578  23.93807
 Alpha virt. eigenvalues --   23.93971  23.94471  23.94965  23.95049  23.95694
 Alpha virt. eigenvalues --   23.96451  23.96852  23.96917  23.97559  23.97814
 Alpha virt. eigenvalues --   23.98640  23.98851  24.01218  24.02208  24.03915
 Alpha virt. eigenvalues --   24.04787  24.05138  24.05203  24.06311  24.07135
 Alpha virt. eigenvalues --   24.07637  24.07919  24.09075  24.09088  24.09342
 Alpha virt. eigenvalues --   24.09678  24.10144  24.10226  24.10768  24.10924
 Alpha virt. eigenvalues --   24.12358  24.13374  24.14118  24.14512  25.50213
 Alpha virt. eigenvalues --   25.58364  25.62845  25.75906  25.80448  25.85462
 Alpha virt. eigenvalues --   25.85929  25.92567  26.19719  26.41142  26.43213
 Alpha virt. eigenvalues --   26.71940 215.42787 215.59296 215.61591 215.68051
          Condensed to atoms (all electrons):
 Mulliken charges:
               1
     1  C   -0.263196
     2  C   -0.263215
     3  C   -0.420472
     4  C   -0.420476
     5  C    0.280999
     6  C    0.139359
     7  C    0.064845
     8  C    0.062826
     9  C    0.068751
    10  C    0.064899
    11  C    0.068685
    12  C    0.139354
    13  C    0.062807
    14  C    0.043638
    15  C    0.043792
    16  C    0.006418
    17  C    0.043616
    18  C    0.006414
    19  C    0.011388
    20  C    0.019710
    21  C    0.032713
    22  C   -0.017062
    23  C    0.005896
    24  C    0.007634
    25  C   -0.017035
    26  C    0.007630
    27  C    0.019743
    28  C    0.005873
    29  C    0.011372
    30  C    0.032713
    31  C    0.004805
    32  C    0.004121
    33  C    0.004112
    34  C   -0.012833
    35  C    0.004790
    36  C   -0.012826
    37  C   -0.003380
    38  C   -0.009226
    39  C   -0.002853
    40  C   -0.001699
    41  C   -0.003398
    42  C    0.000752
    43  C    0.001155
    44  C   -0.003406
    45  C   -0.001684
    46  C    0.001158
    47  C   -0.009227
    48  C    0.000741
    49  C   -0.003384
    50  C   -0.002851
    51  C    0.009893
    52  C    0.009885
    53  C   -0.000810
    54  C   -0.000811
    55  C   -0.002575
    56  C   -0.002572
    57  C   -0.001141
    58  C   -0.001804
    59  C    0.002510
    60  C    0.004349
    61  C    0.002509
    62  C   -0.001796
    63  C   -0.001144
    64  C    0.004349
    65  C    0.002641
    66  C   -0.000985
    67  Cl   0.077265
    68  Cl   0.077275
    69  Cl   0.009241
    70  Cl   0.009229
 Sum of Mulliken charges =  -0.00000
 Mulliken charges with hydrogens summed into heavy atoms:
               1
     1  C   -0.263196
     2  C   -0.263215
     3  C   -0.420472
     4  C   -0.420476
     5  C    0.280999
     6  C    0.139359
     7  C    0.064845
     8  C    0.062826
     9  C    0.068751
    10  C    0.064899
    11  C    0.068685
    12  C    0.139354
    13  C    0.062807
    14  C    0.043638
    15  C    0.043792
    16  C    0.006418
    17  C    0.043616
    18  C    0.006414
    19  C    0.011388
    20  C    0.019710
    21  C    0.032713
    22  C   -0.017062
    23  C    0.005896
    24  C    0.007634
    25  C   -0.017035
    26  C    0.007630
    27  C    0.019743
    28  C    0.005873
    29  C    0.011372
    30  C    0.032713
    31  C    0.004805
    32  C    0.004121
    33  C    0.004112
    34  C   -0.012833
    35  C    0.004790
    36  C   -0.012826
    37  C   -0.003380
    38  C   -0.009226
    39  C   -0.002853
    40  C   -0.001699
    41  C   -0.003398
    42  C    0.000752
    43  C    0.001155
    44  C   -0.003406
    45  C   -0.001684
    46  C    0.001158
    47  C   -0.009227
    48  C    0.000741
    49  C   -0.003384
    50  C   -0.002851
    51  C    0.009893
    52  C    0.009885
    53  C   -0.000810
    54  C   -0.000811
    55  C   -0.002575
    56  C   -0.002572
    57  C   -0.001141
    58  C   -0.001804
    59  C    0.002510
    60  C    0.004349
    61  C    0.002509
    62  C   -0.001796
    63  C   -0.001144
    64  C    0.004349
    65  C    0.002641
    66  C   -0.000985
    67  Cl   0.077265
    68  Cl   0.077275
    69  Cl   0.009241
    70  Cl   0.009229
 Electronic spatial extent (au):  <R**2>=          29084.4861
 Charge=             -0.0000 electrons
 Dipole moment (field-independent basis, Debye):
    X=              4.7167    Y=             -0.8384    Z=              0.0005  Tot=              4.7906
 Quadrupole moment (field-independent basis, Debye-Ang):
   XX=           -445.6543   YY=           -417.2184   ZZ=           -419.7723
   XY=              5.3532   XZ=             -0.0011   YZ=             -0.0000
 Traceless Quadrupole moment (field-independent basis, Debye-Ang):
   XX=            -18.1060   YY=             10.3299   ZZ=              7.7761
   XY=              5.3532   XZ=             -0.0011   YZ=             -0.0000
 Octapole moment (field-independent basis, Debye-Ang**2):
  XXX=            -32.1335  YYY=             -0.9030  ZZZ=              0.0044  XYY=            -42.3439
  XXY=            -26.0056  XXZ=              0.0060  XZZ=            -34.9134  YZZ=             -6.8307
  YYZ=              0.0016  XYZ=             -0.0000
 Hexadecapole moment (field-independent basis, Debye-Ang**3):
 XXXX=         -22770.2924 YYYY=         -11150.3418 ZZZZ=          -9734.0407 XXXY=            148.0288
 XXXZ=             -0.0302 YYYX=             52.9166 YYYZ=              0.0047 ZZZX=             -0.0088
 ZZZY=              0.0043 XXYY=          -5614.2915 XXZZ=          -5403.7592 YYZZ=          -3485.3887
 XXYZ=              0.0015 YYXZ=             -0.0026 ZZXY=             32.6464
 N-N= 1.229364674020D+04 E-N=-3.479086618698D+04  KE= 4.341735343694D+03
 No NMR shielding tensors so no spin-rotation constants.
 Leave Link  601 at Sat Jul 16 07:32:40 2022, MaxMem=  1342177280 cpu:              65.4 elap:               1.6
 (Enter /home/mkliu/g16/l9999.exe)
 1\1\GINC-NODE04\FOpt\RB3LYP\6-311G(d,p)\C66Cl4\MKLIU\16-Jul-2022\0\\#P
  opt b3lyp/6-311G(d, p) empiricaldispersion=GD3\\force\\0,1\C,-1.34049
 87488,1.8870301284,-3.9621970524\C,0.2151799312,2.2237661456,-4.009128
 6798\C,0.9658241782,0.8580992397,-4.3009079271\C,-1.4753133638,0.32973
 48241,-4.2272937756\C,-0.0870613933,-0.1721085449,-4.2013461696\C,-2.2
 156200232,-0.1941348865,-3.0232121298\C,-1.9096593542,2.0360609015,-2.
 5733580309\C,-2.6103213295,0.8752449853,-2.1839801725\C,-1.4365590138,
 2.9329194763,-1.593180568\C,0.7508705157,2.6119355251,-2.6536439121\C,
 0.006792596,3.2453010171,-1.6367242924\C,1.9244147569,0.7019418561,-3.
 148074728\C,1.889670414,1.8492390534,-2.3197293041\C,2.2794810184,-0.5
 416885128,-2.5880834029\C,0.1895687328,-1.369818217,-3.6252363631\C,1.
 4607157252,-1.6497599852,-2.9826789222\C,-1.9922368035,-1.4662746231,-
 2.4592217958\C,-0.813041506,-2.1419067213,-2.9140856377\C,-2.486667246
 2,-1.7501867866,-1.109424437\C,-3.0603870335,0.6675967132,-0.847838840
 1\C,-3.0840195032,-0.6793793124,-0.3150819783\C,-2.0577968687,2.863377
 4098,-0.3358456586\C,-2.9258799914,1.7772106135,0.0159179801\C,-1.3893
 048736,3.2910414238,0.8963454946\C,0.6725506238,3.4543087149,-0.418220
 0714\C,-0.040725325,3.5829082426,0.8556514869\C,2.4614601073,1.8627327
 473,-1.0144307415\C,1.930502919,2.8282938212,-0.1305925239\C,2.9238992
 192,-0.5791500499,-1.2726511727\C,3.070133522,0.6525994204,-0.50075398
 66\C,2.9073429119,-1.8064703095,-0.5644490053\C,1.2877247557,-2.770224
 1753,-2.1196231586\C,-0.1431757585,-3.0799235128,-2.0764475803\C,2.041
 6307733,-2.8864377493,-0.972866932\C,-1.9237489915,-2.8520671147,-0.41
 86982007\C,-0.7143098719,-3.4829153096,-0.8897240906\C,-1.9036484242,-
 2.9182733035,1.021369391\C,-3.1308692322,-0.8162802772,1.0989420867\C,
 -2.519588684,-1.9269597213,1.7684403657\C,-2.8765307682,1.6028616646,1
 .4448555901\C,-1.9301137031,2.5430536417,2.0035183707\C,-3.0013687804,
 0.3301072716,1.9742706711\C,-1.1098966126,2.1481780713,3.0655661329\C,
 0.823567984,3.1390275071,1.92043049\C,2.0399731569,2.6669631996,1.2965
 241718\C,0.3024218303,2.4538551282,3.022954814\C,3.2506918195,0.564917
 2739,0.9064101671\C,2.7097531344,1.5661978716,1.8019588677\C,2.9993460
 107,-1.8571136415,0.8734561473\C,3.1925799713,-0.6906454062,1.59610897
 42\C,1.475802859,-3.4915109781,0.2386676737\C,0.1196902901,-3.78501186
 62,0.2795850002\C,-0.6430646416,-3.4856264028,1.4611631408\C,2.1133795
 045,-2.8890471636,1.3780097841\C,-0.0143382775,-2.9734654285,2.6024281
 375\C,1.3960749545,-2.6682011726,2.5598756185\C,-1.914575891,-1.458280
 5814,3.0051564523\C,-2.2178644849,-0.0529786204,3.1341731005\C,-1.2669
 141474,0.831382572,3.6469854903\C,-0.6709890544,-1.9499513547,3.392983
 8937\C,1.0226359548,1.3269141506,3.5778879885\C,2.2227396184,0.9081254
 628,3.0001859134\C,2.5202789422,-0.4984152671,2.8713545757\C,1.6155222
 664,-1.4550646677,3.3239967247\C,0.0513212154,0.3314418779,3.997678224
 4\C,0.3410458196,-1.0246360363,3.8721926245\Cl,-2.3659433077,2.9230159
 155,-5.0290960609\Cl,0.6576327252,3.5774097614,-5.1203704384\Cl,1.8878
 982893,0.7619424431,-5.9063753091\Cl,-2.3660004489,-0.1586914658,-5.77
 81481512\\Version=ES64L-G16RevA.03\State=1-A\HF=-4356.2802704\RMSD=9.1
 86e-09\RMSF=5.869e-05\Dipole=0.1077148,-0.2366562,1.8667431\Quadrupole
 =5.8294237,7.9533404,-13.7827642,-0.387437,-1.1834628,2.7378517\PG=C01
  [X(C66Cl4)]\\@


 BE NOT THE FIRST BY WHOM THE NEW ARE TRIED,
 NOR YET THE THE LAST TO LAY THE OLD ASIDE.

                          -- ALEXANDER POPE
 Job cpu time:       2 days 10 hours 12 minutes 27.3 seconds.
 Elapsed time:       0 days  1 hours 12 minutes 56.2 seconds.
 File lengths (MBytes):  RWF=   1023 Int=      0 D2E=      0 Chk=    126 Scr=      1
 Normal termination of Gaussian 16 at Sat Jul 16 07:32:43 2022.
