 Entering Gaussian System, Link 0=g16
 Input=epy6ucy35ksu8_addon_9.gjf
 Output=epy6ucy35ksu8_addon_9.log
 Initial command:
 /home/mkliu/g16/l1.exe "/data/scratch/Gau-60070.inp" -scrdir="/data/scratch/"
 Entering Link 1 = /home/mkliu/g16/l1.exe PID=     60071.
  
 Copyright (c) 1988,1990,1992,1993,1995,1998,2003,2009,2016,
            Gaussian, Inc.  All Rights Reserved.
  
 This is part of the Gaussian(R) 16 program.  It is based on
 the Gaussian(R) 09 system (copyright 2009, Gaussian, Inc.),
 the Gaussian(R) 03 system (copyright 2003, Gaussian, Inc.),
 the Gaussian(R) 98 system (copyright 1998, Gaussian, Inc.),
 the Gaussian(R) 94 system (copyright 1995, Gaussian, Inc.),
 the Gaussian 92(TM) system (copyright 1992, Gaussian, Inc.),
 the Gaussian 90(TM) system (copyright 1990, Gaussian, Inc.),
 the Gaussian 88(TM) system (copyright 1988, Gaussian, Inc.),
 the Gaussian 86(TM) system (copyright 1986, Carnegie Mellon
 University), and the Gaussian 82(TM) system (copyright 1983,
 Carnegie Mellon University). Gaussian is a federally registered
 trademark of Gaussian, Inc.
  
 This software contains proprietary and confidential information,
 including trade secrets, belonging to Gaussian, Inc.
  
 This software is provided under written license and may be
 used, copied, transmitted, or stored only in accord with that
 written license.
  
 The following legend is applicable only to US Government
 contracts under FAR:
  
                    RESTRICTED RIGHTS LEGEND
  
 Use, reproduction and disclosure by the US Government is
 subject to restrictions as set forth in subparagraphs (a)
 and (c) of the Commercial Computer Software - Restricted
 Rights clause in FAR 52.227-19.
  
 Gaussian, Inc.
 340 Quinnipiac St., Bldg. 40, Wallingford CT 06492
  
  
 ---------------------------------------------------------------
 Warning -- This program may not be used in any manner that
 competes with the business of Gaussian, Inc. or will provide
 assistance to any competitor of Gaussian, Inc.  The licensee
 of this program is prohibited from giving any competitor of
 Gaussian, Inc. access to this program.  By using this program,
 the user acknowledges that Gaussian, Inc. is engaged in the
 business of creating and licensing software in the field of
 computational chemistry and represents and warrants to the
 licensee that it is not a competitor of Gaussian, Inc. and that
 it will not use this program in any manner prohibited above.
 ---------------------------------------------------------------
  

 Cite this work as:
 Gaussian 16, Revision A.03,
 M. J. Frisch, G. W. Trucks, H. B. Schlegel, G. E. Scuseria, 
 M. A. Robb, J. R. Cheeseman, G. Scalmani, V. Barone, 
 G. A. Petersson, H. Nakatsuji, X. Li, M. Caricato, A. V. Marenich, 
 J. Bloino, B. G. Janesko, R. Gomperts, B. Mennucci, H. P. Hratchian, 
 J. V. Ortiz, A. F. Izmaylov, J. L. Sonnenberg, D. Williams-Young, 
 F. Ding, F. Lipparini, F. Egidi, J. Goings, B. Peng, A. Petrone, 
 T. Henderson, D. Ranasinghe, V. G. Zakrzewski, J. Gao, N. Rega, 
 G. Zheng, W. Liang, M. Hada, M. Ehara, K. Toyota, R. Fukuda, 
 J. Hasegawa, M. Ishida, T. Nakajima, Y. Honda, O. Kitao, H. Nakai, 
 T. Vreven, K. Throssell, J. A. Montgomery, Jr., J. E. Peralta, 
 F. Ogliaro, M. J. Bearpark, J. J. Heyd, E. N. Brothers, K. N. Kudin, 
 V. N. Staroverov, T. A. Keith, R. Kobayashi, J. Normand, 
 K. Raghavachari, A. P. Rendell, J. C. Burant, S. S. Iyengar, 
 J. Tomasi, M. Cossi, J. M. Millam, M. Klene, C. Adamo, R. Cammi, 
 J. W. Ochterski, R. L. Martin, K. Morokuma, O. Farkas, 
 J. B. Foresman, and D. J. Fox, Gaussian, Inc., Wallingford CT, 2016.
 
 ******************************************
 Gaussian 16:  ES64L-G16RevA.03 25-Dec-2016
                16-Jul-2022 
 ******************************************
 %mem=10GB
 %chk=epy6ucy35ksu8_addon_9.chk
 %nprocshared=48
 Will use up to   48 processors via shared memory.
 -------------------------------------------------
 #P opt b3lyp/6-311G(d, p) empiricaldispersion=GD3
 -------------------------------------------------
 1/18=20,19=15,26=3,38=1/1,3;
 2/9=110,12=2,17=6,18=5,40=1/2;
 3/5=4,6=6,7=101,11=2,25=1,30=1,71=1,74=-5,124=31/1,2,3;
 4//1;
 5/5=2,38=5/2;
 6/7=2,8=2,9=2,10=2,28=1/1;
 7//1,2,3,16;
 1/18=20,19=15,26=3/3(2);
 2/9=110/2;
 99//99;
 2/9=110/2;
 3/5=4,6=6,7=101,11=2,25=1,30=1,71=1,74=-5,124=31/1,2,3;
 4/5=5,16=3,69=1/1;
 5/5=2,38=5/2;
 7//1,2,3,16;
 1/18=20,19=15,26=3/3(-5);
 2/9=110/2;
 6/7=2,8=2,9=2,10=2,19=2,28=1/1;
 99/9=1/99;
 Leave Link    1 at Sat Jul 16 02:09:02 2022, MaxMem=  1342177280 cpu:               2.2 elap:               0.1
 (Enter /home/mkliu/g16/l101.exe)
 -----
 force
 -----
 Symbolic Z-matrix:
 Charge =  0 Multiplicity = 2
 C                    -1.35522   1.90278  -4.0227 
 C                     0.19171   2.19789  -3.95768 
 C                     0.96225   0.88939  -4.26191 
 C                    -1.45229   0.3503   -4.11951 
 C                    -0.06321  -0.15808  -4.11998 
 C                    -2.08839  -0.10624  -2.85655 
 C                    -2.15221   2.25856  -2.71871 
 C                    -2.56304   0.92996  -2.10235 
 C                    -1.46214   2.92082  -1.54988 
 C                     0.69164   2.53915  -2.60683 
 C                    -0.04822   3.14372  -1.58392 
 C                     1.91574   0.67172  -3.09878 
 C                     1.82085   1.80208  -2.24749 
 C                     2.27388  -0.53011  -2.56071 
 C                     0.23778  -1.35448  -3.58393 
 C                     1.62596  -1.7734   -3.15051 
 C                    -1.86978  -1.37028  -2.30772 
 C                    -0.73821  -2.08599  -2.83383 
 C                    -2.39915  -1.63272  -1.02413 
 C                    -3.01559   0.69979  -0.80684 
 C                    -2.97237  -0.59986  -0.27487 
 C                    -2.0759    2.84957  -0.32696 
 C                    -3.21157   1.91917   0.04896 
 C                    -1.36654   3.20271   0.87114 
 C                     0.64621   3.36869  -0.38877 
 C                    -0.02737   3.51249   0.84609 
 C                     2.43448   1.82507  -0.98549 
 C                     1.91229   2.776    -0.10949 
 C                     2.94302  -0.58521  -1.26066 
 C                     3.0689    0.62678  -0.49496 
 C                     2.94672  -1.79547  -0.5651 
 C                     1.30317  -2.79485  -2.1018 
 C                    -0.11213  -3.04873  -2.0195 
 C                     2.04249  -2.87788  -0.9725 
 C                    -2.08844  -2.98957  -0.4317 
 C                    -0.71522  -3.4624   -0.84489 
 C                    -1.92684  -2.88711   1.05814 
 C                    -3.37803  -0.84509   1.16841 
 C                    -2.52584  -1.91574   1.78982 
 C                    -2.90119   1.60479   1.48253 
 C                    -1.89186   2.47776   1.97879 
 C                    -3.01067   0.35324   1.99973 
 C                    -1.05616   2.10579   3.01871 
 C                     0.85288   3.09889   1.90499 
 C                     2.06746   2.63606   1.29723 
 C                     0.34849   2.41528   2.98668 
 C                     3.27721   0.55253   0.89798 
 C                     2.75969   1.55128   1.79552 
 C                     3.04281  -1.85411   0.85055 
 C                     3.23603  -0.69728   1.58497 
 C                     1.47146  -3.44707   0.2182 
 C                     0.09562  -3.71597   0.27234 
 C                    -0.65371  -3.3988    1.45305 
 C                     2.12068  -2.85975   1.33554 
 C                     0.01049  -2.90291   2.55551 
 C                     1.41989  -2.61898   2.50939 
 C                    -1.86961  -1.42679   2.96291 
 C                    -2.16561  -0.03776   3.08872 
 C                    -1.20048   0.81621   3.59638 
 C                    -0.62271  -1.89777   3.33942 
 C                     1.08575   1.31303   3.54453 
 C                     2.28206   0.90143   2.98241 
 C                     2.57943  -0.49844   2.85077 
 C                     1.66402  -1.43614   3.28485 
 C                     0.11065   0.33615   3.94788 
 C                     0.39569  -1.00963   3.81968 
 Cl                   -2.03272   2.66401  -5.48152 
 Cl                    0.65917   3.56286  -5.00477 
 Cl                    1.78484   0.79671  -5.84189 
 Cl                    2.65316  -2.4182   -4.48683 
 Cl                   -3.63367   3.21207  -3.08372 
 Cl                   -4.87421   2.58468  -0.14049 
 Cl                   -5.13997  -1.23322   1.16531 
 Cl                   -3.42566  -4.12232  -0.91054 
 Cl                   -2.34909  -0.26841  -5.5555 
 
 ITRead=  0  0  0  0  0  0  0  0  0  0  0  0  0  0  0  0  0  0  0  0
 ITRead=  0  0  0  0  0  0  0  0  0  0  0  0  0  0  0  0  0  0  0  0
 ITRead=  0  0  0  0  0  0  0  0  0  0  0  0  0  0  0  0  0  0  0  0
 ITRead=  0  0  0  0  0  0  0  0  0  0  0  0  0  0  0
 MicOpt= -1 -1 -1 -1 -1 -1 -1 -1 -1 -1 -1 -1 -1 -1 -1 -1 -1 -1 -1 -1
 MicOpt= -1 -1 -1 -1 -1 -1 -1 -1 -1 -1 -1 -1 -1 -1 -1 -1 -1 -1 -1 -1
 MicOpt= -1 -1 -1 -1 -1 -1 -1 -1 -1 -1 -1 -1 -1 -1 -1 -1 -1 -1 -1 -1
 MicOpt= -1 -1 -1 -1 -1 -1 -1 -1 -1 -1 -1 -1 -1 -1 -1
 NAtoms=     75 NQM=       75 NQMF=       0 NMMI=      0 NMMIF=      0
                NMic=       0 NMicF=      0.
                    Isotopes and Nuclear Properties:
 (Nuclear quadrupole moments (NQMom) in fm**2, nuclear magnetic moments (NMagM)
  in nuclear magnetons)

  Atom         1           2           3           4           5           6           7           8           9          10
 IAtWgt=          12          12          12          12          12          12          12          12          12          12
 AtmWgt=  12.0000000  12.0000000  12.0000000  12.0000000  12.0000000  12.0000000  12.0000000  12.0000000  12.0000000  12.0000000
 NucSpn=           0           0           0           0           0           0           0           0           0           0
 AtZEff=  -0.0000000  -0.0000000  -0.0000000  -0.0000000  -0.0000000  -0.0000000  -0.0000000  -0.0000000  -0.0000000  -0.0000000
 NQMom=    0.0000000   0.0000000   0.0000000   0.0000000   0.0000000   0.0000000   0.0000000   0.0000000   0.0000000   0.0000000
 NMagM=    0.0000000   0.0000000   0.0000000   0.0000000   0.0000000   0.0000000   0.0000000   0.0000000   0.0000000   0.0000000
 AtZNuc=   6.0000000   6.0000000   6.0000000   6.0000000   6.0000000   6.0000000   6.0000000   6.0000000   6.0000000   6.0000000

  Atom        11          12          13          14          15          16          17          18          19          20
 IAtWgt=          12          12          12          12          12          12          12          12          12          12
 AtmWgt=  12.0000000  12.0000000  12.0000000  12.0000000  12.0000000  12.0000000  12.0000000  12.0000000  12.0000000  12.0000000
 NucSpn=           0           0           0           0           0           0           0           0           0           0
 AtZEff=  -0.0000000  -0.0000000  -0.0000000  -0.0000000  -0.0000000  -0.0000000  -0.0000000  -0.0000000  -0.0000000  -0.0000000
 NQMom=    0.0000000   0.0000000   0.0000000   0.0000000   0.0000000   0.0000000   0.0000000   0.0000000   0.0000000   0.0000000
 NMagM=    0.0000000   0.0000000   0.0000000   0.0000000   0.0000000   0.0000000   0.0000000   0.0000000   0.0000000   0.0000000
 AtZNuc=   6.0000000   6.0000000   6.0000000   6.0000000   6.0000000   6.0000000   6.0000000   6.0000000   6.0000000   6.0000000

  Atom        21          22          23          24          25          26          27          28          29          30
 IAtWgt=          12          12          12          12          12          12          12          12          12          12
 AtmWgt=  12.0000000  12.0000000  12.0000000  12.0000000  12.0000000  12.0000000  12.0000000  12.0000000  12.0000000  12.0000000
 NucSpn=           0           0           0           0           0           0           0           0           0           0
 AtZEff=  -0.0000000  -0.0000000  -0.0000000  -0.0000000  -0.0000000  -0.0000000  -0.0000000  -0.0000000  -0.0000000  -0.0000000
 NQMom=    0.0000000   0.0000000   0.0000000   0.0000000   0.0000000   0.0000000   0.0000000   0.0000000   0.0000000   0.0000000
 NMagM=    0.0000000   0.0000000   0.0000000   0.0000000   0.0000000   0.0000000   0.0000000   0.0000000   0.0000000   0.0000000
 AtZNuc=   6.0000000   6.0000000   6.0000000   6.0000000   6.0000000   6.0000000   6.0000000   6.0000000   6.0000000   6.0000000

  Atom        31          32          33          34          35          36          37          38          39          40
 IAtWgt=          12          12          12          12          12          12          12          12          12          12
 AtmWgt=  12.0000000  12.0000000  12.0000000  12.0000000  12.0000000  12.0000000  12.0000000  12.0000000  12.0000000  12.0000000
 NucSpn=           0           0           0           0           0           0           0           0           0           0
 AtZEff=  -0.0000000  -0.0000000  -0.0000000  -0.0000000  -0.0000000  -0.0000000  -0.0000000  -0.0000000  -0.0000000  -0.0000000
 NQMom=    0.0000000   0.0000000   0.0000000   0.0000000   0.0000000   0.0000000   0.0000000   0.0000000   0.0000000   0.0000000
 NMagM=    0.0000000   0.0000000   0.0000000   0.0000000   0.0000000   0.0000000   0.0000000   0.0000000   0.0000000   0.0000000
 AtZNuc=   6.0000000   6.0000000   6.0000000   6.0000000   6.0000000   6.0000000   6.0000000   6.0000000   6.0000000   6.0000000

  Atom        41          42          43          44          45          46          47          48          49          50
 IAtWgt=          12          12          12          12          12          12          12          12          12          12
 AtmWgt=  12.0000000  12.0000000  12.0000000  12.0000000  12.0000000  12.0000000  12.0000000  12.0000000  12.0000000  12.0000000
 NucSpn=           0           0           0           0           0           0           0           0           0           0
 AtZEff=  -0.0000000  -0.0000000  -0.0000000  -0.0000000  -0.0000000  -0.0000000  -0.0000000  -0.0000000  -0.0000000  -0.0000000
 NQMom=    0.0000000   0.0000000   0.0000000   0.0000000   0.0000000   0.0000000   0.0000000   0.0000000   0.0000000   0.0000000
 NMagM=    0.0000000   0.0000000   0.0000000   0.0000000   0.0000000   0.0000000   0.0000000   0.0000000   0.0000000   0.0000000
 AtZNuc=   6.0000000   6.0000000   6.0000000   6.0000000   6.0000000   6.0000000   6.0000000   6.0000000   6.0000000   6.0000000

  Atom        51          52          53          54          55          56          57          58          59          60
 IAtWgt=          12          12          12          12          12          12          12          12          12          12
 AtmWgt=  12.0000000  12.0000000  12.0000000  12.0000000  12.0000000  12.0000000  12.0000000  12.0000000  12.0000000  12.0000000
 NucSpn=           0           0           0           0           0           0           0           0           0           0
 AtZEff=  -0.0000000  -0.0000000  -0.0000000  -0.0000000  -0.0000000  -0.0000000  -0.0000000  -0.0000000  -0.0000000  -0.0000000
 NQMom=    0.0000000   0.0000000   0.0000000   0.0000000   0.0000000   0.0000000   0.0000000   0.0000000   0.0000000   0.0000000
 NMagM=    0.0000000   0.0000000   0.0000000   0.0000000   0.0000000   0.0000000   0.0000000   0.0000000   0.0000000   0.0000000
 AtZNuc=   6.0000000   6.0000000   6.0000000   6.0000000   6.0000000   6.0000000   6.0000000   6.0000000   6.0000000   6.0000000

  Atom        61          62          63          64          65          66          67          68          69          70
 IAtWgt=          12          12          12          12          12          12          35          35          35          35
 AtmWgt=  12.0000000  12.0000000  12.0000000  12.0000000  12.0000000  12.0000000  34.9688527  34.9688527  34.9688527  34.9688527
 NucSpn=           0           0           0           0           0           0           3           3           3           3
 AtZEff=  -0.0000000  -0.0000000  -0.0000000  -0.0000000  -0.0000000  -0.0000000  -0.0000000  -0.0000000  -0.0000000  -0.0000000
 NQMom=    0.0000000   0.0000000   0.0000000   0.0000000   0.0000000   0.0000000  -8.1650000  -8.1650000  -8.1650000  -8.1650000
 NMagM=    0.0000000   0.0000000   0.0000000   0.0000000   0.0000000   0.0000000   0.8218740   0.8218740   0.8218740   0.8218740
 AtZNuc=   6.0000000   6.0000000   6.0000000   6.0000000   6.0000000   6.0000000  17.0000000  17.0000000  17.0000000  17.0000000

  Atom        71          72          73          74          75
 IAtWgt=          35          35          35          35          35
 AtmWgt=  34.9688527  34.9688527  34.9688527  34.9688527  34.9688527
 NucSpn=           3           3           3           3           3
 AtZEff=  -0.0000000  -0.0000000  -0.0000000  -0.0000000  -0.0000000
 NQMom=   -8.1650000  -8.1650000  -8.1650000  -8.1650000  -8.1650000
 NMagM=    0.8218740   0.8218740   0.8218740   0.8218740   0.8218740
 AtZNuc=  17.0000000  17.0000000  17.0000000  17.0000000  17.0000000
 Leave Link  101 at Sat Jul 16 02:09:03 2022, MaxMem=  1342177280 cpu:              13.1 elap:               0.3
 (Enter /home/mkliu/g16/l103.exe)

 GradGradGradGradGradGradGradGradGradGradGradGradGradGradGradGradGradGrad
 Berny optimization.
 Initialization pass.
                           ----------------------------
                           !    Initial Parameters    !
                           ! (Angstroms and Degrees)  !
 --------------------------                            --------------------------
 ! Name  Definition              Value          Derivative Info.                !
 --------------------------------------------------------------------------------
 ! R1    R(1,2)                  1.5762         estimate D2E/DX2                !
 ! R2    R(1,4)                  1.5585         estimate D2E/DX2                !
 ! R3    R(1,7)                  1.5691         estimate D2E/DX2                !
 ! R4    R(1,67)                 1.7795         estimate D2E/DX2                !
 ! R5    R(2,3)                  1.5487         estimate D2E/DX2                !
 ! R6    R(2,10)                 1.4803         estimate D2E/DX2                !
 ! R7    R(2,68)                 1.7827         estimate D2E/DX2                !
 ! R8    R(3,5)                  1.4727         estimate D2E/DX2                !
 ! R9    R(3,12)                 1.5197         estimate D2E/DX2                !
 ! R10   R(3,69)                 1.7837         estimate D2E/DX2                !
 ! R11   R(4,5)                  1.4792         estimate D2E/DX2                !
 ! R12   R(4,6)                  1.486          estimate D2E/DX2                !
 ! R13   R(4,75)                 1.8025         estimate D2E/DX2                !
 ! R14   R(5,15)                 1.3451         estimate D2E/DX2                !
 ! R15   R(6,8)                  1.3667         estimate D2E/DX2                !
 ! R16   R(6,17)                 1.3953         estimate D2E/DX2                !
 ! R17   R(7,8)                  1.5211         estimate D2E/DX2                !
 ! R18   R(7,9)                  1.5103         estimate D2E/DX2                !
 ! R19   R(7,71)                 1.7992         estimate D2E/DX2                !
 ! R20   R(8,20)                 1.3915         estimate D2E/DX2                !
 ! R21   R(9,11)                 1.4318         estimate D2E/DX2                !
 ! R22   R(9,22)                 1.3701         estimate D2E/DX2                !
 ! R23   R(10,11)                1.3997         estimate D2E/DX2                !
 ! R24   R(10,13)                1.3955         estimate D2E/DX2                !
 ! R25   R(11,25)                1.4004         estimate D2E/DX2                !
 ! R26   R(12,13)                1.4182         estimate D2E/DX2                !
 ! R27   R(12,14)                1.3646         estimate D2E/DX2                !
 ! R28   R(13,27)                1.4035         estimate D2E/DX2                !
 ! R29   R(14,16)                1.521          estimate D2E/DX2                !
 ! R30   R(14,29)                1.4632         estimate D2E/DX2                !
 ! R31   R(15,16)                1.5134         estimate D2E/DX2                !
 ! R32   R(15,18)                1.4319         estimate D2E/DX2                !
 ! R33   R(16,32)                1.4991         estimate D2E/DX2                !
 ! R34   R(16,70)                1.8046         estimate D2E/DX2                !
 ! R35   R(17,18)                1.4386         estimate D2E/DX2                !
 ! R36   R(17,19)                1.413          estimate D2E/DX2                !
 ! R37   R(18,33)                1.4078         estimate D2E/DX2                !
 ! R38   R(19,21)                1.3988         estimate D2E/DX2                !
 ! R39   R(19,35)                1.5128         estimate D2E/DX2                !
 ! R40   R(20,21)                1.405          estimate D2E/DX2                !
 ! R41   R(20,23)                1.5026         estimate D2E/DX2                !
 ! R42   R(21,38)                1.5191         estimate D2E/DX2                !
 ! R43   R(22,23)                1.5155         estimate D2E/DX2                !
 ! R44   R(22,24)                1.4364         estimate D2E/DX2                !
 ! R45   R(23,40)                1.5001         estimate D2E/DX2                !
 ! R46   R(23,72)                1.8009         estimate D2E/DX2                !
 ! R47   R(24,26)                1.3748         estimate D2E/DX2                !
 ! R48   R(24,41)                1.4242         estimate D2E/DX2                !
 ! R49   R(25,26)                1.414          estimate D2E/DX2                !
 ! R50   R(25,28)                1.4256         estimate D2E/DX2                !
 ! R51   R(26,44)                1.4378         estimate D2E/DX2                !
 ! R52   R(27,28)                1.3944         estimate D2E/DX2                !
 ! R53   R(27,30)                1.4419         estimate D2E/DX2                !
 ! R54   R(28,45)                1.4221         estimate D2E/DX2                !
 ! R55   R(29,30)                1.4391         estimate D2E/DX2                !
 ! R56   R(29,31)                1.3959         estimate D2E/DX2                !
 ! R57   R(30,47)                1.4104         estimate D2E/DX2                !
 ! R58   R(31,34)                1.4681         estimate D2E/DX2                !
 ! R59   R(31,49)                1.4201         estimate D2E/DX2                !
 ! R60   R(32,33)                1.4402         estimate D2E/DX2                !
 ! R61   R(32,34)                1.3523         estimate D2E/DX2                !
 ! R62   R(33,36)                1.3837         estimate D2E/DX2                !
 ! R63   R(34,51)                1.438          estimate D2E/DX2                !
 ! R64   R(35,36)                1.51           estimate D2E/DX2                !
 ! R65   R(35,37)                1.5021         estimate D2E/DX2                !
 ! R66   R(35,74)                1.8167         estimate D2E/DX2                !
 ! R67   R(36,52)                1.4036         estimate D2E/DX2                !
 ! R68   R(37,39)                1.3556         estimate D2E/DX2                !
 ! R69   R(37,53)                1.4278         estimate D2E/DX2                !
 ! R70   R(38,39)                1.5029         estimate D2E/DX2                !
 ! R71   R(38,42)                1.504          estimate D2E/DX2                !
 ! R72   R(38,73)                1.8042         estimate D2E/DX2                !
 ! R73   R(39,57)                1.4303         estimate D2E/DX2                !
 ! R74   R(40,41)                1.4238         estimate D2E/DX2                !
 ! R75   R(40,42)                1.3586         estimate D2E/DX2                !
 ! R76   R(41,43)                1.385          estimate D2E/DX2                !
 ! R77   R(42,58)                1.4328         estimate D2E/DX2                !
 ! R78   R(43,46)                1.4387         estimate D2E/DX2                !
 ! R79   R(43,59)                1.4204         estimate D2E/DX2                !
 ! R80   R(44,45)                1.4349         estimate D2E/DX2                !
 ! R81   R(44,46)                1.3754         estimate D2E/DX2                !
 ! R82   R(45,48)                1.3799         estimate D2E/DX2                !
 ! R83   R(46,61)                1.4387         estimate D2E/DX2                !
 ! R84   R(47,48)                1.4391         estimate D2E/DX2                !
 ! R85   R(47,50)                1.4268         estimate D2E/DX2                !
 ! R86   R(48,62)                1.435          estimate D2E/DX2                !
 ! R87   R(49,50)                1.3838         estimate D2E/DX2                !
 ! R88   R(49,54)                1.448          estimate D2E/DX2                !
 ! R89   R(50,63)                1.4398         estimate D2E/DX2                !
 ! R90   R(51,52)                1.4029         estimate D2E/DX2                !
 ! R91   R(51,54)                1.4195         estimate D2E/DX2                !
 ! R92   R(52,53)                1.4339         estimate D2E/DX2                !
 ! R93   R(53,55)                1.3793         estimate D2E/DX2                !
 ! R94   R(54,56)                1.3882         estimate D2E/DX2                !
 ! R95   R(55,56)                1.4385         estimate D2E/DX2                !
 ! R96   R(55,60)                1.4233         estimate D2E/DX2                !
 ! R97   R(56,64)                1.4353         estimate D2E/DX2                !
 ! R98   R(57,58)                1.4258         estimate D2E/DX2                !
 ! R99   R(57,60)                1.385          estimate D2E/DX2                !
 ! R100  R(58,59)                1.3851         estimate D2E/DX2                !
 ! R101  R(59,65)                1.4398         estimate D2E/DX2                !
 ! R102  R(60,66)                1.4341         estimate D2E/DX2                !
 ! R103  R(61,62)                1.3844         estimate D2E/DX2                !
 ! R104  R(61,65)                1.438          estimate D2E/DX2                !
 ! R105  R(62,63)                1.4371         estimate D2E/DX2                !
 ! R106  R(63,64)                1.3805         estimate D2E/DX2                !
 ! R107  R(64,66)                1.441          estimate D2E/DX2                !
 ! R108  R(65,66)                1.3816         estimate D2E/DX2                !
 ! A1    A(2,1,4)              104.4891         estimate D2E/DX2                !
 ! A2    A(2,1,7)              114.9461         estimate D2E/DX2                !
 ! A3    A(2,1,67)             109.1105         estimate D2E/DX2                !
 ! A4    A(4,1,7)              104.2315         estimate D2E/DX2                !
 ! A5    A(4,1,67)             110.578          estimate D2E/DX2                !
 ! A6    A(7,1,67)             113.0102         estimate D2E/DX2                !
 ! A7    A(1,2,3)              108.7849         estimate D2E/DX2                !
 ! A8    A(1,2,10)             114.3479         estimate D2E/DX2                !
 ! A9    A(1,2,68)             112.1156         estimate D2E/DX2                !
 ! A10   A(3,2,10)             101.8891         estimate D2E/DX2                !
 ! A11   A(3,2,68)             113.6452         estimate D2E/DX2                !
 ! A12   A(10,2,68)            105.7199         estimate D2E/DX2                !
 ! A13   A(2,3,5)              103.6251         estimate D2E/DX2                !
 ! A14   A(2,3,12)             106.4293         estimate D2E/DX2                !
 ! A15   A(2,3,69)             116.5744         estimate D2E/DX2                !
 ! A16   A(5,3,12)             105.1439         estimate D2E/DX2                !
 ! A17   A(5,3,69)             111.6862         estimate D2E/DX2                !
 ! A18   A(12,3,69)            112.4067         estimate D2E/DX2                !
 ! A19   A(1,4,5)              106.4922         estimate D2E/DX2                !
 ! A20   A(1,4,6)              106.2548         estimate D2E/DX2                !
 ! A21   A(1,4,75)             114.9852         estimate D2E/DX2                !
 ! A22   A(5,4,6)              107.2578         estimate D2E/DX2                !
 ! A23   A(5,4,75)             110.4258         estimate D2E/DX2                !
 ! A24   A(6,4,75)             111.018          estimate D2E/DX2                !
 ! A25   A(3,5,4)              114.1714         estimate D2E/DX2                !
 ! A26   A(3,5,15)             121.0118         estimate D2E/DX2                !
 ! A27   A(4,5,15)             121.0443         estimate D2E/DX2                !
 ! A28   A(4,6,8)              112.6283         estimate D2E/DX2                !
 ! A29   A(4,6,17)             123.0643         estimate D2E/DX2                !
 ! A30   A(8,6,17)             121.6158         estimate D2E/DX2                !
 ! A31   A(1,7,8)              106.0138         estimate D2E/DX2                !
 ! A32   A(1,7,9)              120.6964         estimate D2E/DX2                !
 ! A33   A(1,7,71)             111.7026         estimate D2E/DX2                !
 ! A34   A(8,7,9)              101.1169         estimate D2E/DX2                !
 ! A35   A(8,7,71)             108.8265         estimate D2E/DX2                !
 ! A36   A(9,7,71)             107.5085         estimate D2E/DX2                !
 ! A37   A(6,8,7)              110.1709         estimate D2E/DX2                !
 ! A38   A(6,8,20)             120.088          estimate D2E/DX2                !
 ! A39   A(7,8,20)             127.559          estimate D2E/DX2                !
 ! A40   A(7,9,11)             120.0717         estimate D2E/DX2                !
 ! A41   A(7,9,22)             117.5986         estimate D2E/DX2                !
 ! A42   A(11,9,22)            118.1434         estimate D2E/DX2                !
 ! A43   A(2,10,11)            126.0121         estimate D2E/DX2                !
 ! A44   A(2,10,13)            112.7365         estimate D2E/DX2                !
 ! A45   A(11,10,13)           117.8824         estimate D2E/DX2                !
 ! A46   A(9,11,10)            118.1714         estimate D2E/DX2                !
 ! A47   A(9,11,25)            119.6302         estimate D2E/DX2                !
 ! A48   A(10,11,25)           115.5271         estimate D2E/DX2                !
 ! A49   A(3,12,13)            107.6549         estimate D2E/DX2                !
 ! A50   A(3,12,14)            126.3419         estimate D2E/DX2                !
 ! A51   A(13,12,14)           118.8701         estimate D2E/DX2                !
 ! A52   A(10,13,12)           108.6951         estimate D2E/DX2                !
 ! A53   A(10,13,27)           125.2167         estimate D2E/DX2                !
 ! A54   A(12,13,27)           121.5702         estimate D2E/DX2                !
 ! A55   A(12,14,16)           117.0788         estimate D2E/DX2                !
 ! A56   A(12,14,29)           120.2333         estimate D2E/DX2                !
 ! A57   A(16,14,29)           120.5682         estimate D2E/DX2                !
 ! A58   A(5,15,16)            124.4429         estimate D2E/DX2                !
 ! A59   A(5,15,18)            120.7058         estimate D2E/DX2                !
 ! A60   A(16,15,18)           109.4983         estimate D2E/DX2                !
 ! A61   A(14,16,15)           105.9932         estimate D2E/DX2                !
 ! A62   A(14,16,32)           112.1739         estimate D2E/DX2                !
 ! A63   A(14,16,70)           109.6787         estimate D2E/DX2                !
 ! A64   A(15,16,32)           101.0371         estimate D2E/DX2                !
 ! A65   A(15,16,70)           114.138          estimate D2E/DX2                !
 ! A66   A(32,16,70)           113.3985         estimate D2E/DX2                !
 ! A67   A(6,17,18)            115.4743         estimate D2E/DX2                !
 ! A68   A(6,17,19)            117.8316         estimate D2E/DX2                !
 ! A69   A(18,17,19)           122.3095         estimate D2E/DX2                !
 ! A70   A(15,18,17)           118.2661         estimate D2E/DX2                !
 ! A71   A(15,18,33)           110.441          estimate D2E/DX2                !
 ! A72   A(17,18,33)           118.5868         estimate D2E/DX2                !
 ! A73   A(17,19,21)           120.1943         estimate D2E/DX2                !
 ! A74   A(17,19,35)           116.4469         estimate D2E/DX2                !
 ! A75   A(21,19,35)           122.4565         estimate D2E/DX2                !
 ! A76   A(8,20,21)            119.7055         estimate D2E/DX2                !
 ! A77   A(8,20,23)            116.0061         estimate D2E/DX2                !
 ! A78   A(21,20,23)           122.6194         estimate D2E/DX2                !
 ! A79   A(19,21,20)           119.5257         estimate D2E/DX2                !
 ! A80   A(19,21,38)           119.9414         estimate D2E/DX2                !
 ! A81   A(20,21,38)           120.0558         estimate D2E/DX2                !
 ! A82   A(9,22,23)            126.0862         estimate D2E/DX2                !
 ! A83   A(9,22,24)            120.6941         estimate D2E/DX2                !
 ! A84   A(23,22,24)           108.3068         estimate D2E/DX2                !
 ! A85   A(20,23,22)           105.0228         estimate D2E/DX2                !
 ! A86   A(20,23,40)           110.3183         estimate D2E/DX2                !
 ! A87   A(20,23,72)           111.1253         estimate D2E/DX2                !
 ! A88   A(22,23,40)           102.1611         estimate D2E/DX2                !
 ! A89   A(22,23,72)           116.0325         estimate D2E/DX2                !
 ! A90   A(40,23,72)           111.654          estimate D2E/DX2                !
 ! A91   A(22,24,26)           121.4159         estimate D2E/DX2                !
 ! A92   A(22,24,41)           109.9618         estimate D2E/DX2                !
 ! A93   A(26,24,41)           119.2201         estimate D2E/DX2                !
 ! A94   A(11,25,26)           121.6971         estimate D2E/DX2                !
 ! A95   A(11,25,28)           122.7382         estimate D2E/DX2                !
 ! A96   A(26,25,28)           107.114          estimate D2E/DX2                !
 ! A97   A(24,26,25)           117.1966         estimate D2E/DX2                !
 ! A98   A(24,26,44)           121.2078         estimate D2E/DX2                !
 ! A99   A(25,26,44)           108.8017         estimate D2E/DX2                !
 ! A100  A(13,27,28)           114.3518         estimate D2E/DX2                !
 ! A101  A(13,27,30)           118.9911         estimate D2E/DX2                !
 ! A102  A(28,27,30)           121.1855         estimate D2E/DX2                !
 ! A103  A(25,28,27)           119.5415         estimate D2E/DX2                !
 ! A104  A(25,28,45)           109.3657         estimate D2E/DX2                !
 ! A105  A(27,28,45)           120.8933         estimate D2E/DX2                !
 ! A106  A(14,29,30)           118.7523         estimate D2E/DX2                !
 ! A107  A(14,29,31)           118.463          estimate D2E/DX2                !
 ! A108  A(30,29,31)           117.6987         estimate D2E/DX2                !
 ! A109  A(27,30,29)           118.7122         estimate D2E/DX2                !
 ! A110  A(27,30,47)           116.406          estimate D2E/DX2                !
 ! A111  A(29,30,47)           119.6079         estimate D2E/DX2                !
 ! A112  A(29,31,34)           119.9563         estimate D2E/DX2                !
 ! A113  A(29,31,49)           122.1884         estimate D2E/DX2                !
 ! A114  A(34,31,49)           106.7302         estimate D2E/DX2                !
 ! A115  A(16,32,33)           111.8191         estimate D2E/DX2                !
 ! A116  A(16,32,34)           120.5505         estimate D2E/DX2                !
 ! A117  A(33,32,34)           118.5997         estimate D2E/DX2                !
 ! A118  A(18,33,32)           106.464          estimate D2E/DX2                !
 ! A119  A(18,33,36)           120.1088         estimate D2E/DX2                !
 ! A120  A(32,33,36)           121.9734         estimate D2E/DX2                !
 ! A121  A(31,34,32)           121.5473         estimate D2E/DX2                !
 ! A122  A(31,34,51)           107.8572         estimate D2E/DX2                !
 ! A123  A(32,34,51)           119.9126         estimate D2E/DX2                !
 ! A124  A(19,35,36)           111.1298         estimate D2E/DX2                !
 ! A125  A(19,35,37)           110.4464         estimate D2E/DX2                !
 ! A126  A(19,35,74)           107.7482         estimate D2E/DX2                !
 ! A127  A(36,35,37)           101.2408         estimate D2E/DX2                !
 ! A128  A(36,35,74)           113.7051         estimate D2E/DX2                !
 ! A129  A(37,35,74)           112.5284         estimate D2E/DX2                !
 ! A130  A(33,36,35)           122.3486         estimate D2E/DX2                !
 ! A131  A(33,36,52)           118.551          estimate D2E/DX2                !
 ! A132  A(35,36,52)           111.3544         estimate D2E/DX2                !
 ! A133  A(35,37,39)           122.4581         estimate D2E/DX2                !
 ! A134  A(35,37,53)           110.2317         estimate D2E/DX2                !
 ! A135  A(39,37,53)           120.0994         estimate D2E/DX2                !
 ! A136  A(21,38,39)           110.8803         estimate D2E/DX2                !
 ! A137  A(21,38,42)           109.3474         estimate D2E/DX2                !
 ! A138  A(21,38,73)           107.0904         estimate D2E/DX2                !
 ! A139  A(39,38,42)           101.5699         estimate D2E/DX2                !
 ! A140  A(39,38,73)           113.6539         estimate D2E/DX2                !
 ! A141  A(42,38,73)           114.2604         estimate D2E/DX2                !
 ! A142  A(37,39,38)           122.5373         estimate D2E/DX2                !
 ! A143  A(37,39,57)           119.0052         estimate D2E/DX2                !
 ! A144  A(38,39,57)           110.8386         estimate D2E/DX2                !
 ! A145  A(23,40,41)           110.5656         estimate D2E/DX2                !
 ! A146  A(23,40,42)           122.6964         estimate D2E/DX2                !
 ! A147  A(41,40,42)           119.2916         estimate D2E/DX2                !
 ! A148  A(24,41,40)           107.6081         estimate D2E/DX2                !
 ! A149  A(24,41,43)           119.8747         estimate D2E/DX2                !
 ! A150  A(40,41,43)           121.6548         estimate D2E/DX2                !
 ! A151  A(38,42,40)           122.9034         estimate D2E/DX2                !
 ! A152  A(38,42,58)           110.2876         estimate D2E/DX2                !
 ! A153  A(40,42,58)           119.5509         estimate D2E/DX2                !
 ! A154  A(41,43,46)           120.9722         estimate D2E/DX2                !
 ! A155  A(41,43,59)           119.2024         estimate D2E/DX2                !
 ! A156  A(46,43,59)           107.6715         estimate D2E/DX2                !
 ! A157  A(26,44,45)           107.4021         estimate D2E/DX2                !
 ! A158  A(26,44,46)           119.8456         estimate D2E/DX2                !
 ! A159  A(45,44,46)           118.8959         estimate D2E/DX2                !
 ! A160  A(28,45,44)           107.1503         estimate D2E/DX2                !
 ! A161  A(28,45,48)           119.293          estimate D2E/DX2                !
 ! A162  A(44,45,48)           121.6846         estimate D2E/DX2                !
 ! A163  A(43,46,44)           118.8468         estimate D2E/DX2                !
 ! A164  A(43,46,61)           109.0801         estimate D2E/DX2                !
 ! A165  A(44,46,61)           119.8554         estimate D2E/DX2                !
 ! A166  A(30,47,48)           121.758          estimate D2E/DX2                !
 ! A167  A(30,47,50)           121.1578         estimate D2E/DX2                !
 ! A168  A(48,47,50)           107.293          estimate D2E/DX2                !
 ! A169  A(45,48,47)           120.0502         estimate D2E/DX2                !
 ! A170  A(45,48,62)           119.19           estimate D2E/DX2                !
 ! A171  A(47,48,62)           108.7398         estimate D2E/DX2                !
 ! A172  A(31,49,50)           120.2634         estimate D2E/DX2                !
 ! A173  A(31,49,54)           108.6305         estimate D2E/DX2                !
 ! A174  A(50,49,54)           119.4537         estimate D2E/DX2                !
 ! A175  A(47,50,49)           118.7357         estimate D2E/DX2                !
 ! A176  A(47,50,63)           108.3912         estimate D2E/DX2                !
 ! A177  A(49,50,63)           121.223          estimate D2E/DX2                !
 ! A178  A(34,51,52)           119.819          estimate D2E/DX2                !
 ! A179  A(34,51,54)           107.842          estimate D2E/DX2                !
 ! A180  A(52,51,54)           119.8324         estimate D2E/DX2                !
 ! A181  A(36,52,51)           120.0798         estimate D2E/DX2                !
 ! A182  A(36,52,53)           108.2752         estimate D2E/DX2                !
 ! A183  A(51,52,53)           120.1237         estimate D2E/DX2                !
 ! A184  A(37,53,52)           108.5105         estimate D2E/DX2                !
 ! A185  A(37,53,55)           121.4404         estimate D2E/DX2                !
 ! A186  A(52,53,55)           119.0793         estimate D2E/DX2                !
 ! A187  A(49,54,51)           108.3583         estimate D2E/DX2                !
 ! A188  A(49,54,56)           118.9633         estimate D2E/DX2                !
 ! A189  A(51,54,56)           120.431          estimate D2E/DX2                !
 ! A190  A(53,55,56)           121.1418         estimate D2E/DX2                !
 ! A191  A(53,55,60)           118.678          estimate D2E/DX2                !
 ! A192  A(56,55,60)           108.3098         estimate D2E/DX2                !
 ! A193  A(54,56,55)           119.1771         estimate D2E/DX2                !
 ! A194  A(54,56,64)           120.9266         estimate D2E/DX2                !
 ! A195  A(55,56,64)           108.1802         estimate D2E/DX2                !
 ! A196  A(39,57,58)           108.0687         estimate D2E/DX2                !
 ! A197  A(39,57,60)           121.3147         estimate D2E/DX2                !
 ! A198  A(58,57,60)           119.6166         estimate D2E/DX2                !
 ! A199  A(42,58,57)           108.7379         estimate D2E/DX2                !
 ! A200  A(42,58,59)           121.4188         estimate D2E/DX2                !
 ! A201  A(57,58,59)           119.2315         estimate D2E/DX2                !
 ! A202  A(43,59,58)           118.7833         estimate D2E/DX2                !
 ! A203  A(43,59,65)           108.0278         estimate D2E/DX2                !
 ! A204  A(58,59,65)           121.2269         estimate D2E/DX2                !
 ! A205  A(55,60,57)           119.4021         estimate D2E/DX2                !
 ! A206  A(55,60,66)           107.8107         estimate D2E/DX2                !
 ! A207  A(57,60,66)           121.3162         estimate D2E/DX2                !
 ! A208  A(46,61,62)           120.8771         estimate D2E/DX2                !
 ! A209  A(46,61,65)           106.3644         estimate D2E/DX2                !
 ! A210  A(62,61,65)           119.8608         estimate D2E/DX2                !
 ! A211  A(48,62,61)           119.2634         estimate D2E/DX2                !
 ! A212  A(48,62,63)           107.2465         estimate D2E/DX2                !
 ! A213  A(61,62,63)           120.3713         estimate D2E/DX2                !
 ! A214  A(50,63,62)           108.0244         estimate D2E/DX2                !
 ! A215  A(50,63,64)           119.016          estimate D2E/DX2                !
 ! A216  A(62,63,64)           119.7112         estimate D2E/DX2                !
 ! A217  A(56,64,63)           120.1783         estimate D2E/DX2                !
 ! A218  A(56,64,66)           107.1414         estimate D2E/DX2                !
 ! A219  A(63,64,66)           119.9537         estimate D2E/DX2                !
 ! A220  A(59,65,61)           108.8148         estimate D2E/DX2                !
 ! A221  A(59,65,66)           119.3407         estimate D2E/DX2                !
 ! A222  A(61,65,66)           119.7218         estimate D2E/DX2                !
 ! A223  A(60,66,64)           108.5084         estimate D2E/DX2                !
 ! A224  A(60,66,65)           119.1968         estimate D2E/DX2                !
 ! A225  A(64,66,65)           120.2869         estimate D2E/DX2                !
 ! D1    D(4,1,2,3)              9.7407         estimate D2E/DX2                !
 ! D2    D(4,1,2,10)          -103.3864         estimate D2E/DX2                !
 ! D3    D(4,1,2,68)           136.2891         estimate D2E/DX2                !
 ! D4    D(7,1,2,3)            123.3344         estimate D2E/DX2                !
 ! D5    D(7,1,2,10)            10.2073         estimate D2E/DX2                !
 ! D6    D(7,1,2,68)          -110.1171         estimate D2E/DX2                !
 ! D7    D(67,1,2,3)          -108.5366         estimate D2E/DX2                !
 ! D8    D(67,1,2,10)          138.3364         estimate D2E/DX2                !
 ! D9    D(67,1,2,68)           18.0119         estimate D2E/DX2                !
 ! D10   D(2,1,4,5)             -0.4879         estimate D2E/DX2                !
 ! D11   D(2,1,4,6)            113.6294         estimate D2E/DX2                !
 ! D12   D(2,1,4,75)          -123.1383         estimate D2E/DX2                !
 ! D13   D(7,1,4,5)           -121.4823         estimate D2E/DX2                !
 ! D14   D(7,1,4,6)             -7.365          estimate D2E/DX2                !
 ! D15   D(7,1,4,75)           115.8674         estimate D2E/DX2                !
 ! D16   D(67,1,4,5)           116.7838         estimate D2E/DX2                !
 ! D17   D(67,1,4,6)          -129.0989         estimate D2E/DX2                !
 ! D18   D(67,1,4,75)           -5.8666         estimate D2E/DX2                !
 ! D19   D(2,1,7,8)           -109.8221         estimate D2E/DX2                !
 ! D20   D(2,1,7,9)              3.9857         estimate D2E/DX2                !
 ! D21   D(2,1,7,71)           131.7812         estimate D2E/DX2                !
 ! D22   D(4,1,7,8)              3.9221         estimate D2E/DX2                !
 ! D23   D(4,1,7,9)            117.7299         estimate D2E/DX2                !
 ! D24   D(4,1,7,71)          -114.4746         estimate D2E/DX2                !
 ! D25   D(67,1,7,8)           124.0323         estimate D2E/DX2                !
 ! D26   D(67,1,7,9)          -122.1598         estimate D2E/DX2                !
 ! D27   D(67,1,7,71)            5.6357         estimate D2E/DX2                !
 ! D28   D(1,2,3,5)            -15.0737         estimate D2E/DX2                !
 ! D29   D(1,2,3,12)          -125.6666         estimate D2E/DX2                !
 ! D30   D(1,2,3,69)           108.0454         estimate D2E/DX2                !
 ! D31   D(10,2,3,5)           106.0326         estimate D2E/DX2                !
 ! D32   D(10,2,3,12)           -4.5603         estimate D2E/DX2                !
 ! D33   D(10,2,3,69)         -130.8483         estimate D2E/DX2                !
 ! D34   D(68,2,3,5)          -140.7371         estimate D2E/DX2                !
 ! D35   D(68,2,3,12)          108.67           estimate D2E/DX2                !
 ! D36   D(68,2,3,69)          -17.618          estimate D2E/DX2                !
 ! D37   D(1,2,10,11)          -28.0881         estimate D2E/DX2                !
 ! D38   D(1,2,10,13)          130.5752         estimate D2E/DX2                !
 ! D39   D(3,2,10,11)         -145.2478         estimate D2E/DX2                !
 ! D40   D(3,2,10,13)           13.4154         estimate D2E/DX2                !
 ! D41   D(68,2,10,11)          95.7367         estimate D2E/DX2                !
 ! D42   D(68,2,10,13)        -105.6001         estimate D2E/DX2                !
 ! D43   D(2,3,5,4)             15.5644         estimate D2E/DX2                !
 ! D44   D(2,3,5,15)          -142.7671         estimate D2E/DX2                !
 ! D45   D(12,3,5,4)           127.1009         estimate D2E/DX2                !
 ! D46   D(12,3,5,15)          -31.2306         estimate D2E/DX2                !
 ! D47   D(69,3,5,4)          -110.718          estimate D2E/DX2                !
 ! D48   D(69,3,5,15)           90.9504         estimate D2E/DX2                !
 ! D49   D(2,3,12,13)           -5.0956         estimate D2E/DX2                !
 ! D50   D(2,3,12,14)          144.5817         estimate D2E/DX2                !
 ! D51   D(5,3,12,13)         -114.6218         estimate D2E/DX2                !
 ! D52   D(5,3,12,14)           35.0556         estimate D2E/DX2                !
 ! D53   D(69,3,12,13)         123.6651         estimate D2E/DX2                !
 ! D54   D(69,3,12,14)         -86.6576         estimate D2E/DX2                !
 ! D55   D(1,4,5,3)             -9.7644         estimate D2E/DX2                !
 ! D56   D(1,4,5,15)           148.5593         estimate D2E/DX2                !
 ! D57   D(6,4,5,3)           -123.1962         estimate D2E/DX2                !
 ! D58   D(6,4,5,15)            35.1276         estimate D2E/DX2                !
 ! D59   D(75,4,5,3)           115.7087         estimate D2E/DX2                !
 ! D60   D(75,4,5,15)          -85.9676         estimate D2E/DX2                !
 ! D61   D(1,4,6,8)              8.842          estimate D2E/DX2                !
 ! D62   D(1,4,6,17)          -152.7899         estimate D2E/DX2                !
 ! D63   D(5,4,6,8)            122.434          estimate D2E/DX2                !
 ! D64   D(5,4,6,17)           -39.1978         estimate D2E/DX2                !
 ! D65   D(75,4,6,8)          -116.8451         estimate D2E/DX2                !
 ! D66   D(75,4,6,17)           81.5231         estimate D2E/DX2                !
 ! D67   D(3,5,15,16)           -3.3417         estimate D2E/DX2                !
 ! D68   D(3,5,15,18)          148.0639         estimate D2E/DX2                !
 ! D69   D(4,5,15,16)         -160.1893         estimate D2E/DX2                !
 ! D70   D(4,5,15,18)           -8.7837         estimate D2E/DX2                !
 ! D71   D(4,6,8,7)             -6.3997         estimate D2E/DX2                !
 ! D72   D(4,6,8,20)          -170.8462         estimate D2E/DX2                !
 ! D73   D(17,6,8,7)           155.534          estimate D2E/DX2                !
 ! D74   D(17,6,8,20)           -8.9125         estimate D2E/DX2                !
 ! D75   D(4,6,17,18)           15.4177         estimate D2E/DX2                !
 ! D76   D(4,6,17,19)          172.4938         estimate D2E/DX2                !
 ! D77   D(8,6,17,18)         -144.6106         estimate D2E/DX2                !
 ! D78   D(8,6,17,19)           12.4656         estimate D2E/DX2                !
 ! D79   D(1,7,8,6)              1.2392         estimate D2E/DX2                !
 ! D80   D(1,7,8,20)           164.2213         estimate D2E/DX2                !
 ! D81   D(9,7,8,6)           -125.4627         estimate D2E/DX2                !
 ! D82   D(9,7,8,20)            37.5194         estimate D2E/DX2                !
 ! D83   D(71,7,8,6)           121.5252         estimate D2E/DX2                !
 ! D84   D(71,7,8,20)          -75.4927         estimate D2E/DX2                !
 ! D85   D(1,7,9,11)            -4.5086         estimate D2E/DX2                !
 ! D86   D(1,7,9,22)          -161.1024         estimate D2E/DX2                !
 ! D87   D(8,7,9,11)           111.826          estimate D2E/DX2                !
 ! D88   D(8,7,9,22)           -44.7678         estimate D2E/DX2                !
 ! D89   D(71,7,9,11)         -134.1676         estimate D2E/DX2                !
 ! D90   D(71,7,9,22)           69.2386         estimate D2E/DX2                !
 ! D91   D(6,8,20,21)            0.4996         estimate D2E/DX2                !
 ! D92   D(6,8,20,23)          166.1657         estimate D2E/DX2                !
 ! D93   D(7,8,20,21)         -160.9885         estimate D2E/DX2                !
 ! D94   D(7,8,20,23)            4.6777         estimate D2E/DX2                !
 ! D95   D(7,9,11,10)          -10.5384         estimate D2E/DX2                !
 ! D96   D(7,9,11,25)         -160.6501         estimate D2E/DX2                !
 ! D97   D(22,9,11,10)         145.9303         estimate D2E/DX2                !
 ! D98   D(22,9,11,25)          -4.1814         estimate D2E/DX2                !
 ! D99   D(7,9,22,23)           14.7712         estimate D2E/DX2                !
 ! D100  D(7,9,22,24)          166.9808         estimate D2E/DX2                !
 ! D101  D(11,9,22,23)        -142.2823         estimate D2E/DX2                !
 ! D102  D(11,9,22,24)           9.9272         estimate D2E/DX2                !
 ! D103  D(2,10,11,9)           28.7296         estimate D2E/DX2                !
 ! D104  D(2,10,11,25)        -179.9562         estimate D2E/DX2                !
 ! D105  D(13,10,11,9)        -128.9584         estimate D2E/DX2                !
 ! D106  D(13,10,11,25)         22.3558         estimate D2E/DX2                !
 ! D107  D(2,10,13,12)         -17.5867         estimate D2E/DX2                !
 ! D108  D(2,10,13,27)        -173.846          estimate D2E/DX2                !
 ! D109  D(11,10,13,12)        142.9642         estimate D2E/DX2                !
 ! D110  D(11,10,13,27)        -13.2951         estimate D2E/DX2                !
 ! D111  D(9,11,25,26)          -6.2804         estimate D2E/DX2                !
 ! D112  D(9,11,25,28)         137.6417         estimate D2E/DX2                !
 ! D113  D(10,11,25,26)       -157.1498         estimate D2E/DX2                !
 ! D114  D(10,11,25,28)        -13.2277         estimate D2E/DX2                !
 ! D115  D(3,12,13,10)          13.5139         estimate D2E/DX2                !
 ! D116  D(3,12,13,27)         170.8049         estimate D2E/DX2                !
 ! D117  D(14,12,13,10)       -138.8157         estimate D2E/DX2                !
 ! D118  D(14,12,13,27)         18.4754         estimate D2E/DX2                !
 ! D119  D(3,12,14,16)          -2.0267         estimate D2E/DX2                !
 ! D120  D(3,12,14,29)        -165.5742         estimate D2E/DX2                !
 ! D121  D(13,12,14,16)        144.6497         estimate D2E/DX2                !
 ! D122  D(13,12,14,29)        -18.8978         estimate D2E/DX2                !
 ! D123  D(10,13,27,28)         -6.6807         estimate D2E/DX2                !
 ! D124  D(10,13,27,30)        147.5556         estimate D2E/DX2                !
 ! D125  D(12,13,27,28)       -160.0908         estimate D2E/DX2                !
 ! D126  D(12,13,27,30)         -5.8545         estimate D2E/DX2                !
 ! D127  D(12,14,16,15)        -32.377          estimate D2E/DX2                !
 ! D128  D(12,14,16,32)       -141.7594         estimate D2E/DX2                !
 ! D129  D(12,14,16,70)         91.2849         estimate D2E/DX2                !
 ! D130  D(29,14,16,15)        131.1123         estimate D2E/DX2                !
 ! D131  D(29,14,16,32)         21.7299         estimate D2E/DX2                !
 ! D132  D(29,14,16,70)       -105.2258         estimate D2E/DX2                !
 ! D133  D(12,14,29,30)          7.3858         estimate D2E/DX2                !
 ! D134  D(12,14,29,31)        161.614          estimate D2E/DX2                !
 ! D135  D(16,14,29,30)       -155.5839         estimate D2E/DX2                !
 ! D136  D(16,14,29,31)         -1.3556         estimate D2E/DX2                !
 ! D137  D(5,15,16,14)          37.013          estimate D2E/DX2                !
 ! D138  D(5,15,16,32)         154.1372         estimate D2E/DX2                !
 ! D139  D(5,15,16,70)         -83.8045         estimate D2E/DX2                !
 ! D140  D(18,15,16,14)       -117.1036         estimate D2E/DX2                !
 ! D141  D(18,15,16,32)          0.0206         estimate D2E/DX2                !
 ! D142  D(18,15,16,70)        122.0789         estimate D2E/DX2                !
 ! D143  D(5,15,18,17)         -19.3273         estimate D2E/DX2                !
 ! D144  D(5,15,18,33)        -160.6042         estimate D2E/DX2                !
 ! D145  D(16,15,18,17)        135.9192         estimate D2E/DX2                !
 ! D146  D(16,15,18,33)         -5.3577         estimate D2E/DX2                !
 ! D147  D(14,16,32,33)        117.7477         estimate D2E/DX2                !
 ! D148  D(14,16,32,34)        -28.873          estimate D2E/DX2                !
 ! D149  D(15,16,32,33)          5.251          estimate D2E/DX2                !
 ! D150  D(15,16,32,34)       -141.3697         estimate D2E/DX2                !
 ! D151  D(70,16,32,33)       -117.3221         estimate D2E/DX2                !
 ! D152  D(70,16,32,34)         96.0572         estimate D2E/DX2                !
 ! D153  D(6,17,18,15)          15.6203         estimate D2E/DX2                !
 ! D154  D(6,17,18,33)         153.7424         estimate D2E/DX2                !
 ! D155  D(19,17,18,15)       -140.3286         estimate D2E/DX2                !
 ! D156  D(19,17,18,33)         -2.2065         estimate D2E/DX2                !
 ! D157  D(6,17,19,21)          -7.819          estimate D2E/DX2                !
 ! D158  D(6,17,19,35)        -177.2128         estimate D2E/DX2                !
 ! D159  D(18,17,19,21)        147.5952         estimate D2E/DX2                !
 ! D160  D(18,17,19,35)        -21.7986         estimate D2E/DX2                !
 ! D161  D(15,18,33,32)          8.4851         estimate D2E/DX2                !
 ! D162  D(15,18,33,36)        152.5479         estimate D2E/DX2                !
 ! D163  D(17,18,33,32)       -132.6522         estimate D2E/DX2                !
 ! D164  D(17,18,33,36)         11.4105         estimate D2E/DX2                !
 ! D165  D(17,19,21,20)         -0.1115         estimate D2E/DX2                !
 ! D166  D(17,19,21,38)       -172.1927         estimate D2E/DX2                !
 ! D167  D(35,19,21,20)        168.6261         estimate D2E/DX2                !
 ! D168  D(35,19,21,38)         -3.455          estimate D2E/DX2                !
 ! D169  D(17,19,35,36)         34.0869         estimate D2E/DX2                !
 ! D170  D(17,19,35,37)        145.6248         estimate D2E/DX2                !
 ! D171  D(17,19,35,74)        -91.0998         estimate D2E/DX2                !
 ! D172  D(21,19,35,36)       -135.0458         estimate D2E/DX2                !
 ! D173  D(21,19,35,37)        -23.5079         estimate D2E/DX2                !
 ! D174  D(21,19,35,74)         99.7675         estimate D2E/DX2                !
 ! D175  D(8,20,21,19)           3.893          estimate D2E/DX2                !
 ! D176  D(8,20,21,38)         175.965          estimate D2E/DX2                !
 ! D177  D(23,20,21,19)       -160.7892         estimate D2E/DX2                !
 ! D178  D(23,20,21,38)         11.2827         estimate D2E/DX2                !
 ! D179  D(8,20,23,22)         -37.3674         estimate D2E/DX2                !
 ! D180  D(8,20,23,40)        -146.7552         estimate D2E/DX2                !
 ! D181  D(8,20,23,72)          88.8496         estimate D2E/DX2                !
 ! D182  D(21,20,23,22)        127.8409         estimate D2E/DX2                !
 ! D183  D(21,20,23,40)         18.4531         estimate D2E/DX2                !
 ! D184  D(21,20,23,72)       -105.9421         estimate D2E/DX2                !
 ! D185  D(19,21,38,39)         28.0106         estimate D2E/DX2                !
 ! D186  D(19,21,38,42)        139.2            estimate D2E/DX2                !
 ! D187  D(19,21,38,73)        -96.4983         estimate D2E/DX2                !
 ! D188  D(20,21,38,39)       -144.0282         estimate D2E/DX2                !
 ! D189  D(20,21,38,42)        -32.8388         estimate D2E/DX2                !
 ! D190  D(20,21,38,73)         91.4629         estimate D2E/DX2                !
 ! D191  D(9,22,23,20)          29.8063         estimate D2E/DX2                !
 ! D192  D(9,22,23,40)         144.9956         estimate D2E/DX2                !
 ! D193  D(9,22,23,72)         -93.3127         estimate D2E/DX2                !
 ! D194  D(24,22,23,20)       -125.2142         estimate D2E/DX2                !
 ! D195  D(24,22,23,40)        -10.025          estimate D2E/DX2                !
 ! D196  D(24,22,23,72)        111.6668         estimate D2E/DX2                !
 ! D197  D(9,22,24,26)          -5.548          estimate D2E/DX2                !
 ! D198  D(9,22,24,41)        -151.6908         estimate D2E/DX2                !
 ! D199  D(23,22,24,26)        151.0694         estimate D2E/DX2                !
 ! D200  D(23,22,24,41)          4.9267         estimate D2E/DX2                !
 ! D201  D(20,23,40,41)        123.27           estimate D2E/DX2                !
 ! D202  D(20,23,40,42)        -26.2474         estimate D2E/DX2                !
 ! D203  D(22,23,40,41)         12.0138         estimate D2E/DX2                !
 ! D204  D(22,23,40,42)       -137.5036         estimate D2E/DX2                !
 ! D205  D(72,23,40,41)       -112.6389         estimate D2E/DX2                !
 ! D206  D(72,23,40,42)         97.8436         estimate D2E/DX2                !
 ! D207  D(22,24,26,25)         -4.7794         estimate D2E/DX2                !
 ! D208  D(22,24,26,44)       -142.0832         estimate D2E/DX2                !
 ! D209  D(41,24,26,25)        138.3505         estimate D2E/DX2                !
 ! D210  D(41,24,26,44)          1.0466         estimate D2E/DX2                !
 ! D211  D(22,24,41,40)          2.7896         estimate D2E/DX2                !
 ! D212  D(22,24,41,43)        147.6038         estimate D2E/DX2                !
 ! D213  D(26,24,41,40)       -144.201          estimate D2E/DX2                !
 ! D214  D(26,24,41,43)          0.6132         estimate D2E/DX2                !
 ! D215  D(11,25,26,24)         10.6138         estimate D2E/DX2                !
 ! D216  D(11,25,26,44)        152.8306         estimate D2E/DX2                !
 ! D217  D(28,25,26,24)       -138.1685         estimate D2E/DX2                !
 ! D218  D(28,25,26,44)          4.0482         estimate D2E/DX2                !
 ! D219  D(11,25,28,27)         -6.815          estimate D2E/DX2                !
 ! D220  D(11,25,28,45)       -152.3783         estimate D2E/DX2                !
 ! D221  D(26,25,28,27)        141.5667         estimate D2E/DX2                !
 ! D222  D(26,25,28,45)         -3.9966         estimate D2E/DX2                !
 ! D223  D(24,26,44,45)        137.8038         estimate D2E/DX2                !
 ! D224  D(24,26,44,46)         -1.9843         estimate D2E/DX2                !
 ! D225  D(25,26,44,45)         -2.6174         estimate D2E/DX2                !
 ! D226  D(25,26,44,46)       -142.4055         estimate D2E/DX2                !
 ! D227  D(13,27,28,25)         16.2407         estimate D2E/DX2                !
 ! D228  D(13,27,28,45)        157.8            estimate D2E/DX2                !
 ! D229  D(30,27,28,25)       -137.3733         estimate D2E/DX2                !
 ! D230  D(30,27,28,45)          4.1859         estimate D2E/DX2                !
 ! D231  D(13,27,30,29)         -5.732          estimate D2E/DX2                !
 ! D232  D(13,27,30,47)       -160.0125         estimate D2E/DX2                !
 ! D233  D(28,27,30,29)        146.6951         estimate D2E/DX2                !
 ! D234  D(28,27,30,47)         -7.5854         estimate D2E/DX2                !
 ! D235  D(25,28,45,44)          2.3847         estimate D2E/DX2                !
 ! D236  D(25,28,45,48)        145.8416         estimate D2E/DX2                !
 ! D237  D(27,28,45,44)       -142.6332         estimate D2E/DX2                !
 ! D238  D(27,28,45,48)          0.8237         estimate D2E/DX2                !
 ! D239  D(14,29,30,27)          5.0942         estimate D2E/DX2                !
 ! D240  D(14,29,30,47)        158.5389         estimate D2E/DX2                !
 ! D241  D(31,29,30,27)       -149.33           estimate D2E/DX2                !
 ! D242  D(31,29,30,47)          4.1146         estimate D2E/DX2                !
 ! D243  D(14,29,31,34)        -14.1834         estimate D2E/DX2                !
 ! D244  D(14,29,31,49)       -153.2408         estimate D2E/DX2                !
 ! D245  D(30,29,31,34)        140.3162         estimate D2E/DX2                !
 ! D246  D(30,29,31,49)          1.2588         estimate D2E/DX2                !
 ! D247  D(27,30,47,48)          6.3418         estimate D2E/DX2                !
 ! D248  D(27,30,47,50)        147.8594         estimate D2E/DX2                !
 ! D249  D(29,30,47,48)       -147.6967         estimate D2E/DX2                !
 ! D250  D(29,30,47,50)         -6.1791         estimate D2E/DX2                !
 ! D251  D(29,31,34,32)          7.501          estimate D2E/DX2                !
 ! D252  D(29,31,34,51)       -136.8463         estimate D2E/DX2                !
 ! D253  D(49,31,34,32)        152.114          estimate D2E/DX2                !
 ! D254  D(49,31,34,51)          7.7667         estimate D2E/DX2                !
 ! D255  D(29,31,49,50)         -4.7666         estimate D2E/DX2                !
 ! D256  D(29,31,49,54)        138.1257         estimate D2E/DX2                !
 ! D257  D(34,31,49,50)       -148.4068         estimate D2E/DX2                !
 ! D258  D(34,31,49,54)         -5.5146         estimate D2E/DX2                !
 ! D259  D(16,32,33,18)         -8.648          estimate D2E/DX2                !
 ! D260  D(16,32,33,36)       -151.8848         estimate D2E/DX2                !
 ! D261  D(34,32,33,18)        138.6922         estimate D2E/DX2                !
 ! D262  D(34,32,33,36)         -4.5446         estimate D2E/DX2                !
 ! D263  D(16,32,34,31)         15.618          estimate D2E/DX2                !
 ! D264  D(16,32,34,51)        155.8223         estimate D2E/DX2                !
 ! D265  D(33,32,34,31)       -128.8085         estimate D2E/DX2                !
 ! D266  D(33,32,34,51)         11.3958         estimate D2E/DX2                !
 ! D267  D(18,33,36,35)          4.361          estimate D2E/DX2                !
 ! D268  D(18,33,36,52)       -142.2882         estimate D2E/DX2                !
 ! D269  D(32,33,36,35)        142.7943         estimate D2E/DX2                !
 ! D270  D(32,33,36,52)         -3.8548         estimate D2E/DX2                !
 ! D271  D(31,34,51,52)        134.8276         estimate D2E/DX2                !
 ! D272  D(31,34,51,54)         -7.0627         estimate D2E/DX2                !
 ! D273  D(32,34,51,52)        -10.2081         estimate D2E/DX2                !
 ! D274  D(32,34,51,54)       -152.0984         estimate D2E/DX2                !
 ! D275  D(19,35,36,33)        -26.7061         estimate D2E/DX2                !
 ! D276  D(19,35,36,52)        122.0618         estimate D2E/DX2                !
 ! D277  D(37,35,36,33)       -144.0058         estimate D2E/DX2                !
 ! D278  D(37,35,36,52)          4.7621         estimate D2E/DX2                !
 ! D279  D(74,35,36,33)         95.0705         estimate D2E/DX2                !
 ! D280  D(74,35,36,52)       -116.1616         estimate D2E/DX2                !
 ! D281  D(19,35,37,39)         26.1747         estimate D2E/DX2                !
 ! D282  D(19,35,37,53)       -124.0349         estimate D2E/DX2                !
 ! D283  D(36,35,37,39)        143.9717         estimate D2E/DX2                !
 ! D284  D(36,35,37,53)         -6.2379         estimate D2E/DX2                !
 ! D285  D(74,35,37,39)        -94.2796         estimate D2E/DX2                !
 ! D286  D(74,35,37,53)        115.5108         estimate D2E/DX2                !
 ! D287  D(33,36,52,51)          5.1186         estimate D2E/DX2                !
 ! D288  D(33,36,52,53)        148.4458         estimate D2E/DX2                !
 ! D289  D(35,36,52,51)       -144.9686         estimate D2E/DX2                !
 ! D290  D(35,36,52,53)         -1.6413         estimate D2E/DX2                !
 ! D291  D(35,37,39,38)         -1.2732         estimate D2E/DX2                !
 ! D292  D(35,37,39,57)       -148.0144         estimate D2E/DX2                !
 ! D293  D(53,37,39,38)        146.1225         estimate D2E/DX2                !
 ! D294  D(53,37,39,57)         -0.6186         estimate D2E/DX2                !
 ! D295  D(35,37,53,52)          5.7021         estimate D2E/DX2                !
 ! D296  D(35,37,53,55)        149.3529         estimate D2E/DX2                !
 ! D297  D(39,37,53,52)       -145.3145         estimate D2E/DX2                !
 ! D298  D(39,37,53,55)         -1.6638         estimate D2E/DX2                !
 ! D299  D(21,38,39,37)        -26.1904         estimate D2E/DX2                !
 ! D300  D(21,38,39,57)        122.9319         estimate D2E/DX2                !
 ! D301  D(42,38,39,37)       -142.2963         estimate D2E/DX2                !
 ! D302  D(42,38,39,57)          6.826          estimate D2E/DX2                !
 ! D303  D(73,38,39,37)         94.505          estimate D2E/DX2                !
 ! D304  D(73,38,39,57)       -116.3728         estimate D2E/DX2                !
 ! D305  D(21,38,42,40)         26.0211         estimate D2E/DX2                !
 ! D306  D(21,38,42,58)       -123.9138         estimate D2E/DX2                !
 ! D307  D(39,38,42,40)        143.2449         estimate D2E/DX2                !
 ! D308  D(39,38,42,58)         -6.69           estimate D2E/DX2                !
 ! D309  D(73,38,42,40)        -93.9715         estimate D2E/DX2                !
 ! D310  D(73,38,42,58)        116.0936         estimate D2E/DX2                !
 ! D311  D(37,39,57,58)        145.723          estimate D2E/DX2                !
 ! D312  D(37,39,57,60)          1.9246         estimate D2E/DX2                !
 ! D313  D(38,39,57,58)         -4.6268         estimate D2E/DX2                !
 ! D314  D(38,39,57,60)       -148.4252         estimate D2E/DX2                !
 ! D315  D(23,40,41,24)         -9.6204         estimate D2E/DX2                !
 ! D316  D(23,40,41,43)       -153.6769         estimate D2E/DX2                !
 ! D317  D(42,40,41,24)        141.0732         estimate D2E/DX2                !
 ! D318  D(42,40,41,43)         -2.9833         estimate D2E/DX2                !
 ! D319  D(23,40,42,38)          3.511          estimate D2E/DX2                !
 ! D320  D(23,40,42,58)        150.8157         estimate D2E/DX2                !
 ! D321  D(41,40,42,38)       -143.4932         estimate D2E/DX2                !
 ! D322  D(41,40,42,58)          3.8115         estimate D2E/DX2                !
 ! D323  D(24,41,43,46)         -1.3675         estimate D2E/DX2                !
 ! D324  D(24,41,43,59)       -139.1897         estimate D2E/DX2                !
 ! D325  D(40,41,43,46)        138.45           estimate D2E/DX2                !
 ! D326  D(40,41,43,59)          0.6278         estimate D2E/DX2                !
 ! D327  D(38,42,58,57)          4.367          estimate D2E/DX2                !
 ! D328  D(38,42,58,59)        148.6078         estimate D2E/DX2                !
 ! D329  D(40,42,58,57)       -146.7177         estimate D2E/DX2                !
 ! D330  D(40,42,58,59)         -2.4768         estimate D2E/DX2                !
 ! D331  D(41,43,46,44)          0.4344         estimate D2E/DX2                !
 ! D332  D(41,43,46,61)       -141.9289         estimate D2E/DX2                !
 ! D333  D(59,43,46,44)        142.4736         estimate D2E/DX2                !
 ! D334  D(59,43,46,61)          0.1103         estimate D2E/DX2                !
 ! D335  D(41,43,59,58)          0.7654         estimate D2E/DX2                !
 ! D336  D(41,43,59,65)        143.9766         estimate D2E/DX2                !
 ! D337  D(46,43,59,58)       -142.0625         estimate D2E/DX2                !
 ! D338  D(46,43,59,65)          1.1487         estimate D2E/DX2                !
 ! D339  D(26,44,45,28)          0.1341         estimate D2E/DX2                !
 ! D340  D(26,44,45,48)       -142.2586         estimate D2E/DX2                !
 ! D341  D(46,44,45,28)        140.3705         estimate D2E/DX2                !
 ! D342  D(46,44,45,48)         -2.0222         estimate D2E/DX2                !
 ! D343  D(26,44,46,43)          1.2103         estimate D2E/DX2                !
 ! D344  D(26,44,46,61)        139.4961         estimate D2E/DX2                !
 ! D345  D(45,44,46,43)       -134.0671         estimate D2E/DX2                !
 ! D346  D(45,44,46,61)          4.2186         estimate D2E/DX2                !
 ! D347  D(28,45,48,47)         -2.0851         estimate D2E/DX2                !
 ! D348  D(28,45,48,62)       -140.532          estimate D2E/DX2                !
 ! D349  D(44,45,48,47)        135.9553         estimate D2E/DX2                !
 ! D350  D(44,45,48,62)         -2.4916         estimate D2E/DX2                !
 ! D351  D(43,46,61,62)        139.9625         estimate D2E/DX2                !
 ! D352  D(43,46,61,65)         -1.3152         estimate D2E/DX2                !
 ! D353  D(44,46,61,62)         -1.9599         estimate D2E/DX2                !
 ! D354  D(44,46,61,65)       -143.2376         estimate D2E/DX2                !
 ! D355  D(30,47,48,45)         -1.6726         estimate D2E/DX2                !
 ! D356  D(30,47,48,62)        140.6297         estimate D2E/DX2                !
 ! D357  D(50,47,48,45)       -147.7744         estimate D2E/DX2                !
 ! D358  D(50,47,48,62)         -5.4721         estimate D2E/DX2                !
 ! D359  D(30,47,50,49)          2.7106         estimate D2E/DX2                !
 ! D360  D(30,47,50,63)       -140.9282         estimate D2E/DX2                !
 ! D361  D(48,47,50,49)        149.058          estimate D2E/DX2                !
 ! D362  D(48,47,50,63)          5.4192         estimate D2E/DX2                !
 ! D363  D(45,48,62,61)          4.7431         estimate D2E/DX2                !
 ! D364  D(45,48,62,63)        146.077          estimate D2E/DX2                !
 ! D365  D(47,48,62,61)       -137.9347         estimate D2E/DX2                !
 ! D366  D(47,48,62,63)          3.3992         estimate D2E/DX2                !
 ! D367  D(31,49,50,47)          2.7072         estimate D2E/DX2                !
 ! D368  D(31,49,50,63)        141.5687         estimate D2E/DX2                !
 ! D369  D(54,49,50,47)       -136.2548         estimate D2E/DX2                !
 ! D370  D(54,49,50,63)          2.6066         estimate D2E/DX2                !
 ! D371  D(31,49,54,51)          1.2374         estimate D2E/DX2                !
 ! D372  D(31,49,54,56)       -141.2873         estimate D2E/DX2                !
 ! D373  D(50,49,54,51)        144.4791         estimate D2E/DX2                !
 ! D374  D(50,49,54,56)          1.9544         estimate D2E/DX2                !
 ! D375  D(47,50,63,62)         -3.3687         estimate D2E/DX2                !
 ! D376  D(47,50,63,64)        137.5728         estimate D2E/DX2                !
 ! D377  D(49,50,63,62)       -145.9301         estimate D2E/DX2                !
 ! D378  D(49,50,63,64)         -4.9886         estimate D2E/DX2                !
 ! D379  D(34,51,52,36)          1.6498         estimate D2E/DX2                !
 ! D380  D(34,51,52,53)       -137.3795         estimate D2E/DX2                !
 ! D381  D(54,51,52,36)        139.0222         estimate D2E/DX2                !
 ! D382  D(54,51,52,53)         -0.0071         estimate D2E/DX2                !
 ! D383  D(34,51,54,49)          3.6739         estimate D2E/DX2                !
 ! D384  D(34,51,54,56)        145.5493         estimate D2E/DX2                !
 ! D385  D(52,51,54,49)       -138.2103         estimate D2E/DX2                !
 ! D386  D(52,51,54,56)          3.6651         estimate D2E/DX2                !
 ! D387  D(36,52,53,37)         -2.4914         estimate D2E/DX2                !
 ! D388  D(36,52,53,55)       -147.1376         estimate D2E/DX2                !
 ! D389  D(51,52,53,37)        140.8169         estimate D2E/DX2                !
 ! D390  D(51,52,53,55)         -3.8294         estimate D2E/DX2                !
 ! D391  D(37,53,55,56)       -135.888          estimate D2E/DX2                !
 ! D392  D(37,53,55,60)          2.6054         estimate D2E/DX2                !
 ! D393  D(52,53,55,56)          4.0881         estimate D2E/DX2                !
 ! D394  D(52,53,55,60)        142.5815         estimate D2E/DX2                !
 ! D395  D(49,54,56,55)        134.5267         estimate D2E/DX2                !
 ! D396  D(49,54,56,64)         -4.1587         estimate D2E/DX2                !
 ! D397  D(51,54,56,55)         -3.4283         estimate D2E/DX2                !
 ! D398  D(51,54,56,64)       -142.1137         estimate D2E/DX2                !
 ! D399  D(53,55,56,54)         -0.4973         estimate D2E/DX2                !
 ! D400  D(53,55,56,64)        142.9125         estimate D2E/DX2                !
 ! D401  D(60,55,56,54)       -142.7326         estimate D2E/DX2                !
 ! D402  D(60,55,56,64)          0.6771         estimate D2E/DX2                !
 ! D403  D(53,55,60,57)         -1.2837         estimate D2E/DX2                !
 ! D404  D(53,55,60,66)       -145.1538         estimate D2E/DX2                !
 ! D405  D(56,55,60,57)        142.0286         estimate D2E/DX2                !
 ! D406  D(56,55,60,66)         -1.8414         estimate D2E/DX2                !
 ! D407  D(54,56,64,63)          1.7845         estimate D2E/DX2                !
 ! D408  D(54,56,64,66)        143.3932         estimate D2E/DX2                !
 ! D409  D(55,56,64,63)       -140.8632         estimate D2E/DX2                !
 ! D410  D(55,56,64,66)          0.7454         estimate D2E/DX2                !
 ! D411  D(39,57,58,42)          0.1464         estimate D2E/DX2                !
 ! D412  D(39,57,58,59)       -145.0007         estimate D2E/DX2                !
 ! D413  D(60,57,58,42)        144.6663         estimate D2E/DX2                !
 ! D414  D(60,57,58,59)         -0.4808         estimate D2E/DX2                !
 ! D415  D(39,57,60,55)         -0.9633         estimate D2E/DX2                !
 ! D416  D(39,57,60,66)        137.9584         estimate D2E/DX2                !
 ! D417  D(58,57,60,55)       -140.7313         estimate D2E/DX2                !
 ! D418  D(58,57,60,66)         -1.8095         estimate D2E/DX2                !
 ! D419  D(42,58,59,43)          0.1197         estimate D2E/DX2                !
 ! D420  D(42,58,59,65)       -138.1251         estimate D2E/DX2                !
 ! D421  D(57,58,59,43)        140.7617         estimate D2E/DX2                !
 ! D422  D(57,58,59,65)          2.5169         estimate D2E/DX2                !
 ! D423  D(43,59,65,61)         -1.9937         estimate D2E/DX2                !
 ! D424  D(43,59,65,66)       -144.4015         estimate D2E/DX2                !
 ! D425  D(58,59,65,61)        140.1413         estimate D2E/DX2                !
[...]
              Bcc     0.0057     0.762     0.272     0.254  0.6710  0.4434  0.5942
 
              Baa    -0.0093    -1.248    -0.445    -0.416 -0.1881 -0.2310  0.9546
    14 C(13)  Bbb    -0.0069    -0.920    -0.328    -0.307  0.8700 -0.4903  0.0528
              Bcc     0.0162     2.167     0.773     0.723  0.4558  0.8404  0.2932
 
              Baa    -0.1493   -20.039    -7.151    -6.684 -0.6064 -0.3320  0.7225
    15 C(13)  Bbb     0.0606     8.129     2.901     2.711 -0.1877  0.9427  0.2757
              Bcc     0.0888    11.911     4.250     3.973  0.7727 -0.0315  0.6340
 
              Baa    -0.0041    -0.556    -0.199    -0.186 -0.3167 -0.3352  0.8873
    16 C(13)  Bbb    -0.0003    -0.044    -0.016    -0.015  0.8904 -0.4276  0.1562
              Bcc     0.0045     0.601     0.214     0.200  0.3271  0.8395  0.4339
 
              Baa    -0.0804   -10.791    -3.850    -3.599 -0.3311  0.2176  0.9182
    17 C(13)  Bbb     0.0323     4.334     1.547     1.446  0.9115 -0.1779  0.3708
              Bcc     0.0481     6.457     2.304     2.154  0.2440  0.9597 -0.1394
 
              Baa    -0.2493   -33.453   -11.937   -11.159  0.2076  0.9709  0.1190
    18 C(13)  Bbb    -0.2406   -32.283   -11.519   -10.768  0.8618 -0.2391  0.4473
              Bcc     0.4899    65.736    23.456    21.927 -0.4628 -0.0097  0.8864
 
              Baa    -0.0682    -9.155    -3.267    -3.054  0.8574  0.4763 -0.1947
    19 C(13)  Bbb    -0.0641    -8.600    -3.069    -2.869 -0.5080  0.7233 -0.4678
              Bcc     0.1323    17.755     6.335     5.922 -0.0820  0.5000  0.8621
 
              Baa    -0.0737    -9.892    -3.530    -3.300  0.8874 -0.1009  0.4498
    20 C(13)  Bbb    -0.0685    -9.187    -3.278    -3.064 -0.4249 -0.5570  0.7136
              Bcc     0.1422    19.079     6.808     6.364 -0.1785  0.8244  0.5372
 
              Baa    -0.0573    -7.685    -2.742    -2.563 -0.2261  0.6667  0.7102
    21 C(13)  Bbb     0.0256     3.430     1.224     1.144  0.9693  0.2266  0.0959
              Bcc     0.0317     4.254     1.518     1.419 -0.0970  0.7101 -0.6974
 
              Baa    -0.0033    -0.437    -0.156    -0.146 -0.4702  0.8749  0.1164
    22 C(13)  Bbb    -0.0007    -0.097    -0.034    -0.032  0.8777  0.4774 -0.0429
              Bcc     0.0040     0.533     0.190     0.178  0.0931 -0.0820  0.9923
 
              Baa    -0.0024    -0.321    -0.114    -0.107 -0.3481  0.8344  0.4272
    23 C(13)  Bbb    -0.0005    -0.061    -0.022    -0.020  0.8591  0.1016  0.5016
              Bcc     0.0028     0.382     0.136     0.127 -0.3752 -0.5417  0.7522
 
              Baa    -0.0027    -0.356    -0.127    -0.119  0.8049  0.3921  0.4454
    24 C(13)  Bbb    -0.0016    -0.220    -0.078    -0.073 -0.5867  0.4135  0.6963
              Bcc     0.0043     0.576     0.206     0.192 -0.0889  0.8218 -0.5629
 
              Baa    -0.0025    -0.331    -0.118    -0.110  0.7291 -0.1116  0.6752
    25 C(13)  Bbb     0.0009     0.116     0.041     0.039 -0.0029  0.9861  0.1661
              Bcc     0.0016     0.215     0.077     0.072 -0.6844 -0.1230  0.7187
 
              Baa    -0.0019    -0.255    -0.091    -0.085  0.3095 -0.4730  0.8249
    26 C(13)  Bbb     0.0005     0.064     0.023     0.021  0.7542  0.6505  0.0900
              Bcc     0.0014     0.191     0.068     0.064 -0.5792  0.5942  0.5581
 
              Baa    -0.0017    -0.226    -0.081    -0.075  0.1880  0.8446  0.5013
    27 C(13)  Bbb    -0.0001    -0.015    -0.005    -0.005  0.3864 -0.5328  0.7529
              Bcc     0.0018     0.241     0.086     0.080  0.9030  0.0522 -0.4265
 
              Baa    -0.0019    -0.256    -0.091    -0.085 -0.3696  0.9280 -0.0470
    28 C(13)  Bbb    -0.0013    -0.180    -0.064    -0.060  0.9028  0.3467 -0.2544
              Bcc     0.0032     0.435     0.155     0.145  0.2198  0.1364  0.9660
 
              Baa    -0.0096    -1.284    -0.458    -0.428  0.4716  0.8656  0.1684
    29 C(13)  Bbb     0.0039     0.528     0.188     0.176  0.5630 -0.4426  0.6980
              Bcc     0.0056     0.756     0.270     0.252 -0.6787  0.2344  0.6960
 
              Baa    -0.0014    -0.186    -0.066    -0.062  0.3113  0.7393 -0.5971
    30 C(13)  Bbb    -0.0010    -0.131    -0.047    -0.044  0.9496 -0.2169  0.2265
              Bcc     0.0024     0.317     0.113     0.106 -0.0380  0.6375  0.7695
 
              Baa    -0.0068    -0.914    -0.326    -0.305  0.3837 -0.2799  0.8800
    31 C(13)  Bbb    -0.0052    -0.703    -0.251    -0.234  0.9122 -0.0336 -0.4084
              Bcc     0.0121     1.617     0.577     0.539  0.1439  0.9594  0.2424
 
              Baa    -0.0423    -5.674    -2.025    -1.893  0.8623 -0.4143 -0.2912
    32 C(13)  Bbb    -0.0414    -5.560    -1.984    -1.855  0.4749  0.4619  0.7491
              Bcc     0.0837    11.234     4.009     3.747  0.1759  0.7842 -0.5950
 
              Baa    -0.0884   -11.864    -4.233    -3.957 -0.2510 -0.3546  0.9007
    33 C(13)  Bbb     0.0344     4.616     1.647     1.540  0.3119  0.8512  0.4221
              Bcc     0.0540     7.248     2.586     2.418  0.9164 -0.3869  0.1031
 
              Baa    -0.0578    -7.760    -2.769    -2.589  0.0251  0.9338 -0.3570
    34 C(13)  Bbb     0.0280     3.758     1.341     1.254  0.2800  0.3362  0.8992
              Bcc     0.0298     4.002     1.428     1.335  0.9597 -0.1225 -0.2530
 
              Baa    -0.0076    -1.024    -0.365    -0.342 -0.3380 -0.0896  0.9369
    35 C(13)  Bbb     0.0020     0.265     0.094     0.088  0.7624 -0.6097  0.2167
              Bcc     0.0057     0.759     0.271     0.253  0.5518  0.7875  0.2744
 
              Baa    -0.1122   -15.061    -5.374    -5.024  0.7904  0.6069  0.0832
    36 C(13)  Bbb    -0.1079   -14.480    -5.167    -4.830 -0.6108  0.7705  0.1824
              Bcc     0.2201    29.541    10.541     9.854  0.0466 -0.1950  0.9797
 
              Baa    -0.0106    -1.420    -0.507    -0.474  0.3293  0.0698  0.9416
    37 C(13)  Bbb     0.0024     0.323     0.115     0.108 -0.4099  0.9090  0.0760
              Bcc     0.0082     1.097     0.392     0.366  0.8506  0.4110 -0.3280
 
              Baa    -0.0010    -0.139    -0.049    -0.046 -0.2369  0.3377  0.9110
    38 C(13)  Bbb    -0.0006    -0.085    -0.030    -0.029  0.6670 -0.6252  0.4052
              Bcc     0.0017     0.224     0.080     0.075  0.7064  0.7036 -0.0771
 
              Baa    -0.0043    -0.580    -0.207    -0.193 -0.5800  0.8006 -0.1505
    39 C(13)  Bbb    -0.0027    -0.359    -0.128    -0.120 -0.5065 -0.2096  0.8364
              Bcc     0.0070     0.938     0.335     0.313  0.6380  0.5614  0.5271
 
              Baa    -0.0015    -0.204    -0.073    -0.068 -0.0355  0.9367  0.3482
    40 C(13)  Bbb    -0.0010    -0.128    -0.046    -0.043  0.6045 -0.2573  0.7539
              Bcc     0.0025     0.332     0.118     0.111  0.7958  0.2373 -0.5571
 
              Baa    -0.0041    -0.552    -0.197    -0.184  0.1522  0.9334 -0.3249
    41 C(13)  Bbb     0.0016     0.219     0.078     0.073  0.6942  0.1330  0.7074
              Bcc     0.0025     0.333     0.119     0.111  0.7035 -0.3332 -0.6277
 
              Baa    -0.0006    -0.074    -0.026    -0.025  0.2848  0.7054  0.6490
    42 C(13)  Bbb    -0.0002    -0.034    -0.012    -0.011 -0.0506 -0.6651  0.7451
              Bcc     0.0008     0.107     0.038     0.036  0.9572 -0.2451 -0.1537
 
              Baa    -0.0020    -0.271    -0.097    -0.090  0.6714  0.2537  0.6963
    43 C(13)  Bbb    -0.0016    -0.217    -0.078    -0.072 -0.6161  0.7132  0.3343
              Bcc     0.0036     0.488     0.174     0.163  0.4118  0.6534 -0.6352
 
              Baa    -0.0056    -0.751    -0.268    -0.250  0.6139  0.7529  0.2373
    44 C(13)  Bbb    -0.0050    -0.675    -0.241    -0.225  0.7766 -0.6299 -0.0107
              Bcc     0.0106     1.426     0.509     0.476 -0.1414 -0.1909  0.9714
 
              Baa    -0.0054    -0.721    -0.257    -0.240  0.0545  0.1849  0.9813
    45 C(13)  Bbb     0.0026     0.351     0.125     0.117 -0.3390  0.9278 -0.1560
              Bcc     0.0028     0.370     0.132     0.123  0.9392  0.3241 -0.1132
 
              Baa    -0.0056    -0.757    -0.270    -0.252 -0.4968 -0.2790  0.8218
    46 C(13)  Bbb     0.0023     0.307     0.109     0.102  0.3942  0.7711  0.5001
              Bcc     0.0034     0.450     0.161     0.150  0.7732 -0.5724  0.2731
 
              Baa    -0.0082    -1.104    -0.394    -0.368  0.0558  0.7594  0.6483
    47 C(13)  Bbb     0.0038     0.515     0.184     0.172  0.4708 -0.5926  0.6536
              Bcc     0.0044     0.590     0.210     0.197  0.8805  0.2687 -0.3906
 
              Baa    -0.0028    -0.381    -0.136    -0.127  0.2504  0.9048 -0.3445
    48 C(13)  Bbb    -0.0025    -0.338    -0.121    -0.113  0.9453 -0.1517  0.2886
              Bcc     0.0054     0.719     0.257     0.240 -0.2089  0.3980  0.8933
 
              Baa    -0.0032    -0.435    -0.155    -0.145  0.7517  0.3621  0.5512
    49 C(13)  Bbb    -0.0018    -0.246    -0.088    -0.082 -0.4163 -0.3876  0.8225
              Bcc     0.0051     0.680     0.243     0.227 -0.5115  0.8477  0.1407
 
              Baa    -0.0038    -0.511    -0.182    -0.170 -0.5037  0.7934  0.3419
    50 C(13)  Bbb     0.0012     0.157     0.056     0.052  0.3428 -0.1797  0.9221
              Bcc     0.0026     0.353     0.126     0.118  0.7930  0.5816 -0.1814
 
              Baa    -0.0637    -8.552    -3.052    -2.853  0.6464  0.5539  0.5246
    51 C(13)  Bbb    -0.0595    -7.988    -2.850    -2.665  0.7127 -0.1929 -0.6744
              Bcc     0.1233    16.540     5.902     5.517 -0.2724  0.8099 -0.5195
 
              Baa    -0.0475    -6.376    -2.275    -2.127  0.3293 -0.5252  0.7847
    52 C(13)  Bbb     0.0177     2.378     0.849     0.793  0.7682  0.6323  0.1008
              Bcc     0.0298     3.998     1.427     1.334 -0.5491  0.5696  0.6116
 
              Baa    -0.0188    -2.527    -0.902    -0.843  0.1698  0.9816  0.0870
    53 C(13)  Bbb    -0.0169    -2.269    -0.810    -0.757  0.7769 -0.0790 -0.6247
              Bcc     0.0357     4.796     1.711     1.600  0.6063 -0.1737  0.7760
 
              Baa    -0.0326    -4.374    -1.561    -1.459 -0.5054  0.8142 -0.2858
    54 C(13)  Bbb     0.0138     1.852     0.661     0.618  0.4835  0.5415  0.6878
              Bcc     0.0188     2.522     0.900     0.841  0.7147  0.2094 -0.6673
 
              Baa    -0.0188    -2.524    -0.901    -0.842  0.8029 -0.3705  0.4670
    55 C(13)  Bbb     0.0083     1.110     0.396     0.370  0.5452  0.7731 -0.3241
              Bcc     0.0105     1.414     0.505     0.472 -0.2410  0.5148  0.8227
 
              Baa    -0.0349    -4.688    -1.673    -1.564  0.5428  0.8000  0.2557
    56 C(13)  Bbb    -0.0324    -4.347    -1.551    -1.450 -0.3032 -0.0973  0.9480
              Bcc     0.0673     9.035     3.224     3.014  0.7833 -0.5920  0.1897
 
              Baa    -0.0087    -1.168    -0.417    -0.390  0.7456  0.4562  0.4857
    57 C(13)  Bbb     0.0039     0.519     0.185     0.173 -0.2814  0.8763 -0.3910
              Bcc     0.0048     0.650     0.232     0.217 -0.6040  0.1549  0.7818
 
              Baa    -0.0010    -0.132    -0.047    -0.044  0.1900  0.1824  0.9647
    58 C(13)  Bbb    -0.0007    -0.089    -0.032    -0.030 -0.4780  0.8754 -0.0714
              Bcc     0.0017     0.222     0.079     0.074  0.8575  0.4476 -0.2535
 
              Baa    -0.0025    -0.329    -0.117    -0.110  0.7446  0.6378 -0.1970
    59 C(13)  Bbb     0.0012     0.157     0.056     0.052  0.5272 -0.3808  0.7596
              Bcc     0.0013     0.172     0.061     0.057 -0.4094  0.6695  0.6198
 
              Baa    -0.0033    -0.444    -0.159    -0.148 -0.1717  0.9590 -0.2253
    60 C(13)  Bbb    -0.0023    -0.306    -0.109    -0.102 -0.3128  0.1638  0.9356
              Bcc     0.0056     0.750     0.268     0.250  0.9342  0.2312  0.2719
 
              Baa    -0.0117    -1.577    -0.563    -0.526  0.3802  0.8182  0.4313
    61 C(13)  Bbb    -0.0111    -1.489    -0.531    -0.497  0.5848 -0.5740  0.5733
              Bcc     0.0228     3.065     1.094     1.022  0.7166  0.0343 -0.6967
 
              Baa    -0.0084    -1.131    -0.404    -0.377 -0.6076  0.3254  0.7246
    62 C(13)  Bbb     0.0036     0.477     0.170     0.159  0.7943  0.2528  0.5525
              Bcc     0.0049     0.654     0.233     0.218 -0.0034  0.9112 -0.4120
 
              Baa    -0.0153    -2.057    -0.734    -0.686  0.7518  0.4410  0.4903
    63 C(13)  Bbb    -0.0145    -1.947    -0.695    -0.649 -0.0858 -0.6718  0.7357
              Bcc     0.0298     4.004     1.429     1.336  0.6538 -0.5952 -0.4672
 
              Baa    -0.0125    -1.680    -0.599    -0.560  0.8502 -0.5096 -0.1323
    64 C(13)  Bbb     0.0049     0.662     0.236     0.221  0.5250  0.8391  0.1421
              Bcc     0.0076     1.018     0.363     0.340  0.0386 -0.1903  0.9810
 
              Baa    -0.0042    -0.568    -0.203    -0.189  0.9114  0.0663 -0.4061
    65 C(13)  Bbb     0.0017     0.233     0.083     0.078 -0.0297  0.9949  0.0959
              Bcc     0.0025     0.334     0.119     0.111  0.4105 -0.0753  0.9088
 
              Baa    -0.0053    -0.714    -0.255    -0.238  0.1543  0.9073  0.3911
    66 C(13)  Bbb    -0.0046    -0.617    -0.220    -0.206  0.1604 -0.4136  0.8962
              Bcc     0.0099     1.331     0.475     0.444  0.9749 -0.0756 -0.2093
 
              Baa    -0.0084    -0.440    -0.157    -0.147  0.5844  0.8104  0.0430
    67 Cl(35) Bbb    -0.0080    -0.420    -0.150    -0.140 -0.1342  0.0442  0.9900
              Bcc     0.0164     0.859     0.307     0.287  0.8003 -0.5843  0.1346
 
              Baa    -0.0132    -0.693    -0.247    -0.231  0.9359  0.2499 -0.2484
    68 Cl(35) Bbb    -0.0046    -0.243    -0.087    -0.081 -0.1677  0.9360  0.3096
              Bcc     0.0179     0.936     0.334     0.312  0.3099 -0.2481  0.9178
 
              Baa    -0.1315    -6.883    -2.456    -2.296 -0.4165 -0.1456  0.8974
    69 Cl(35) Bbb    -0.1167    -6.107    -2.179    -2.037 -0.5318  0.8396 -0.1106
              Bcc     0.2482    12.990     4.635     4.333  0.7374  0.5233  0.4271
 
              Baa    -0.0450    -2.358    -0.841    -0.786  0.0587  0.9953  0.0771
    70 Cl(35) Bbb     0.0118     0.616     0.220     0.206  0.1733 -0.0862  0.9811
              Bcc     0.0333     1.741     0.621     0.581  0.9831 -0.0442 -0.1775
 
              Baa    -0.0265    -1.385    -0.494    -0.462 -0.5376  0.7310 -0.4202
    71 Cl(35) Bbb     0.0104     0.545     0.194     0.182  0.7459  0.1800 -0.6412
              Bcc     0.0161     0.840     0.300     0.280  0.3931  0.6581  0.6421
 
              Baa    -0.0530    -2.772    -0.989    -0.925 -0.3946  0.3238  0.8599
    72 Cl(35) Bbb    -0.0452    -2.368    -0.845    -0.790  0.9174  0.0864  0.3885
              Bcc     0.0982     5.140     1.834     1.715  0.0515  0.9422 -0.3312
 
              Baa    -0.0313    -1.639    -0.585    -0.547  0.6462  0.6065  0.4633
    73 Cl(35) Bbb     0.0119     0.624     0.223     0.208 -0.2859 -0.3704  0.8838
              Bcc     0.0194     1.015     0.362     0.339  0.7076 -0.7036 -0.0660
 
              Baa    -0.1352    -7.077    -2.525    -2.361  0.9542  0.2018 -0.2208
    74 Cl(35) Bbb    -0.1175    -6.151    -2.195    -2.052 -0.2597  0.9252 -0.2768
              Bcc     0.2527    13.228     4.720     4.412  0.1484  0.3215  0.9352
 
              Baa    -0.2039   -10.672    -3.808    -3.560  0.4424 -0.6281  0.6402
    75 Cl(35) Bbb    -0.1886    -9.872    -3.523    -3.293  0.6776  0.7017  0.2201
              Bcc     0.3925    20.544     7.331     6.853 -0.5874  0.3364  0.7360
 

 ---------------------------------------------------------------------------------

 No NMR shielding tensors so no spin-rotation constants.
 Leave Link  601 at Sat Jul 16 04:59:35 2022, MaxMem=  1342177280 cpu:             125.3 elap:               2.9
 (Enter /home/mkliu/g16/l9999.exe)
 1\1\GINC-NODE04\FOpt\UB3LYP\6-311G(d,p)\C66Cl9(2)\MKLIU\16-Jul-2022\0\
 \#P opt b3lyp/6-311G(d, p) empiricaldispersion=GD3\\force\\0,2\C,-1.36
 09033506,1.921186247,-4.0631016514\C,0.2090317824,2.2098639756,-3.9674
 138638\C,0.978061899,0.8554575165,-4.2956087352\C,-1.458489128,0.33740
 89839,-4.1646645366\C,-0.0684627735,-0.1860558429,-4.1857451278\C,-2.1
 278423032,-0.1132011683,-2.9112424124\C,-2.198483275,2.2807528094,-2.7
 052104637\C,-2.6016379931,0.9216487601,-2.1466587817\C,-1.462468399,2.
 9706891451,-1.5518780388\C,0.7088031722,2.5305276244,-2.5989543972\C,-
 0.0351809302,3.1738108036,-1.5886432407\C,1.9403943793,0.6680678779,-3
 .1262791434\C,1.8734173605,1.8265537897,-2.2895511466\C,2.2972202657,-
 0.5374455974,-2.5891130961\C,0.2074044388,-1.3892908783,-3.6381679839\
 C,1.6130317699,-1.7809499335,-3.1750890059\C,-1.9160694924,-1.39403550
 21,-2.3674260468\C,-0.7719646628,-2.115571733,-2.8897763967\C,-2.41200
 60478,-1.6637512451,-1.0660492883\C,-3.0261258659,0.69790868,-0.828260
 7441\C,-2.9869336828,-0.615440361,-0.3062495451\C,-2.0781281787,2.9268
 527018,-0.3147336364\C,-3.1956144225,1.9267806142,0.0487560766\C,-1.37
 15043163,3.2593856987,0.8852417015\C,0.6698227037,3.4273561072,-0.3897
 554853\C,-0.0170939117,3.5739427178,0.8572463187\C,2.46120963,1.855001
 1251,-0.998732173\C,1.946964619,2.8249335849,-0.1183662846\C,2.9305950
 949,-0.5848813777,-1.2668357313\C,3.0828472534,0.6472629264,-0.4921883
 289\C,2.9566825506,-1.80785655,-0.5677162615\C,1.3029512966,-2.8022556
 198,-2.1077702349\C,-0.1050025904,-3.0535906223,-2.0408098099\C,2.0579
 898512,-2.9021349213,-0.9725038785\C,-2.0780742569,-3.0170165819,-0.44
 0591258\C,-0.6960509709,-3.4910631269,-0.8674320896\C,-1.9204832816,-2
 .923844879,1.0627646674\C,-3.3642985546,-0.8492088159,1.1603232772\C,-
 2.5127630622,-1.937836157,1.7936234675\C,-2.8857267692,1.6114842705,1.
 4929533279\C,-1.8999196245,2.5103652445,2.0021495368\C,-3.0045120885,0
 .3576687029,2.0128467671\C,-1.0746450635,2.1387744952,3.0646904243\C,0
 .8553172887,3.1340165896,1.9262722036\C,2.0788497013,2.6743308676,1.30
 64181232\C,0.3426523443,2.4530754642,3.0232999071\C,3.2888959979,0.568
 9685043,0.908111276\C,2.7556252176,1.5780949887,1.810180747\C,3.043345
 0682,-1.8498515197,0.859657809\C,3.2392532668,-0.6843799213,1.59365239
 21\C,1.4921259386,-3.4706988867,0.2199592337\C,0.1127300109,-3.7419609
 677,0.2645465339\C,-0.6431743258,-3.4411816062,1.4604006218\C,2.132950
 4849,-2.868192548,1.3611444651\C,0.0048540215,-2.950673828,2.593096392
 5\C,1.426856386,-2.6500350078,2.5386406958\C,-1.8747540533,-1.44394186
 24,2.9779317374\C,-2.174185124,-0.0391444178,3.1110631653\C,-1.2251258
 667,0.834513394,3.647035449\C,-0.633880559,-1.939924684,3.385738578\C,
 1.0659134021,1.3288871146,3.5818555055\C,2.2710398617,0.9143730607,3.0
 016682022\C,2.567700847,-0.4920316727,2.8668813263\C,1.6546779698,-1.4
 461850502,3.3163488498\C,0.0954057056,0.3360978279,3.9953108259\C,0.38
 43799836,-1.0193457547,3.8650171886\Cl,-2.0363077723,2.7025366803,-5.5
 169257366\Cl,0.7709857139,3.6318094927,-4.9550216988\Cl,1.8382275832,0
 .7978664322,-5.8944795504\Cl,2.6187521872,-2.5449222501,-4.5209679275\
 Cl,-3.6760086207,3.2892456168,-3.0773762717\Cl,-4.9163358591,2.5930896
 984,-0.0282941335\Cl,-5.1638939098,-1.2512173325,1.2519368071\Cl,-3.39
 98744778,-4.2340997052,-0.9126292267\Cl,-2.4035150331,-0.3447338307,-5
 .5973379052\\Version=ES64L-G16RevA.03\State=2-A\HF=-6657.4452657\S2=0.
 7885\S2-1=0.\S2A=0.751312\RMSD=4.066e-09\RMSF=3.678e-05\Dipole=1.41157
 98,0.1095085,1.8762437\Quadrupole=-4.1031661,4.0592442,0.043922,0.0952
 113,4.7794442,0.4411403\PG=C01 [X(C66Cl9)]\\@


 IF YOU GET CONFUSED, LOGIC OUT YOUR DILEMMA

           --  PICKER X-RAY CORP.    DIGITAL PRINTER MANUAL CA. 1964
 Job cpu time:       5 days 15 hours 45 minutes 30.3 seconds.
 Elapsed time:       0 days  2 hours 49 minutes 58.8 seconds.
 File lengths (MBytes):  RWF=   2194 Int=      0 D2E=      0 Chk=    198 Scr=      1
 Normal termination of Gaussian 16 at Sat Jul 16 04:59:37 2022.
