 Entering Gaussian System, Link 0=g16
 Input=epy9m4twn8qo0_addon_10.gjf
 Output=epy9m4twn8qo0_addon_10.log
 Initial command:
 /home/mkliu/g16/l1.exe "/data/scratch/Gau-131790.inp" -scrdir="/data/scratch/"
 Entering Link 1 = /home/mkliu/g16/l1.exe PID=    131791.
  
 Copyright (c) 1988,1990,1992,1993,1995,1998,2003,2009,2016,
            Gaussian, Inc.  All Rights Reserved.
  
 This is part of the Gaussian(R) 16 program.  It is based on
 the Gaussian(R) 09 system (copyright 2009, Gaussian, Inc.),
 the Gaussian(R) 03 system (copyright 2003, Gaussian, Inc.),
 the Gaussian(R) 98 system (copyright 1998, Gaussian, Inc.),
 the Gaussian(R) 94 system (copyright 1995, Gaussian, Inc.),
 the Gaussian 92(TM) system (copyright 1992, Gaussian, Inc.),
 the Gaussian 90(TM) system (copyright 1990, Gaussian, Inc.),
 the Gaussian 88(TM) system (copyright 1988, Gaussian, Inc.),
 the Gaussian 86(TM) system (copyright 1986, Carnegie Mellon
 University), and the Gaussian 82(TM) system (copyright 1983,
 Carnegie Mellon University). Gaussian is a federally registered
 trademark of Gaussian, Inc.
  
 This software contains proprietary and confidential information,
 including trade secrets, belonging to Gaussian, Inc.
  
 This software is provided under written license and may be
 used, copied, transmitted, or stored only in accord with that
 written license.
  
 The following legend is applicable only to US Government
 contracts under FAR:
  
                    RESTRICTED RIGHTS LEGEND
  
 Use, reproduction and disclosure by the US Government is
 subject to restrictions as set forth in subparagraphs (a)
 and (c) of the Commercial Computer Software - Restricted
 Rights clause in FAR 52.227-19.
  
 Gaussian, Inc.
 340 Quinnipiac St., Bldg. 40, Wallingford CT 06492
  
  
 ---------------------------------------------------------------
 Warning -- This program may not be used in any manner that
 competes with the business of Gaussian, Inc. or will provide
 assistance to any competitor of Gaussian, Inc.  The licensee
 of this program is prohibited from giving any competitor of
 Gaussian, Inc. access to this program.  By using this program,
 the user acknowledges that Gaussian, Inc. is engaged in the
 business of creating and licensing software in the field of
 computational chemistry and represents and warrants to the
 licensee that it is not a competitor of Gaussian, Inc. and that
 it will not use this program in any manner prohibited above.
 ---------------------------------------------------------------
  

 Cite this work as:
 Gaussian 16, Revision A.03,
 M. J. Frisch, G. W. Trucks, H. B. Schlegel, G. E. Scuseria, 
 M. A. Robb, J. R. Cheeseman, G. Scalmani, V. Barone, 
 G. A. Petersson, H. Nakatsuji, X. Li, M. Caricato, A. V. Marenich, 
 J. Bloino, B. G. Janesko, R. Gomperts, B. Mennucci, H. P. Hratchian, 
 J. V. Ortiz, A. F. Izmaylov, J. L. Sonnenberg, D. Williams-Young, 
 F. Ding, F. Lipparini, F. Egidi, J. Goings, B. Peng, A. Petrone, 
 T. Henderson, D. Ranasinghe, V. G. Zakrzewski, J. Gao, N. Rega, 
 G. Zheng, W. Liang, M. Hada, M. Ehara, K. Toyota, R. Fukuda, 
 J. Hasegawa, M. Ishida, T. Nakajima, Y. Honda, O. Kitao, H. Nakai, 
 T. Vreven, K. Throssell, J. A. Montgomery, Jr., J. E. Peralta, 
 F. Ogliaro, M. J. Bearpark, J. J. Heyd, E. N. Brothers, K. N. Kudin, 
 V. N. Staroverov, T. A. Keith, R. Kobayashi, J. Normand, 
 K. Raghavachari, A. P. Rendell, J. C. Burant, S. S. Iyengar, 
 J. Tomasi, M. Cossi, J. M. Millam, M. Klene, C. Adamo, R. Cammi, 
 J. W. Ochterski, R. L. Martin, K. Morokuma, O. Farkas, 
 J. B. Foresman, and D. J. Fox, Gaussian, Inc., Wallingford CT, 2016.
 
 ******************************************
 Gaussian 16:  ES64L-G16RevA.03 25-Dec-2016
                16-Jul-2022 
 ******************************************
 %mem=10GB
 %chk=epy9m4twn8qo0_addon_10.chk
 %nprocshared=48
 Will use up to   48 processors via shared memory.
 -------------------------------------------------
 #P opt b3lyp/6-311G(d, p) empiricaldispersion=GD3
 -------------------------------------------------
 1/18=20,19=15,26=3,38=1/1,3;
 2/9=110,12=2,17=6,18=5,40=1/2;
 3/5=4,6=6,7=101,11=2,25=1,30=1,71=1,74=-5,124=31/1,2,3;
 4//1;
 5/5=2,38=5/2;
 6/7=2,8=2,9=2,10=2,28=1/1;
 7//1,2,3,16;
 1/18=20,19=15,26=3/3(2);
 2/9=110/2;
 99//99;
 2/9=110/2;
 3/5=4,6=6,7=101,11=2,25=1,30=1,71=1,74=-5,124=31/1,2,3;
 4/5=5,16=3,69=1/1;
 5/5=2,38=5/2;
 7//1,2,3,16;
 1/18=20,19=15,26=3/3(-5);
 2/9=110/2;
 6/7=2,8=2,9=2,10=2,19=2,28=1/1;
 99/9=1/99;
 Leave Link    1 at Sat Jul 16 14:28:07 2022, MaxMem=  1342177280 cpu:               2.1 elap:               0.1
 (Enter /home/mkliu/g16/l101.exe)
 -----
 force
 -----
 Symbolic Z-matrix:
 Charge =  0 Multiplicity = 1
 C                    -1.34169   1.93321  -4.01648 
 C                     0.19948   2.22859  -3.93653 
 C                     0.95496   0.90955  -4.22921 
 C                    -1.45173   0.38242  -4.14571 
 C                    -0.06686  -0.15552  -4.09138 
 C                    -2.07981  -0.10759  -2.88094 
 C                    -2.14256   2.27164  -2.70325 
 C                    -2.53782   0.93143  -2.10974 
 C                    -1.46754   2.94155  -1.52791 
 C                     0.69529   2.59167  -2.58567 
 C                    -0.0541    3.17621  -1.55828 
 C                     1.90419   0.71015  -3.07295 
 C                     1.8266    1.85341  -2.23004 
 C                     2.2545   -0.49232  -2.54587 
 C                     0.20786  -1.36511  -3.61799 
 C                     1.59386  -1.72204  -3.12896 
 C                    -1.87615  -1.37069  -2.35122 
 C                    -0.86838  -2.26316  -3.05376 
 C                    -2.37044  -1.65119  -1.06935 
 C                    -2.96829   0.68966  -0.81531 
 C                    -2.93499  -0.61153  -0.3042 
 C                    -2.08294   2.85925  -0.30526 
 C                    -3.19917   1.90397   0.0555 
 C                    -1.37824   3.2105    0.89848 
 C                     0.63528   3.39649  -0.35795 
 C                    -0.04177   3.52649   0.87783 
 C                     2.43509   1.86815  -0.96265 
 C                     1.90462   2.80824  -0.08011 
 C                     2.93437  -0.54745  -1.24788 
 C                     3.06364   0.66274  -0.48114 
 C                     2.94329  -1.76058  -0.55977 
 C                     1.26266  -2.72547  -2.0831 
 C                    -0.1152   -3.04013  -2.03573 
 C                     2.0287   -2.82786  -0.96191 
 C                    -2.0875   -3.01717  -0.45686 
 C                    -0.70188  -3.45261  -0.8752 
 C                    -1.92049  -2.91355   1.03225 
 C                    -3.35548  -0.86096   1.1378 
 C                    -2.51286  -1.93634   1.76205 
 C                    -2.89778   1.58946   1.48873 
 C                    -1.90064   2.46982   1.99838 
 C                    -2.99978   0.32976   1.98651 
 C                    -1.06663   2.09033   3.03549 
 C                     0.83753   3.1047    1.9358 
 C                     2.05561   2.65334   1.32682 
 C                     0.33559   2.40868   3.01027 
 C                     3.27011   0.57523   0.91383 
 C                     2.7501    1.56628   1.81888 
 C                     3.05196  -1.83064   0.85882 
 C                     3.23999  -0.67703   1.59618 
 C                     1.47369  -3.42128   0.20476 
 C                     0.1132   -3.70614   0.25528 
 C                    -0.63893  -3.41195   1.43078 
 C                     2.13486  -2.84344   1.33459 
 C                     0.01987  -2.9129    2.53621 
 C                     1.42886  -2.6196    2.49916 
 C                    -1.85911  -1.44901   2.93873 
 C                    -2.15968  -0.06384   3.0755 
 C                    -1.2059    0.79299   3.59893 
 C                    -0.6166   -1.91539   3.3236 
 C                     1.07607   1.30475   3.56259 
 C                     2.27569   0.90509   3.00025 
 C                     2.5784   -0.49327   2.86132 
 C                     1.66726  -1.43731   3.28484 
 C                     0.10543   0.31888   3.95291 
 C                     0.39661  -1.02543   3.81468 
 Cl                   -2.01342   2.73386  -5.45521 
 Cl                   -2.34503  -0.2056   -5.56596 
 Cl                   -1.67849  -3.32075  -4.25445 
 Cl                   -3.6326    3.21357  -3.06888 
 Cl                   -3.41008  -4.14581  -0.93986 
 Cl                   -5.12224  -1.23935   1.11656 
 Cl                   -4.88275   2.49797  -0.15194 
 Cl                    1.75049   0.81251  -5.8207 
 Cl                    0.69816   3.57899  -4.99439 
 Cl                    2.63246  -2.38876  -4.45996 
 
 ITRead=  0  0  0  0  0  0  0  0  0  0  0  0  0  0  0  0  0  0  0  0
 ITRead=  0  0  0  0  0  0  0  0  0  0  0  0  0  0  0  0  0  0  0  0
 ITRead=  0  0  0  0  0  0  0  0  0  0  0  0  0  0  0  0  0  0  0  0
 ITRead=  0  0  0  0  0  0  0  0  0  0  0  0  0  0  0  0
 MicOpt= -1 -1 -1 -1 -1 -1 -1 -1 -1 -1 -1 -1 -1 -1 -1 -1 -1 -1 -1 -1
 MicOpt= -1 -1 -1 -1 -1 -1 -1 -1 -1 -1 -1 -1 -1 -1 -1 -1 -1 -1 -1 -1
 MicOpt= -1 -1 -1 -1 -1 -1 -1 -1 -1 -1 -1 -1 -1 -1 -1 -1 -1 -1 -1 -1
 MicOpt= -1 -1 -1 -1 -1 -1 -1 -1 -1 -1 -1 -1 -1 -1 -1 -1
 NAtoms=     76 NQM=       76 NQMF=       0 NMMI=      0 NMMIF=      0
                NMic=       0 NMicF=      0.
                    Isotopes and Nuclear Properties:
 (Nuclear quadrupole moments (NQMom) in fm**2, nuclear magnetic moments (NMagM)
  in nuclear magnetons)

  Atom         1           2           3           4           5           6           7           8           9          10
 IAtWgt=          12          12          12          12          12          12          12          12          12          12
 AtmWgt=  12.0000000  12.0000000  12.0000000  12.0000000  12.0000000  12.0000000  12.0000000  12.0000000  12.0000000  12.0000000
 NucSpn=           0           0           0           0           0           0           0           0           0           0
 AtZEff=  -0.0000000  -0.0000000  -0.0000000  -0.0000000  -0.0000000  -0.0000000  -0.0000000  -0.0000000  -0.0000000  -0.0000000
 NQMom=    0.0000000   0.0000000   0.0000000   0.0000000   0.0000000   0.0000000   0.0000000   0.0000000   0.0000000   0.0000000
 NMagM=    0.0000000   0.0000000   0.0000000   0.0000000   0.0000000   0.0000000   0.0000000   0.0000000   0.0000000   0.0000000
 AtZNuc=   6.0000000   6.0000000   6.0000000   6.0000000   6.0000000   6.0000000   6.0000000   6.0000000   6.0000000   6.0000000

  Atom        11          12          13          14          15          16          17          18          19          20
 IAtWgt=          12          12          12          12          12          12          12          12          12          12
 AtmWgt=  12.0000000  12.0000000  12.0000000  12.0000000  12.0000000  12.0000000  12.0000000  12.0000000  12.0000000  12.0000000
 NucSpn=           0           0           0           0           0           0           0           0           0           0
 AtZEff=  -0.0000000  -0.0000000  -0.0000000  -0.0000000  -0.0000000  -0.0000000  -0.0000000  -0.0000000  -0.0000000  -0.0000000
 NQMom=    0.0000000   0.0000000   0.0000000   0.0000000   0.0000000   0.0000000   0.0000000   0.0000000   0.0000000   0.0000000
 NMagM=    0.0000000   0.0000000   0.0000000   0.0000000   0.0000000   0.0000000   0.0000000   0.0000000   0.0000000   0.0000000
 AtZNuc=   6.0000000   6.0000000   6.0000000   6.0000000   6.0000000   6.0000000   6.0000000   6.0000000   6.0000000   6.0000000

  Atom        21          22          23          24          25          26          27          28          29          30
 IAtWgt=          12          12          12          12          12          12          12          12          12          12
 AtmWgt=  12.0000000  12.0000000  12.0000000  12.0000000  12.0000000  12.0000000  12.0000000  12.0000000  12.0000000  12.0000000
 NucSpn=           0           0           0           0           0           0           0           0           0           0
 AtZEff=  -0.0000000  -0.0000000  -0.0000000  -0.0000000  -0.0000000  -0.0000000  -0.0000000  -0.0000000  -0.0000000  -0.0000000
 NQMom=    0.0000000   0.0000000   0.0000000   0.0000000   0.0000000   0.0000000   0.0000000   0.0000000   0.0000000   0.0000000
 NMagM=    0.0000000   0.0000000   0.0000000   0.0000000   0.0000000   0.0000000   0.0000000   0.0000000   0.0000000   0.0000000
 AtZNuc=   6.0000000   6.0000000   6.0000000   6.0000000   6.0000000   6.0000000   6.0000000   6.0000000   6.0000000   6.0000000

  Atom        31          32          33          34          35          36          37          38          39          40
 IAtWgt=          12          12          12          12          12          12          12          12          12          12
 AtmWgt=  12.0000000  12.0000000  12.0000000  12.0000000  12.0000000  12.0000000  12.0000000  12.0000000  12.0000000  12.0000000
 NucSpn=           0           0           0           0           0           0           0           0           0           0
 AtZEff=  -0.0000000  -0.0000000  -0.0000000  -0.0000000  -0.0000000  -0.0000000  -0.0000000  -0.0000000  -0.0000000  -0.0000000
 NQMom=    0.0000000   0.0000000   0.0000000   0.0000000   0.0000000   0.0000000   0.0000000   0.0000000   0.0000000   0.0000000
 NMagM=    0.0000000   0.0000000   0.0000000   0.0000000   0.0000000   0.0000000   0.0000000   0.0000000   0.0000000   0.0000000
 AtZNuc=   6.0000000   6.0000000   6.0000000   6.0000000   6.0000000   6.0000000   6.0000000   6.0000000   6.0000000   6.0000000

  Atom        41          42          43          44          45          46          47          48          49          50
 IAtWgt=          12          12          12          12          12          12          12          12          12          12
 AtmWgt=  12.0000000  12.0000000  12.0000000  12.0000000  12.0000000  12.0000000  12.0000000  12.0000000  12.0000000  12.0000000
 NucSpn=           0           0           0           0           0           0           0           0           0           0
 AtZEff=  -0.0000000  -0.0000000  -0.0000000  -0.0000000  -0.0000000  -0.0000000  -0.0000000  -0.0000000  -0.0000000  -0.0000000
 NQMom=    0.0000000   0.0000000   0.0000000   0.0000000   0.0000000   0.0000000   0.0000000   0.0000000   0.0000000   0.0000000
 NMagM=    0.0000000   0.0000000   0.0000000   0.0000000   0.0000000   0.0000000   0.0000000   0.0000000   0.0000000   0.0000000
 AtZNuc=   6.0000000   6.0000000   6.0000000   6.0000000   6.0000000   6.0000000   6.0000000   6.0000000   6.0000000   6.0000000

  Atom        51          52          53          54          55          56          57          58          59          60
 IAtWgt=          12          12          12          12          12          12          12          12          12          12
 AtmWgt=  12.0000000  12.0000000  12.0000000  12.0000000  12.0000000  12.0000000  12.0000000  12.0000000  12.0000000  12.0000000
 NucSpn=           0           0           0           0           0           0           0           0           0           0
 AtZEff=  -0.0000000  -0.0000000  -0.0000000  -0.0000000  -0.0000000  -0.0000000  -0.0000000  -0.0000000  -0.0000000  -0.0000000
 NQMom=    0.0000000   0.0000000   0.0000000   0.0000000   0.0000000   0.0000000   0.0000000   0.0000000   0.0000000   0.0000000
 NMagM=    0.0000000   0.0000000   0.0000000   0.0000000   0.0000000   0.0000000   0.0000000   0.0000000   0.0000000   0.0000000
 AtZNuc=   6.0000000   6.0000000   6.0000000   6.0000000   6.0000000   6.0000000   6.0000000   6.0000000   6.0000000   6.0000000

  Atom        61          62          63          64          65          66          67          68          69          70
 IAtWgt=          12          12          12          12          12          12          35          35          35          35
 AtmWgt=  12.0000000  12.0000000  12.0000000  12.0000000  12.0000000  12.0000000  34.9688527  34.9688527  34.9688527  34.9688527
 NucSpn=           0           0           0           0           0           0           3           3           3           3
 AtZEff=  -0.0000000  -0.0000000  -0.0000000  -0.0000000  -0.0000000  -0.0000000  -0.0000000  -0.0000000  -0.0000000  -0.0000000
 NQMom=    0.0000000   0.0000000   0.0000000   0.0000000   0.0000000   0.0000000  -8.1650000  -8.1650000  -8.1650000  -8.1650000
 NMagM=    0.0000000   0.0000000   0.0000000   0.0000000   0.0000000   0.0000000   0.8218740   0.8218740   0.8218740   0.8218740
 AtZNuc=   6.0000000   6.0000000   6.0000000   6.0000000   6.0000000   6.0000000  17.0000000  17.0000000  17.0000000  17.0000000

  Atom        71          72          73          74          75          76
 IAtWgt=          35          35          35          35          35          35
 AtmWgt=  34.9688527  34.9688527  34.9688527  34.9688527  34.9688527  34.9688527
 NucSpn=           3           3           3           3           3           3
 AtZEff=  -0.0000000  -0.0000000  -0.0000000  -0.0000000  -0.0000000  -0.0000000
 NQMom=   -8.1650000  -8.1650000  -8.1650000  -8.1650000  -8.1650000  -8.1650000
 NMagM=    0.8218740   0.8218740   0.8218740   0.8218740   0.8218740   0.8218740
 AtZNuc=  17.0000000  17.0000000  17.0000000  17.0000000  17.0000000  17.0000000
 Leave Link  101 at Sat Jul 16 14:28:07 2022, MaxMem=  1342177280 cpu:              13.0 elap:               0.3
 (Enter /home/mkliu/g16/l103.exe)

 GradGradGradGradGradGradGradGradGradGradGradGradGradGradGradGradGradGrad
 Berny optimization.
 Initialization pass.
                           ----------------------------
                           !    Initial Parameters    !
                           ! (Angstroms and Degrees)  !
 --------------------------                            --------------------------
 ! Name  Definition              Value          Derivative Info.                !
 --------------------------------------------------------------------------------
 ! R1    R(1,2)                  1.5713         estimate D2E/DX2                !
 ! R2    R(1,4)                  1.5601         estimate D2E/DX2                !
 ! R3    R(1,7)                  1.575          estimate D2E/DX2                !
 ! R4    R(1,67)                 1.7783         estimate D2E/DX2                !
 ! R5    R(2,3)                  1.548          estimate D2E/DX2                !
 ! R6    R(2,10)                 1.4841         estimate D2E/DX2                !
 ! R7    R(2,75)                 1.7864         estimate D2E/DX2                !
 ! R8    R(3,5)                  1.4824         estimate D2E/DX2                !
 ! R9    R(3,12)                 1.5092         estimate D2E/DX2                !
 ! R10   R(3,74)                 1.7819         estimate D2E/DX2                !
 ! R11   R(4,5)                  1.4867         estimate D2E/DX2                !
 ! R12   R(4,6)                  1.4947         estimate D2E/DX2                !
 ! R13   R(4,68)                 1.7779         estimate D2E/DX2                !
 ! R14   R(5,15)                 1.3277         estimate D2E/DX2                !
 ! R15   R(6,8)                  1.3726         estimate D2E/DX2                !
 ! R16   R(6,17)                 1.3847         estimate D2E/DX2                !
 ! R17   R(7,8)                  1.5181         estimate D2E/DX2                !
 ! R18   R(7,9)                  1.5119         estimate D2E/DX2                !
 ! R19   R(7,70)                 1.8003         estimate D2E/DX2                !
 ! R20   R(8,20)                 1.3854         estimate D2E/DX2                !
 ! R21   R(9,11)                 1.4331         estimate D2E/DX2                !
 ! R22   R(9,22)                 1.3713         estimate D2E/DX2                !
 ! R23   R(10,11)                1.3996         estimate D2E/DX2                !
 ! R24   R(10,13)                1.3969         estimate D2E/DX2                !
 ! R25   R(11,25)                1.4016         estimate D2E/DX2                !
 ! R26   R(12,13)                1.4225         estimate D2E/DX2                !
 ! R27   R(12,14)                1.3589         estimate D2E/DX2                !
 ! R28   R(13,27)                1.406          estimate D2E/DX2                !
 ! R29   R(14,16)                1.5128         estimate D2E/DX2                !
 ! R30   R(14,29)                1.4663         estimate D2E/DX2                !
 ! R31   R(15,16)                1.5125         estimate D2E/DX2                !
 ! R32   R(15,18)                1.511          estimate D2E/DX2                !
 ! R33   R(16,32)                1.4867         estimate D2E/DX2                !
 ! R34   R(16,76)                1.8152         estimate D2E/DX2                !
 ! R35   R(17,18)                1.5184         estimate D2E/DX2                !
 ! R36   R(17,19)                1.4022         estimate D2E/DX2                !
 ! R37   R(18,33)                1.4857         estimate D2E/DX2                !
 ! R38   R(18,69)                1.7934         estimate D2E/DX2                !
 ! R39   R(19,21)                1.4089         estimate D2E/DX2                !
 ! R40   R(19,35)                1.5235         estimate D2E/DX2                !
 ! R41   R(20,21)                1.3984         estimate D2E/DX2                !
 ! R42   R(20,23)                1.512          estimate D2E/DX2                !
 ! R43   R(21,38)                1.5226         estimate D2E/DX2                !
 ! R44   R(22,23)                1.5128         estimate D2E/DX2                !
 ! R45   R(22,24)                1.4384         estimate D2E/DX2                !
 ! R46   R(23,40)                1.498          estimate D2E/DX2                !
 ! R47   R(23,73)                1.7973         estimate D2E/DX2                !
 ! R48   R(24,26)                1.3735         estimate D2E/DX2                !
 ! R49   R(24,41)                1.4252         estimate D2E/DX2                !
 ! R50   R(25,26)                1.4151         estimate D2E/DX2                !
 ! R51   R(25,28)                1.4263         estimate D2E/DX2                !
 ! R52   R(26,44)                1.4389         estimate D2E/DX2                !
 ! R53   R(27,28)                1.3943         estimate D2E/DX2                !
 ! R54   R(27,30)                1.4422         estimate D2E/DX2                !
 ! R55   R(28,45)                1.4235         estimate D2E/DX2                !
 ! R56   R(29,30)                1.4385         estimate D2E/DX2                !
 ! R57   R(29,31)                1.3947         estimate D2E/DX2                !
 ! R58   R(30,47)                1.4129         estimate D2E/DX2                !
 ! R59   R(31,34)                1.4619         estimate D2E/DX2                !
 ! R60   R(31,49)                1.4245         estimate D2E/DX2                !
 ! R61   R(32,33)                1.4141         estimate D2E/DX2                !
 ! R62   R(32,34)                1.3618         estimate D2E/DX2                !
 ! R63   R(33,36)                1.3642         estimate D2E/DX2                !
 ! R64   R(34,51)                1.4217         estimate D2E/DX2                !
 ! R65   R(35,36)                1.5115         estimate D2E/DX2                !
 ! R66   R(35,37)                1.502          estimate D2E/DX2                !
 ! R67   R(35,71)                1.8045         estimate D2E/DX2                !
 ! R68   R(36,52)                1.4165         estimate D2E/DX2                !
 ! R69   R(37,39)                1.3559         estimate D2E/DX2                !
 ! R70   R(37,53)                1.4317         estimate D2E/DX2                !
 ! R71   R(38,39)                1.502          estimate D2E/DX2                !
 ! R72   R(38,42)                1.5049         estimate D2E/DX2                !
 ! R73   R(38,72)                1.807          estimate D2E/DX2                !
 ! R74   R(39,57)                1.4316         estimate D2E/DX2                !
 ! R75   R(40,41)                1.4244         estimate D2E/DX2                !
 ! R76   R(40,42)                1.3583         estimate D2E/DX2                !
 ! R77   R(41,43)                1.3839         estimate D2E/DX2                !
 ! R78   R(42,58)                1.4306         estimate D2E/DX2                !
 ! R79   R(43,46)                1.4381         estimate D2E/DX2                !
 ! R80   R(43,59)                1.4212         estimate D2E/DX2                !
 ! R81   R(44,45)                1.4347         estimate D2E/DX2                !
 ! R82   R(44,46)                1.3751         estimate D2E/DX2                !
 ! R83   R(45,48)                1.3806         estimate D2E/DX2                !
 ! R84   R(46,61)                1.4395         estimate D2E/DX2                !
 ! R85   R(47,48)                1.4393         estimate D2E/DX2                !
 ! R86   R(47,50)                1.4264         estimate D2E/DX2                !
 ! R87   R(48,62)                1.4345         estimate D2E/DX2                !
 ! R88   R(49,50)                1.382          estimate D2E/DX2                !
 ! R89   R(49,54)                1.4468         estimate D2E/DX2                !
 ! R90   R(50,63)                1.4395         estimate D2E/DX2                !
 ! R91   R(51,52)                1.3909         estimate D2E/DX2                !
 ! R92   R(51,54)                1.4309         estimate D2E/DX2                !
 ! R93   R(52,53)                1.4262         estimate D2E/DX2                !
 ! R94   R(53,55)                1.3802         estimate D2E/DX2                !
 ! R95   R(54,56)                1.3801         estimate D2E/DX2                !
 ! R96   R(55,56)                1.4397         estimate D2E/DX2                !
 ! R97   R(55,60)                1.4213         estimate D2E/DX2                !
 ! R98   R(56,64)                1.4394         estimate D2E/DX2                !
 ! R99   R(57,58)                1.424          estimate D2E/DX2                !
 ! R100  R(57,60)                1.3818         estimate D2E/DX2                !
 ! R101  R(58,59)                1.3849         estimate D2E/DX2                !
 ! R102  R(59,65)                1.4386         estimate D2E/DX2                !
 ! R103  R(60,66)                1.4352         estimate D2E/DX2                !
 ! R104  R(61,62)                1.3839         estimate D2E/DX2                !
 ! R105  R(61,65)                1.4375         estimate D2E/DX2                !
 ! R106  R(62,63)                1.4375         estimate D2E/DX2                !
 ! R107  R(63,64)                1.3787         estimate D2E/DX2                !
 ! R108  R(64,66)                1.437          estimate D2E/DX2                !
 ! R109  R(65,66)                1.3824         estimate D2E/DX2                !
 ! A1    A(2,1,4)              105.0867         estimate D2E/DX2                !
 ! A2    A(2,1,7)              114.5787         estimate D2E/DX2                !
 ! A3    A(2,1,67)             109.0894         estimate D2E/DX2                !
 ! A4    A(4,1,7)              104.2887         estimate D2E/DX2                !
 ! A5    A(4,1,67)             110.726          estimate D2E/DX2                !
 ! A6    A(7,1,67)             112.692          estimate D2E/DX2                !
 ! A7    A(1,2,3)              107.9921         estimate D2E/DX2                !
 ! A8    A(1,2,10)             114.8346         estimate D2E/DX2                !
 ! A9    A(1,2,75)             112.692          estimate D2E/DX2                !
 ! A10   A(3,2,10)             102.5632         estimate D2E/DX2                !
 ! A11   A(3,2,75)             113.3232         estimate D2E/DX2                !
 ! A12   A(10,2,75)            105.1189         estimate D2E/DX2                !
 ! A13   A(2,3,5)              104.9651         estimate D2E/DX2                !
 ! A14   A(2,3,12)             105.943          estimate D2E/DX2                !
 ! A15   A(2,3,74)             115.6685         estimate D2E/DX2                !
 ! A16   A(5,3,12)             105.5084         estimate D2E/DX2                !
 ! A17   A(5,3,74)             110.5884         estimate D2E/DX2                !
 ! A18   A(12,3,74)            113.3456         estimate D2E/DX2                !
 ! A19   A(1,4,5)              106.915          estimate D2E/DX2                !
 ! A20   A(1,4,6)              106.5841         estimate D2E/DX2                !
 ! A21   A(1,4,68)             115.493          estimate D2E/DX2                !
 ! A22   A(5,4,6)              103.9973         estimate D2E/DX2                !
 ! A23   A(5,4,68)             112.1828         estimate D2E/DX2                !
 ! A24   A(6,4,68)             110.8786         estimate D2E/DX2                !
 ! A25   A(3,5,4)              112.255          estimate D2E/DX2                !
 ! A26   A(3,5,15)             123.032          estimate D2E/DX2                !
 ! A27   A(4,5,15)             122.374          estimate D2E/DX2                !
 ! A28   A(4,6,8)              111.5594         estimate D2E/DX2                !
 ! A29   A(4,6,17)             124.1192         estimate D2E/DX2                !
 ! A30   A(8,6,17)             121.642          estimate D2E/DX2                !
 ! A31   A(1,7,8)              105.5856         estimate D2E/DX2                !
 ! A32   A(1,7,9)              121.0897         estimate D2E/DX2                !
 ! A33   A(1,7,70)             111.3428         estimate D2E/DX2                !
 ! A34   A(8,7,9)              101.7412         estimate D2E/DX2                !
 ! A35   A(8,7,70)             109.0142         estimate D2E/DX2                !
 ! A36   A(9,7,70)             107.1924         estimate D2E/DX2                !
 ! A37   A(6,8,7)              111.2063         estimate D2E/DX2                !
 ! A38   A(6,8,20)             119.7711         estimate D2E/DX2                !
 ! A39   A(7,8,20)             126.8878         estimate D2E/DX2                !
 ! A40   A(7,9,11)             119.7638         estimate D2E/DX2                !
 ! A41   A(7,9,22)             117.7863         estimate D2E/DX2                !
 ! A42   A(11,9,22)            118.1214         estimate D2E/DX2                !
 ! A43   A(2,10,11)            126.2617         estimate D2E/DX2                !
 ! A44   A(2,10,13)            111.9011         estimate D2E/DX2                !
 ! A45   A(11,10,13)           117.8708         estimate D2E/DX2                !
 ! A46   A(9,11,10)            118.3763         estimate D2E/DX2                !
 ! A47   A(9,11,25)            119.517          estimate D2E/DX2                !
 ! A48   A(10,11,25)           115.5269         estimate D2E/DX2                !
 ! A49   A(3,12,13)            108.2691         estimate D2E/DX2                !
 ! A50   A(3,12,14)            125.1862         estimate D2E/DX2                !
 ! A51   A(13,12,14)           119.6974         estimate D2E/DX2                !
 ! A52   A(10,13,12)           108.5457         estimate D2E/DX2                !
 ! A53   A(10,13,27)           125.0613         estimate D2E/DX2                !
 ! A54   A(12,13,27)           121.2626         estimate D2E/DX2                !
 ! A55   A(12,14,16)           117.2086         estimate D2E/DX2                !
 ! A56   A(12,14,29)           119.7466         estimate D2E/DX2                !
 ! A57   A(16,14,29)           120.8709         estimate D2E/DX2                !
 ! A58   A(5,15,16)            121.3265         estimate D2E/DX2                !
 ! A59   A(5,15,18)            121.8192         estimate D2E/DX2                !
 ! A60   A(16,15,18)           113.0614         estimate D2E/DX2                !
 ! A61   A(14,16,15)           109.4495         estimate D2E/DX2                !
 ! A62   A(14,16,32)           112.0097         estimate D2E/DX2                !
 ! A63   A(14,16,76)           109.349          estimate D2E/DX2                !
 ! A64   A(15,16,32)           100.5206         estimate D2E/DX2                !
 ! A65   A(15,16,76)           111.9582         estimate D2E/DX2                !
 ! A66   A(32,16,76)           113.2905         estimate D2E/DX2                !
 ! A67   A(6,17,18)            117.1771         estimate D2E/DX2                !
 ! A68   A(6,17,19)            118.7075         estimate D2E/DX2                !
 ! A69   A(18,17,19)           122.6389         estimate D2E/DX2                !
 ! A70   A(15,18,17)           107.2278         estimate D2E/DX2                !
 ! A71   A(15,18,33)           101.8643         estimate D2E/DX2                !
 ! A72   A(15,18,69)           114.9747         estimate D2E/DX2                !
 ! A73   A(17,18,33)           109.075          estimate D2E/DX2                !
 ! A74   A(17,18,69)           110.8891         estimate D2E/DX2                !
 ! A75   A(33,18,69)           112.2928         estimate D2E/DX2                !
 ! A76   A(17,19,21)           119.3473         estimate D2E/DX2                !
 ! A77   A(17,19,35)           118.7778         estimate D2E/DX2                !
 ! A78   A(21,19,35)           121.1776         estimate D2E/DX2                !
 ! A79   A(8,20,21)            119.7684         estimate D2E/DX2                !
 ! A80   A(8,20,23)            116.4493         estimate D2E/DX2                !
 ! A81   A(21,20,23)           122.7128         estimate D2E/DX2                !
 ! A82   A(19,21,20)           119.8463         estimate D2E/DX2                !
 ! A83   A(19,21,38)           120.2713         estimate D2E/DX2                !
 ! A84   A(20,21,38)           119.4725         estimate D2E/DX2                !
 ! A85   A(9,22,23)            125.5666         estimate D2E/DX2                !
 ! A86   A(9,22,24)            120.7731         estimate D2E/DX2                !
 ! A87   A(23,22,24)           108.4284         estimate D2E/DX2                !
 ! A88   A(20,23,22)           104.8992         estimate D2E/DX2                !
 ! A89   A(20,23,40)           110.5914         estimate D2E/DX2                !
 ! A90   A(20,23,73)           109.998          estimate D2E/DX2                !
 ! A91   A(22,23,40)           102.2562         estimate D2E/DX2                !
 ! A92   A(22,23,73)           117.0608         estimate D2E/DX2                !
 ! A93   A(40,23,73)           111.61           estimate D2E/DX2                !
 ! A94   A(22,24,26)           121.3543         estimate D2E/DX2                !
 ! A95   A(22,24,41)           109.8374         estimate D2E/DX2                !
 ! A96   A(26,24,41)           119.1981         estimate D2E/DX2                !
 ! A97   A(11,25,26)           121.8025         estimate D2E/DX2                !
 ! A98   A(11,25,28)           122.6636         estimate D2E/DX2                !
 ! A99   A(26,25,28)           107.0713         estimate D2E/DX2                !
 ! A100  A(24,26,25)           117.2293         estimate D2E/DX2                !
 ! A101  A(24,26,44)           121.0735         estimate D2E/DX2                !
 ! A102  A(25,26,44)           108.8325         estimate D2E/DX2                !
 ! A103  A(13,27,28)           114.3926         estimate D2E/DX2                !
 ! A104  A(13,27,30)           118.7393         estimate D2E/DX2                !
 ! A105  A(28,27,30)           121.2002         estimate D2E/DX2                !
 ! A106  A(25,28,27)           119.561          estimate D2E/DX2                !
 ! A107  A(25,28,45)           109.3788         estimate D2E/DX2                !
 ! A108  A(27,28,45)           120.7893         estimate D2E/DX2                !
 ! A109  A(14,29,30)           118.808          estimate D2E/DX2                !
 ! A110  A(14,29,31)           118.1903         estimate D2E/DX2                !
 ! A111  A(30,29,31)           117.919          estimate D2E/DX2                !
 ! A112  A(27,30,29)           119.0814         estimate D2E/DX2                !
 ! A113  A(27,30,47)           116.4296         estimate D2E/DX2                !
 ! A114  A(29,30,47)           119.1627         estimate D2E/DX2                !
 ! A115  A(29,31,34)           119.6881         estimate D2E/DX2                !
 ! A116  A(29,31,49)           122.3164         estimate D2E/DX2                !
 ! A117  A(34,31,49)           106.6042         estimate D2E/DX2                !
 ! A118  A(16,32,33)           113.0044         estimate D2E/DX2                !
 ! A119  A(16,32,34)           120.3065         estimate D2E/DX2                !
 ! A120  A(33,32,34)           120.2514         estimate D2E/DX2                !
 ! A121  A(18,33,32)           110.7707         estimate D2E/DX2                !
 ! A122  A(18,33,36)           121.5335         estimate D2E/DX2                !
 ! A123  A(32,33,36)           120.9834         estimate D2E/DX2                !
 ! A124  A(31,34,32)           121.5678         estimate D2E/DX2                !
 ! A125  A(31,34,51)           108.8572         estimate D2E/DX2                !
 ! A126  A(32,34,51)           119.1714         estimate D2E/DX2                !
 ! A127  A(19,35,36)           108.4985         estimate D2E/DX2                !
 ! A128  A(19,35,37)           110.9382         estimate D2E/DX2                !
 ! A129  A(19,35,71)           108.4846         estimate D2E/DX2                !
 ! A130  A(36,35,37)           101.0895         estimate D2E/DX2                !
 ! A131  A(36,35,71)           114.6848         estimate D2E/DX2                !
 ! A132  A(37,35,71)           112.9547         estimate D2E/DX2                !
 ! A133  A(33,36,35)           122.8593         estimate D2E/DX2                !
 ! A134  A(33,36,52)           119.0486         estimate D2E/DX2                !
 ! A135  A(35,36,52)           110.9873         estimate D2E/DX2                !
 ! A136  A(35,37,39)           122.3277         estimate D2E/DX2                !
 ! A137  A(35,37,53)           110.5785         estimate D2E/DX2                !
 ! A138  A(39,37,53)           119.4824         estimate D2E/DX2                !
 ! A139  A(21,38,39)           110.8519         estimate D2E/DX2                !
 ! A140  A(21,38,42)           109.8291         estimate D2E/DX2                !
 ! A141  A(21,38,72)           107.0493         estimate D2E/DX2                !
 ! A142  A(39,38,42)           101.5078         estimate D2E/DX2                !
 ! A143  A(39,38,72)           113.7949         estimate D2E/DX2                !
 ! A144  A(42,38,72)           113.7928         estimate D2E/DX2                !
 ! A145  A(37,39,38)           122.5055         estimate D2E/DX2                !
 ! A146  A(37,39,57)           119.2245         estimate D2E/DX2                !
 ! A147  A(38,39,57)           110.7357         estimate D2E/DX2                !
 ! A148  A(23,40,41)           110.6957         estimate D2E/DX2                !
 ! A149  A(23,40,42)           122.0212         estimate D2E/DX2                !
 ! A150  A(41,40,42)           119.6442         estimate D2E/DX2                !
 ! A151  A(24,41,40)           107.5572         estimate D2E/DX2                !
 ! A152  A(24,41,43)           119.9973         estimate D2E/DX2                !
 ! A153  A(40,41,43)           121.3668         estimate D2E/DX2                !
 ! A154  A(38,42,40)           123.0155         estimate D2E/DX2                !
 ! A155  A(38,42,58)           110.5125         estimate D2E/DX2                !
 ! A156  A(40,42,58)           119.342          estimate D2E/DX2                !
 ! A157  A(41,43,46)           120.9143         estimate D2E/DX2                !
 ! A158  A(41,43,59)           119.2325         estimate D2E/DX2                !
 ! A159  A(46,43,59)           107.7321         estimate D2E/DX2                !
 ! A160  A(26,44,45)           107.3949         estimate D2E/DX2                !
 ! A161  A(26,44,46)           119.9895         estimate D2E/DX2                !
 ! A162  A(45,44,46)           118.839          estimate D2E/DX2                !
 ! A163  A(28,45,44)           107.1721         estimate D2E/DX2                !
 ! A164  A(28,45,48)           119.4265         estimate D2E/DX2                !
 ! A165  A(44,45,48)           121.5676         estimate D2E/DX2                !
 ! A166  A(43,46,44)           118.7941         estimate D2E/DX2                !
 ! A167  A(43,46,61)           108.97           estimate D2E/DX2                !
 ! A168  A(44,46,61)           120.0146         estimate D2E/DX2                !
 ! A169  A(30,47,48)           121.6936         estimate D2E/DX2                !
 ! A170  A(30,47,50)           121.5734         estimate D2E/DX2                !
 ! A171  A(48,47,50)           107.2208         estimate D2E/DX2                !
 ! A172  A(45,48,47)           119.9846         estimate D2E/DX2                !
 ! A173  A(45,48,62)           119.3449         estimate D2E/DX2                !
 ! A174  A(47,48,62)           108.6596         estimate D2E/DX2                !
 ! A175  A(31,49,50)           120.0448         estimate D2E/DX2                !
 ! A176  A(31,49,54)           108.2739         estimate D2E/DX2                !
 ! A177  A(50,49,54)           119.6788         estimate D2E/DX2                !
 ! A178  A(47,50,49)           118.7163         estimate D2E/DX2                !
 ! A179  A(47,50,63)           108.5463         estimate D2E/DX2                !
 ! A180  A(49,50,63)           120.8617         estimate D2E/DX2                !
 ! A181  A(34,51,52)           119.8102         estimate D2E/DX2                !
 ! A182  A(34,51,54)           107.3979         estimate D2E/DX2                !
 ! A183  A(52,51,54)           120.3961         estimate D2E/DX2                !
 ! A184  A(36,52,51)           119.8129         estimate D2E/DX2                !
 ! A185  A(36,52,53)           108.5065         estimate D2E/DX2                !
 ! A186  A(51,52,53)           120.2329         estimate D2E/DX2                !
 ! A187  A(37,53,52)           108.3273         estimate D2E/DX2                !
 ! A188  A(37,53,55)           121.6241         estimate D2E/DX2                !
 ! A189  A(52,53,55)           118.8806         estimate D2E/DX2                !
 ! A190  A(49,54,51)           108.4165         estimate D2E/DX2                !
 ! A191  A(49,54,56)           119.2232         estimate D2E/DX2                !
 ! A192  A(51,54,56)           119.6952         estimate D2E/DX2                !
 ! A193  A(53,55,56)           121.3453         estimate D2E/DX2                !
 ! A194  A(53,55,60)           118.9278         estimate D2E/DX2                !
 ! A195  A(56,55,60)           108.0315         estimate D2E/DX2                !
 ! A196  A(54,56,55)           119.2958         estimate D2E/DX2                !
 ! A197  A(54,56,64)           120.6017         estimate D2E/DX2                !
 ! A198  A(55,56,64)           108.3841         estimate D2E/DX2                !
 ! A199  A(39,57,58)           108.2814         estimate D2E/DX2                !
 ! A200  A(39,57,60)           121.6444         estimate D2E/DX2                !
 ! A201  A(58,57,60)           119.43           estimate D2E/DX2                !
 ! A202  A(42,58,57)           108.5709         estimate D2E/DX2                !
 ! A203  A(42,58,59)           121.4622         estimate D2E/DX2                !
 ! A204  A(57,58,59)           119.5229         estimate D2E/DX2                !
 ! A205  A(43,59,58)           118.8431         estimate D2E/DX2                !
 ! A206  A(43,59,65)           108.0018         estimate D2E/DX2                !
 ! A207  A(58,59,65)           121.123          estimate D2E/DX2                !
 ! A208  A(55,60,57)           119.028          estimate D2E/DX2                !
 ! A209  A(55,60,66)           107.9761         estimate D2E/DX2                !
 ! A210  A(57,60,66)           121.3858         estimate D2E/DX2                !
 ! A211  A(46,61,62)           120.7639         estimate D2E/DX2                !
 ! A212  A(46,61,65)           106.4275         estimate D2E/DX2                !
 ! A213  A(62,61,65)           119.8412         estimate D2E/DX2                !
 ! A214  A(48,62,61)           119.2229         estimate D2E/DX2                !
 ! A215  A(48,62,63)           107.406          estimate D2E/DX2                !
 ! A216  A(61,62,63)           120.1832         estimate D2E/DX2                !
 ! A217  A(50,63,62)           107.8129         estimate D2E/DX2                !
 ! A218  A(50,63,64)           119.0995         estimate D2E/DX2                !
 ! A219  A(62,63,64)           119.8183         estimate D2E/DX2                !
 ! A220  A(56,64,63)           120.2785         estimate D2E/DX2                !
 ! A221  A(56,64,66)           106.8714         estimate D2E/DX2                !
 ! A222  A(63,64,66)           120.0915         estimate D2E/DX2                !
 ! A223  A(59,65,61)           108.8231         estimate D2E/DX2                !
 ! A224  A(59,65,66)           119.2            estimate D2E/DX2                !
 ! A225  A(61,65,66)           119.8379         estimate D2E/DX2                !
 ! A226  A(60,66,64)           108.6845         estimate D2E/DX2                !
 ! A227  A(60,66,65)           119.2438         estimate D2E/DX2                !
 ! A228  A(64,66,65)           120.1219         estimate D2E/DX2                !
 ! D1    D(4,1,2,3)              8.3118         estimate D2E/DX2                !
 ! D2    D(4,1,2,10)          -105.4106         estimate D2E/DX2                !
 ! D3    D(4,1,2,75)           134.2561         estimate D2E/DX2                !
 ! D4    D(7,1,2,3)            122.1644         estimate D2E/DX2                !
 ! D5    D(7,1,2,10)             8.4421         estimate D2E/DX2                !
 ! D6    D(7,1,2,75)          -111.8912         estimate D2E/DX2                !
 ! D7    D(67,1,2,3)          -110.449          estimate D2E/DX2                !
 ! D8    D(67,1,2,10)          135.8287         estimate D2E/DX2                !
 ! D9    D(67,1,2,75)           15.4953         estimate D2E/DX2                !
 ! D10   D(2,1,4,5)              1.9007         estimate D2E/DX2                !
 ! D11   D(2,1,4,6)            112.6546         estimate D2E/DX2                !
 ! D12   D(2,1,4,68)          -123.7055         estimate D2E/DX2                !
 ! D13   D(7,1,4,5)           -118.9765         estimate D2E/DX2                !
 ! D14   D(7,1,4,6)             -8.2226         estimate D2E/DX2                !
 ! D15   D(7,1,4,68)           115.4173         estimate D2E/DX2                !
 ! D16   D(67,1,4,5)           119.5564         estimate D2E/DX2                !
 ! D17   D(67,1,4,6)          -129.6897         estimate D2E/DX2                !
 ! D18   D(67,1,4,68)           -6.0498         estimate D2E/DX2                !
 ! D19   D(2,1,7,8)           -109.3122         estimate D2E/DX2                !
 ! D20   D(2,1,7,9)              5.2002         estimate D2E/DX2                !
 ! D21   D(2,1,7,70)           132.5148         estimate D2E/DX2                !
 ! D22   D(4,1,7,8)              5.0084         estimate D2E/DX2                !
 ! D23   D(4,1,7,9)            119.5208         estimate D2E/DX2                !
 ! D24   D(4,1,7,70)          -113.1646         estimate D2E/DX2                !
 ! D25   D(67,1,7,8)           125.163          estimate D2E/DX2                !
 ! D26   D(67,1,7,9)          -120.3246         estimate D2E/DX2                !
 ! D27   D(67,1,7,70)            6.99           estimate D2E/DX2                !
 ! D28   D(1,2,3,5)            -15.3164         estimate D2E/DX2                !
 ! D29   D(1,2,3,12)          -126.6746         estimate D2E/DX2                !
 ! D30   D(1,2,3,74)           106.8454         estimate D2E/DX2                !
 ! D31   D(10,2,3,5)           106.3385         estimate D2E/DX2                !
 ! D32   D(10,2,3,12)           -5.0197         estimate D2E/DX2                !
 ! D33   D(10,2,3,74)         -131.4997         estimate D2E/DX2                !
 ! D34   D(75,2,3,5)          -140.8885         estimate D2E/DX2                !
 ! D35   D(75,2,3,12)          107.7533         estimate D2E/DX2                !
 ! D36   D(75,2,3,74)          -18.7267         estimate D2E/DX2                !
 ! D37   D(1,2,10,11)          -25.9926         estimate D2E/DX2                !
 ! D38   D(1,2,10,13)          130.8989         estimate D2E/DX2                !
 ! D39   D(3,2,10,11)         -142.8547         estimate D2E/DX2                !
 ! D40   D(3,2,10,13)           14.0368         estimate D2E/DX2                !
 ! D41   D(75,2,10,11)          98.435          estimate D2E/DX2                !
 ! D42   D(75,2,10,13)        -104.6735         estimate D2E/DX2                !
 ! D43   D(2,3,5,4)             17.2647         estimate D2E/DX2                !
 ! D44   D(2,3,5,15)          -145.7055         estimate D2E/DX2                !
 ! D45   D(12,3,5,4)           128.9332         estimate D2E/DX2                !
 ! D46   D(12,3,5,15)          -34.0369         estimate D2E/DX2                !
 ! D47   D(74,3,5,4)          -108.1416         estimate D2E/DX2                !
 ! D48   D(74,3,5,15)           88.8883         estimate D2E/DX2                !
 ! D49   D(2,3,12,13)           -5.0106         estimate D2E/DX2                !
 ! D50   D(2,3,12,14)          145.5772         estimate D2E/DX2                !
 ! D51   D(5,3,12,13)         -115.9866         estimate D2E/DX2                !
 ! D52   D(5,3,12,14)           34.6012         estimate D2E/DX2                !
 ! D53   D(74,3,12,13)         122.8657         estimate D2E/DX2                !
 ! D54   D(74,3,12,14)         -86.5465         estimate D2E/DX2                !
 ! D55   D(1,4,5,3)            -12.2425         estimate D2E/DX2                !
 ! D56   D(1,4,5,15)           150.8565         estimate D2E/DX2                !
 ! D57   D(6,4,5,3)           -124.7786         estimate D2E/DX2                !
 ! D58   D(6,4,5,15)            38.3204         estimate D2E/DX2                !
 ! D59   D(68,4,5,3)           115.3341         estimate D2E/DX2                !
 ! D60   D(68,4,5,15)          -81.5669         estimate D2E/DX2                !
 ! D61   D(1,4,6,8)              9.0082         estimate D2E/DX2                !
 ! D62   D(1,4,6,17)          -152.6244         estimate D2E/DX2                !
 ! D63   D(5,4,6,8)            121.783          estimate D2E/DX2                !
 ! D64   D(5,4,6,17)           -39.8496         estimate D2E/DX2                !
 ! D65   D(68,4,6,8)          -117.4501         estimate D2E/DX2                !
 ! D66   D(68,4,6,17)           80.9173         estimate D2E/DX2                !
 ! D67   D(3,5,15,16)            2.5168         estimate D2E/DX2                !
 ! D68   D(3,5,15,18)          159.0553         estimate D2E/DX2                !
 ! D69   D(4,5,15,16)         -158.7636         estimate D2E/DX2                !
 ! D70   D(4,5,15,18)           -2.2251         estimate D2E/DX2                !
 ! D71   D(4,6,8,7)             -5.8541         estimate D2E/DX2                !
 ! D72   D(4,6,8,20)          -170.3686         estimate D2E/DX2                !
 ! D73   D(17,6,8,7)           156.3021         estimate D2E/DX2                !
 ! D74   D(17,6,8,20)           -8.2124         estimate D2E/DX2                !
 ! D75   D(4,6,17,18)            4.8102         estimate D2E/DX2                !
 ! D76   D(4,6,17,19)          171.3229         estimate D2E/DX2                !
 ! D77   D(8,6,17,18)         -155.0546         estimate D2E/DX2                !
 ! D78   D(8,6,17,19)           11.4581         estimate D2E/DX2                !
 ! D79   D(1,7,8,6)              0.2452         estimate D2E/DX2                !
 ! D80   D(1,7,8,20)           163.4015         estimate D2E/DX2                !
 ! D81   D(9,7,8,6)           -127.0212         estimate D2E/DX2                !
 ! D82   D(9,7,8,20)            36.1351         estimate D2E/DX2                !
 ! D83   D(70,7,8,6)           119.9655         estimate D2E/DX2                !
 ! D84   D(70,7,8,20)          -76.8782         estimate D2E/DX2                !
 ! D85   D(1,7,9,11)            -5.1822         estimate D2E/DX2                !
 ! D86   D(1,7,9,22)          -161.3988         estimate D2E/DX2                !
 ! D87   D(8,7,9,11)           111.2907         estimate D2E/DX2                !
 ! D88   D(8,7,9,22)           -44.9258         estimate D2E/DX2                !
 ! D89   D(70,7,9,11)         -134.3387         estimate D2E/DX2                !
 ! D90   D(70,7,9,22)           69.4447         estimate D2E/DX2                !
 ! D91   D(6,8,20,21)           -0.0925         estimate D2E/DX2                !
 ! D92   D(6,8,20,23)          168.4048         estimate D2E/DX2                !
 ! D93   D(7,8,20,21)         -161.96           estimate D2E/DX2                !
 ! D94   D(7,8,20,23)            6.5374         estimate D2E/DX2                !
 ! D95   D(7,9,11,10)           -9.8168         estimate D2E/DX2                !
 ! D96   D(7,9,11,25)         -160.1198         estimate D2E/DX2                !
 ! D97   D(22,9,11,10)         146.3212         estimate D2E/DX2                !
 ! D98   D(22,9,11,25)          -3.9818         estimate D2E/DX2                !
 ! D99   D(7,9,22,23)           15.0428         estimate D2E/DX2                !
 ! D100  D(7,9,22,24)          166.4573         estimate D2E/DX2                !
 ! D101  D(11,9,22,23)        -141.5703         estimate D2E/DX2                !
 ! D102  D(11,9,22,24)           9.8442         estimate D2E/DX2                !
 ! D103  D(2,10,11,9)           27.1302         estimate D2E/DX2                !
 ! D104  D(2,10,11,25)         178.5916         estimate D2E/DX2                !
 ! D105  D(13,10,11,9)        -128.5437         estimate D2E/DX2                !
 ! D106  D(13,10,11,25)         22.9177         estimate D2E/DX2                !
 ! D107  D(2,10,13,12)         -18.0419         estimate D2E/DX2                !
 ! D108  D(2,10,13,27)        -172.7549         estimate D2E/DX2                !
 ! D109  D(11,10,13,12)        140.9816         estimate D2E/DX2                !
 ! D110  D(11,10,13,27)        -13.7314         estimate D2E/DX2                !
 ! D111  D(9,11,25,26)          -6.3815         estimate D2E/DX2                !
 ! D112  D(9,11,25,28)         137.504          estimate D2E/DX2                !
 ! D113  D(10,11,25,26)       -157.4974         estimate D2E/DX2                !
 ! D114  D(10,11,25,28)        -13.6119         estimate D2E/DX2                !
 ! D115  D(3,12,13,10)          13.8928         estimate D2E/DX2                !
 ! D116  D(3,12,13,27)         169.7487         estimate D2E/DX2                !
 ! D117  D(14,12,13,10)       -138.5879         estimate D2E/DX2                !
 ! D118  D(14,12,13,27)         17.268          estimate D2E/DX2                !
 ! D119  D(3,12,14,16)          -2.7234         estimate D2E/DX2                !
 ! D120  D(3,12,14,29)        -166.1215         estimate D2E/DX2                !
 ! D121  D(13,12,14,16)        144.8073         estimate D2E/DX2                !
 ! D122  D(13,12,14,29)        -18.5908         estimate D2E/DX2                !
 ! D123  D(10,13,27,28)         -6.5878         estimate D2E/DX2                !
 ! D124  D(10,13,27,30)        147.2283         estimate D2E/DX2                !
 ! D125  D(12,13,27,28)       -158.3091         estimate D2E/DX2                !
 ! D126  D(12,13,27,30)         -4.493          estimate D2E/DX2                !
 ! D127  D(12,14,16,15)        -30.475          estimate D2E/DX2                !
 ! D128  D(12,14,16,32)       -141.0603         estimate D2E/DX2                !
 ! D129  D(12,14,16,76)         92.5019         estimate D2E/DX2                !
 ! D130  D(29,14,16,15)        132.7259         estimate D2E/DX2                !
 ! D131  D(29,14,16,32)         22.1406         estimate D2E/DX2                !
 ! D132  D(29,14,16,76)       -104.2971         estimate D2E/DX2                !
 ! D133  D(12,14,29,30)          7.8389         estimate D2E/DX2                !
 ! D134  D(12,14,29,31)        162.1318         estimate D2E/DX2                !
 ! D135  D(16,14,29,30)       -154.9408         estimate D2E/DX2                !
 ! D136  D(16,14,29,31)         -0.6479         estimate D2E/DX2                !
 ! D137  D(5,15,16,14)          31.6193         estimate D2E/DX2                !
 ! D138  D(5,15,16,32)         149.6418         estimate D2E/DX2                !
 ! D139  D(5,15,16,76)         -89.7954         estimate D2E/DX2                !
 ! D140  D(18,15,16,14)       -126.8079         estimate D2E/DX2                !
 ! D141  D(18,15,16,32)         -8.7854         estimate D2E/DX2                !
 ! D142  D(18,15,16,76)        111.7774         estimate D2E/DX2                !
 ! D143  D(5,15,18,17)         -35.1006         estimate D2E/DX2                !
 ! D144  D(5,15,18,33)        -149.6053         estimate D2E/DX2                !
 ! D145  D(5,15,18,69)          88.6959         estimate D2E/DX2                !
 ! D146  D(16,15,18,17)        123.2065         estimate D2E/DX2                !
 ! D147  D(16,15,18,33)          8.7018         estimate D2E/DX2                !
 ! D148  D(16,15,18,69)       -112.9971         estimate D2E/DX2                !
 ! D149  D(14,16,32,33)        121.587          estimate D2E/DX2                !
 ! D150  D(14,16,32,34)        -30.3121         estimate D2E/DX2                !
 ! D151  D(15,16,32,33)          5.4602         estimate D2E/DX2                !
 ! D152  D(15,16,32,34)       -146.439          estimate D2E/DX2                !
 ! D153  D(76,16,32,33)       -114.1442         estimate D2E/DX2                !
 ! D154  D(76,16,32,34)         93.9567         estimate D2E/DX2                !
 ! D155  D(6,17,18,15)          32.6412         estimate D2E/DX2                !
 ! D156  D(6,17,18,33)         142.2126         estimate D2E/DX2                !
 ! D157  D(6,17,18,69)         -93.6218         estimate D2E/DX2                !
 ! D158  D(19,17,18,15)       -133.2996         estimate D2E/DX2                !
 ! D159  D(19,17,18,33)        -23.7282         estimate D2E/DX2                !
 ! D160  D(19,17,18,69)        100.4374         estimate D2E/DX2                !
 ! D161  D(6,17,19,21)          -6.4483         estimate D2E/DX2                !
 ! D162  D(6,17,19,35)        -176.9954         estimate D2E/DX2                !
 ! D163  D(18,17,19,21)        159.2878         estimate D2E/DX2                !
 ! D164  D(18,17,19,35)        -11.2594         estimate D2E/DX2                !
 ! D165  D(15,18,33,32)         -4.9134         estimate D2E/DX2                !
 ! D166  D(15,18,33,36)        146.5707         estimate D2E/DX2                !
 ! D167  D(17,18,33,32)       -118.0463         estimate D2E/DX2                !
 ! D168  D(17,18,33,36)         33.4379         estimate D2E/DX2                !
 ! D169  D(69,18,33,32)        118.6195         estimate D2E/DX2                !
 ! D170  D(69,18,33,36)        -89.8963         estimate D2E/DX2                !
 ! D171  D(17,19,21,20)         -1.4916         estimate D2E/DX2                !
 ! D172  D(17,19,21,38)       -174.1053         estimate D2E/DX2                !
 ! D173  D(35,19,21,20)        168.8221         estimate D2E/DX2                !
 ! D174  D(35,19,21,38)         -3.7915         estimate D2E/DX2                !
 ! D175  D(17,19,35,36)         36.1365         estimate D2E/DX2                !
 ! D176  D(17,19,35,37)        146.3291         estimate D2E/DX2                !
 ! D177  D(17,19,35,71)        -89.0458         estimate D2E/DX2                !
 ! D178  D(21,19,35,36)       -134.2311         estimate D2E/DX2                !
 ! D179  D(21,19,35,37)        -24.0385         estimate D2E/DX2                !
 ! D180  D(21,19,35,71)        100.5866         estimate D2E/DX2                !
 ! D181  D(8,20,21,19)           4.8226         estimate D2E/DX2                !
 ! D182  D(8,20,21,38)         177.4955         estimate D2E/DX2                !
 ! D183  D(23,20,21,19)       -162.9262         estimate D2E/DX2                !
 ! D184  D(23,20,21,38)          9.7467         estimate D2E/DX2                !
 ! D185  D(8,20,23,22)         -38.5362         estimate D2E/DX2                !
 ! D186  D(8,20,23,40)        -148.0858         estimate D2E/DX2                !
 ! D187  D(8,20,23,73)          88.1763         estimate D2E/DX2                !
 ! D188  D(21,20,23,22)        129.5916         estimate D2E/DX2                !
 ! D189  D(21,20,23,40)         20.042          estimate D2E/DX2                !
 ! D190  D(21,20,23,73)       -103.6959         estimate D2E/DX2                !
 ! D191  D(19,21,38,39)         28.8645         estimate D2E/DX2                !
 ! D192  D(19,21,38,42)        140.2284         estimate D2E/DX2                !
 ! D193  D(19,21,38,72)        -95.7742         estimate D2E/DX2                !
 ! D194  D(20,21,38,39)       -143.7767         estimate D2E/DX2                !
 ! D195  D(20,21,38,42)        -32.4128         estimate D2E/DX2                !
 ! D196  D(20,21,38,72)         91.5846         estimate D2E/DX2                !
 ! D197  D(9,22,23,20)          29.6162         estimate D2E/DX2                !
 ! D198  D(9,22,23,40)         145.0979         estimate D2E/DX2                !
 ! D199  D(9,22,23,73)         -92.6134         estimate D2E/DX2                !
 ! D200  D(24,22,23,20)       -124.7052         estimate D2E/DX2                !
 ! D201  D(24,22,23,40)         -9.2235         estimate D2E/DX2                !
 ! D202  D(24,22,23,73)        113.0652         estimate D2E/DX2                !
 ! D203  D(9,22,24,26)          -5.6802         estimate D2E/DX2                !
 ! D204  D(9,22,24,41)        -151.4827         estimate D2E/DX2                !
 ! D205  D(23,22,24,26)        150.0996         estimate D2E/DX2                !
 ! D206  D(23,22,24,41)          4.2972         estimate D2E/DX2                !
 ! D207  D(20,23,40,41)        122.5549         estimate D2E/DX2                !
 ! D208  D(20,23,40,42)        -26.7474         estimate D2E/DX2                !
 ! D209  D(22,23,40,41)         11.2894         estimate D2E/DX2                !
 ! D210  D(22,23,40,42)       -138.0128         estimate D2E/DX2                !
 ! D211  D(73,23,40,41)       -114.6406         estimate D2E/DX2                !
 ! D212  D(73,23,40,42)         96.0572         estimate D2E/DX2                !
 ! D213  D(22,24,26,25)         -4.554          estimate D2E/DX2                !
 ! D214  D(22,24,26,44)       -141.772          estimate D2E/DX2                !
 ! D215  D(41,24,26,25)        138.1702         estimate D2E/DX2                !
 ! D216  D(41,24,26,44)          0.9523         estimate D2E/DX2                !
 ! D217  D(22,24,41,40)          2.9375         estimate D2E/DX2                !
 ! D218  D(22,24,41,43)        147.3316         estimate D2E/DX2                !
 ! D219  D(26,24,41,40)       -143.7069         estimate D2E/DX2                !
 ! D220  D(26,24,41,43)          0.6872         estimate D2E/DX2                !
 ! D221  D(11,25,26,24)         10.5146         estimate D2E/DX2                !
 ! D222  D(11,25,26,44)        152.5878         estimate D2E/DX2                !
 ! D223  D(28,25,26,24)       -138.2163         estimate D2E/DX2                !
 ! D224  D(28,25,26,44)          3.857          estimate D2E/DX2                !
 ! D225  D(11,25,28,27)         -6.7697         estimate D2E/DX2                !
 ! D226  D(11,25,28,45)       -152.189          estimate D2E/DX2                !
 ! D227  D(26,25,28,27)        141.6292         estimate D2E/DX2                !
 ! D228  D(26,25,28,45)         -3.7901         estimate D2E/DX2                !
 ! D229  D(24,26,44,45)        137.8382         estimate D2E/DX2                !
 ! D230  D(24,26,44,46)         -2.0154         estimate D2E/DX2                !
 ! D231  D(25,26,44,45)         -2.5113         estimate D2E/DX2                !
 ! D232  D(25,26,44,46)       -142.3649         estimate D2E/DX2                !
 ! D233  D(13,27,28,25)         16.3459         estimate D2E/DX2                !
 ! D234  D(13,27,28,45)        157.7916         estimate D2E/DX2                !
 ! D235  D(30,27,28,25)       -136.7614         estimate D2E/DX2                !
 ! D236  D(30,27,28,45)          4.6843         estimate D2E/DX2                !
 ! D237  D(13,27,30,29)         -6.1237         estimate D2E/DX2                !
 ! D238  D(13,27,30,47)       -160.1649         estimate D2E/DX2                !
 ! D239  D(28,27,30,29)        145.8538         estimate D2E/DX2                !
 ! D240  D(28,27,30,47)         -8.1874         estimate D2E/DX2                !
 ! D241  D(25,28,45,44)          2.2463         estimate D2E/DX2                !
 ! D242  D(25,28,45,48)        145.7024         estimate D2E/DX2                !
 ! D243  D(27,28,45,44)       -142.6761         estimate D2E/DX2                !
 ! D244  D(27,28,45,48)          0.7801         estimate D2E/DX2                !
 ! D245  D(14,29,30,27)          4.6347         estimate D2E/DX2                !
 ! D246  D(14,29,30,47)        157.9632         estimate D2E/DX2                !
 ! D247  D(31,29,30,27)       -149.7277         estimate D2E/DX2                !
 ! D248  D(31,29,30,47)          3.6007         estimate D2E/DX2                !
 ! D249  D(14,29,31,34)        -14.8584         estimate D2E/DX2                !
 ! D250  D(14,29,31,49)       -153.437          estimate D2E/DX2                !
 ! D251  D(30,29,31,34)        139.6644         estimate D2E/DX2                !
 ! D252  D(30,29,31,49)          1.0858         estimate D2E/DX2                !
 ! D253  D(27,30,47,48)          6.6177         estimate D2E/DX2                !
 ! D254  D(27,30,47,50)        148.6043         estimate D2E/DX2                !
 ! D255  D(29,30,47,48)       -147.4014         estimate D2E/DX2                !
 ! D256  D(29,30,47,50)         -5.4148         estimate D2E/DX2                !
 ! D257  D(29,31,34,32)          7.1076         estimate D2E/DX2                !
 ! D258  D(29,31,34,51)       -137.4184         estimate D2E/DX2                !
 ! D259  D(49,31,34,32)        151.4143         estimate D2E/DX2                !
 ! D260  D(49,31,34,51)          6.8883         estimate D2E/DX2                !
 ! D261  D(29,31,49,50)         -4.1712         estimate D2E/DX2                !
 ! D262  D(29,31,49,54)        138.33           estimate D2E/DX2                !
 ! D263  D(34,31,49,50)       -147.3187         estimate D2E/DX2                !
 ! D264  D(34,31,49,54)         -4.8175         estimate D2E/DX2                !
 ! D265  D(16,32,33,18)         -0.3863         estimate D2E/DX2                !
 ! D266  D(16,32,33,36)       -152.0512         estimate D2E/DX2                !
 ! D267  D(34,32,33,18)        151.53           estimate D2E/DX2                !
 ! D268  D(34,32,33,36)         -0.1349         estimate D2E/DX2                !
 ! D269  D(16,32,34,31)         17.1813         estimate D2E/DX2                !
 ! D270  D(16,32,34,51)        158.2079         estimate D2E/DX2                !
 ! D271  D(33,32,34,31)       -132.6919         estimate D2E/DX2                !
 ! D272  D(33,32,34,51)          8.3347         estimate D2E/DX2                !
 ! D273  D(18,33,36,35)         -7.6973         estimate D2E/DX2                !
 ! D274  D(18,33,36,52)       -155.5293         estimate D2E/DX2                !
 ! D275  D(32,33,36,35)        140.9259         estimate D2E/DX2                !
 ! D276  D(32,33,36,52)         -6.9061         estimate D2E/DX2                !
 ! D277  D(31,34,51,52)        136.0112         estimate D2E/DX2                !
 ! D278  D(31,34,51,54)         -6.2322         estimate D2E/DX2                !
 ! D279  D(32,34,51,52)         -9.4975         estimate D2E/DX2                !
 ! D280  D(32,34,51,54)       -151.741          estimate D2E/DX2                !
 ! D281  D(19,35,36,33)        -27.6914         estimate D2E/DX2                !
 ! D282  D(19,35,36,52)        122.4077         estimate D2E/DX2                !
 ! D283  D(37,35,36,33)       -144.408          estimate D2E/DX2                !
 ! D284  D(37,35,36,52)          5.6911         estimate D2E/DX2                !
 ! D285  D(71,35,36,33)         93.7565         estimate D2E/DX2                !
 ! D286  D(71,35,36,52)       -116.1444         estimate D2E/DX2                !
 ! D287  D(19,35,37,39)         27.1829         estimate D2E/DX2                !
 ! D288  D(19,35,37,53)       -122.1034         estimate D2E/DX2                !
 ! D289  D(36,35,37,39)        142.0915         estimate D2E/DX2                !
 ! D290  D(36,35,37,53)         -7.1947         estimate D2E/DX2                !
 ! D291  D(71,35,37,39)        -94.8711         estimate D2E/DX2                !
 ! D292  D(71,35,37,53)        115.8427         estimate D2E/DX2                !
 ! D293  D(33,36,52,51)          5.6236         estimate D2E/DX2                !
 ! D294  D(33,36,52,53)        149.1145         estimate D2E/DX2                !
 ! D295  D(35,36,52,51)       -145.7564         estimate D2E/DX2                !
 ! D296  D(35,36,52,53)         -2.2655         estimate D2E/DX2                !
 ! D297  D(35,37,39,38)         -1.51           estimate D2E/DX2                !
 ! D298  D(35,37,39,57)       -148.3912         estimate D2E/DX2                !
 ! D299  D(53,37,39,38)        145.1719         estimate D2E/DX2                !
 ! D300  D(53,37,39,57)         -1.7093         estimate D2E/DX2                !
 ! D301  D(35,37,53,52)          6.3486         estimate D2E/DX2                !
 ! D302  D(35,37,53,55)        149.6221         estimate D2E/DX2                !
 ! D303  D(39,37,53,52)       -143.9299         estimate D2E/DX2                !
 ! D304  D(39,37,53,55)         -0.6564         estimate D2E/DX2                !
 ! D305  D(21,38,39,37)        -26.774          estimate D2E/DX2                !
 ! D306  D(21,38,39,57)        122.5717         estimate D2E/DX2                !
 ! D307  D(42,38,39,37)       -143.3885         estimate D2E/DX2                !
 ! D308  D(42,38,39,57)          5.9572         estimate D2E/DX2                !
 ! D309  D(72,38,39,37)         93.9463         estimate D2E/DX2                !
 ! D310  D(72,38,39,57)       -116.708          estimate D2E/DX2                !
 ! D311  D(21,38,42,40)         26.7239         estimate D2E/DX2                !
 ! D312  D(21,38,42,58)       -123.3946         estimate D2E/DX2                !
 ! D313  D(39,38,42,40)        144.083          estimate D2E/DX2                !
 ! D314  D(39,38,42,58)         -6.0354         estimate D2E/DX2                !
 ! D315  D(72,38,42,40)        -93.2504         estimate D2E/DX2                !
 ! D316  D(72,38,42,58)        116.6312         estimate D2E/DX2                !
 ! D317  D(37,39,57,58)        146.6019         estimate D2E/DX2                !
 ! D318  D(37,39,57,60)          2.3647         estimate D2E/DX2                !
 ! D319  D(38,39,57,58)         -3.8801         estimate D2E/DX2                !
 ! D320  D(38,39,57,60)       -148.1174         estimate D2E/DX2                !
 ! D321  D(23,40,41,24)         -9.2266         estimate D2E/DX2                !
 ! D322  D(23,40,41,43)       -153.0325         estimate D2E/DX2                !
 ! D323  D(42,40,41,24)        140.9043         estimate D2E/DX2                !
 ! D324  D(42,40,41,43)         -2.9016         estimate D2E/DX2                !
 ! D325  D(23,40,42,38)          3.0452         estimate D2E/DX2                !
 ! D326  D(23,40,42,58)        150.6815         estimate D2E/DX2                !
 ! D327  D(41,40,42,38)       -143.623          estimate D2E/DX2                !
 ! D328  D(41,40,42,58)          4.0133         estimate D2E/DX2                !
 ! D329  D(24,41,43,46)         -1.3026         estimate D2E/DX2                !
 ! D330  D(24,41,43,59)       -139.1983         estimate D2E/DX2                !
 ! D331  D(40,41,43,46)        138.1487         estimate D2E/DX2                !
 ! D332  D(40,41,43,59)          0.253          estimate D2E/DX2                !
 ! D333  D(38,42,58,57)          4.1092         estimate D2E/DX2                !
 ! D334  D(38,42,58,59)        148.6978         estimate D2E/DX2                !
 ! D335  D(40,42,58,57)       -147.255          estimate D2E/DX2                !
 ! D336  D(40,42,58,59)         -2.6664         estimate D2E/DX2                !
 ! D337  D(41,43,46,44)          0.2469         estimate D2E/DX2                !
 ! D338  D(41,43,46,61)       -142.1733         estimate D2E/DX2                !
 ! D339  D(59,43,46,44)        142.3475         estimate D2E/DX2                !
 ! D340  D(59,43,46,61)         -0.0726         estimate D2E/DX2                !
 ! D341  D(41,43,59,58)          1.1297         estimate D2E/DX2                !
 ! D342  D(41,43,59,65)        144.2041         estimate D2E/DX2                !
 ! D343  D(46,43,59,58)       -141.7189         estimate D2E/DX2                !
 ! D344  D(46,43,59,65)          1.3555         estimate D2E/DX2                !
 ! D345  D(26,44,45,28)          0.1542         estimate D2E/DX2                !
 ! D346  D(26,44,45,48)       -142.3509         estimate D2E/DX2                !
 ! D347  D(46,44,45,28)        140.5497         estimate D2E/DX2                !
 ! D348  D(46,44,45,48)         -1.9555         estimate D2E/DX2                !
 ! D349  D(26,44,46,43)          1.3796         estimate D2E/DX2                !
 ! D350  D(26,44,46,61)        139.6156         estimate D2E/DX2                !
 ! D351  D(45,44,46,43)       -134.0033         estimate D2E/DX2                !
 ! D352  D(45,44,46,61)          4.2327         estimate D2E/DX2                !
 ! D353  D(28,45,48,47)         -2.3587         estimate D2E/DX2                !
 ! D354  D(28,45,48,62)       -140.7887         estimate D2E/DX2                !
 ! D355  D(44,45,48,47)        135.7517         estimate D2E/DX2                !
 ! D356  D(44,45,48,62)         -2.6784         estimate D2E/DX2                !
 ! D357  D(43,46,61,62)        139.9614         estimate D2E/DX2                !
 ! D358  D(43,46,61,65)         -1.2294         estimate D2E/DX2                !
 ! D359  D(44,46,61,62)         -1.9243         estimate D2E/DX2                !
 ! D360  D(44,46,61,65)       -143.1151         estimate D2E/DX2                !
 ! D361  D(30,47,48,45)         -1.5198         estimate D2E/DX2                !
 ! D362  D(30,47,48,62)        140.8558         estimate D2E/DX2                !
 ! D363  D(50,47,48,45)       -148.2004         estimate D2E/DX2                !
 ! D364  D(50,47,48,62)         -5.8248         estimate D2E/DX2                !
 ! D365  D(30,47,50,49)          2.3785         estimate D2E/DX2                !
 ! D366  D(30,47,50,63)       -140.8228         estimate D2E/DX2                !
 ! D367  D(48,47,50,49)        149.1077         estimate D2E/DX2                !
 ! D368  D(48,47,50,63)          5.9064         estimate D2E/DX2                !
 ! D369  D(45,48,62,61)          4.9763         estimate D2E/DX2                !
 ! D370  D(45,48,62,63)        146.1549         estimate D2E/DX2                !
 ! D371  D(47,48,62,61)       -137.6787         estimate D2E/DX2                !
 ! D372  D(47,48,62,63)          3.4999         estimate D2E/DX2                !
 ! D373  D(31,49,50,47)          2.3737         estimate D2E/DX2                !
 ! D374  D(31,49,50,63)        140.954          estimate D2E/DX2                !
 ! D375  D(54,49,50,47)       -135.919          estimate D2E/DX2                !
 ! D376  D(54,49,50,63)          2.6613         estimate D2E/DX2                !
 ! D377  D(31,49,54,51)          1.0932         estimate D2E/DX2                !
 ! D378  D(31,49,54,56)       -140.5853         estimate D2E/DX2                !
 ! D379  D(50,49,54,51)        143.7552         estimate D2E/DX2                !
 ! D380  D(50,49,54,56)          2.0767         estimate D2E/DX2                !
 ! D381  D(47,50,63,62)         -3.7948         estimate D2E/DX2                !
 ! D382  D(47,50,63,64)        137.1532         estimate D2E/DX2                !
 ! D383  D(49,50,63,62)       -146.0617         estimate D2E/DX2                !
 ! D384  D(49,50,63,64)         -5.1137         estimate D2E/DX2                !
 ! D385  D(34,51,52,36)          2.5054         estimate D2E/DX2                !
 ! D386  D(34,51,52,53)       -136.7263         estimate D2E/DX2                !
 ! D387  D(54,51,52,36)        139.8642         estimate D2E/DX2                !
 ! D388  D(54,51,52,53)          0.6325         estimate D2E/DX2                !
 ! D389  D(34,51,54,49)          3.2075         estimate D2E/DX2                !
 ! D390  D(34,51,54,56)        144.6745         estimate D2E/DX2                !
 ! D391  D(52,51,54,49)       -138.7717         estimate D2E/DX2                !
 ! D392  D(52,51,54,56)          2.6954         estimate D2E/DX2                !
 ! D393  D(36,52,53,37)         -2.4813         estimate D2E/DX2                !
 ! D394  D(36,52,53,55)       -146.9236         estimate D2E/DX2                !
 ! D395  D(51,52,53,37)        140.8294         estimate D2E/DX2                !
 ! D396  D(51,52,53,55)         -3.6129         estimate D2E/DX2                !
 ! D397  D(37,53,55,56)       -136.2401         estimate D2E/DX2                !
 ! D398  D(37,53,55,60)          2.4134         estimate D2E/DX2                !
 ! D399  D(52,53,55,56)          3.3469         estimate D2E/DX2                !
 ! D400  D(52,53,55,60)        142.0004         estimate D2E/DX2                !
 ! D401  D(49,54,56,55)        134.405          estimate D2E/DX2                !
 ! D402  D(49,54,56,64)         -4.3585         estimate D2E/DX2                !
 ! D403  D(51,54,56,55)         -2.9652         estimate D2E/DX2                !
 ! D404  D(51,54,56,64)       -141.7287         estimate D2E/DX2                !
 ! D405  D(53,55,56,54)         -0.0621         estimate D2E/DX2                !
 ! D406  D(53,55,56,64)        143.2199         estimate D2E/DX2                !
 ! D407  D(60,55,56,54)       -142.6134         estimate D2E/DX2                !
 ! D408  D(60,55,56,64)          0.6686         estimate D2E/DX2                !
 ! D409  D(53,55,60,57)         -1.7514         estimate D2E/DX2                !
 ! D410  D(53,55,60,66)       -145.4819         estimate D2E/DX2                !
 ! D411  D(56,55,60,57)        141.8546         estimate D2E/DX2                !
 ! D412  D(56,55,60,66)         -1.8759         estimate D2E/DX2                !
 ! D413  D(54,56,64,63)          1.903          estimate D2E/DX2                !
 ! D414  D(54,56,64,66)        143.5095         estimate D2E/DX2                !
 ! D415  D(55,56,64,63)       -140.8119         estimate D2E/DX2                !
 ! D416  D(55,56,64,66)          0.7946         estimate D2E/DX2                !
 ! D417  D(39,57,58,42)         -0.1477         estimate D2E/DX2                !
 ! D418  D(39,57,58,59)       -145.5364         estimate D2E/DX2                !
 ! D419  D(60,57,58,42)        145.0146         estimate D2E/DX2                !
[...]
 Alpha virt. eigenvalues --    1.31733   1.31947   1.32024   1.32575   1.32606
 Alpha virt. eigenvalues --    1.32996   1.33303   1.34042   1.34483   1.34622
 Alpha virt. eigenvalues --    1.34979   1.35040   1.35683   1.35829   1.36110
 Alpha virt. eigenvalues --    1.36444   1.36545   1.37248   1.37599   1.38049
 Alpha virt. eigenvalues --    1.38305   1.38500   1.38908   1.39394   1.39433
 Alpha virt. eigenvalues --    1.40042   1.40275   1.40657   1.40761   1.40995
 Alpha virt. eigenvalues --    1.41293   1.41650   1.41744   1.41970   1.42239
 Alpha virt. eigenvalues --    1.42443   1.42556   1.42689   1.43095   1.43434
 Alpha virt. eigenvalues --    1.43475   1.44035   1.44210   1.44466   1.44642
 Alpha virt. eigenvalues --    1.44728   1.45082   1.45459   1.45835   1.45963
 Alpha virt. eigenvalues --    1.46082   1.46359   1.46470   1.46665   1.46902
 Alpha virt. eigenvalues --    1.47048   1.47540   1.47792   1.48079   1.48175
 Alpha virt. eigenvalues --    1.48504   1.48846   1.49001   1.49495   1.49646
 Alpha virt. eigenvalues --    1.50021   1.50129   1.50363   1.50735   1.50959
 Alpha virt. eigenvalues --    1.51212   1.51464   1.51959   1.52071   1.52357
 Alpha virt. eigenvalues --    1.52767   1.53187   1.53557   1.53824   1.54084
 Alpha virt. eigenvalues --    1.54124   1.54602   1.55078   1.55345   1.55584
 Alpha virt. eigenvalues --    1.55790   1.56113   1.56704   1.57060   1.57441
 Alpha virt. eigenvalues --    1.58070   1.58427   1.59000   1.59114   1.59215
 Alpha virt. eigenvalues --    1.59644   1.59939   1.60192   1.60449   1.60953
 Alpha virt. eigenvalues --    1.61219   1.61699   1.61969   1.62526   1.62859
 Alpha virt. eigenvalues --    1.63215   1.63544   1.63785   1.64135   1.64947
 Alpha virt. eigenvalues --    1.65295   1.65555   1.65957   1.66128   1.66506
 Alpha virt. eigenvalues --    1.66823   1.67098   1.67562   1.67705   1.68098
 Alpha virt. eigenvalues --    1.68748   1.68811   1.69074   1.69492   1.69733
 Alpha virt. eigenvalues --    1.69982   1.70980   1.71515   1.71753   1.72088
 Alpha virt. eigenvalues --    1.72113   1.73113   1.73192   1.73496   1.73946
 Alpha virt. eigenvalues --    1.74277   1.74418   1.74784   1.75097   1.75607
 Alpha virt. eigenvalues --    1.75689   1.75794   1.76455   1.76740   1.77079
 Alpha virt. eigenvalues --    1.77708   1.77821   1.78467   1.78758   1.79634
 Alpha virt. eigenvalues --    1.80581   1.80847   1.80958   1.81260   1.81790
 Alpha virt. eigenvalues --    1.82270   1.83110   1.83272   1.84506   1.85056
 Alpha virt. eigenvalues --    1.85469   1.85611   1.86071   1.86411   1.86797
 Alpha virt. eigenvalues --    1.87330   1.87555   1.88475   1.88623   1.89084
 Alpha virt. eigenvalues --    1.89752   1.90390   1.91325   1.91488   1.91644
 Alpha virt. eigenvalues --    1.91798   1.92933   1.93552   1.93736   1.94102
 Alpha virt. eigenvalues --    1.94607   1.95269   1.95451   1.95921   1.96086
 Alpha virt. eigenvalues --    1.96712   1.97385   1.97994   1.98890   1.99122
 Alpha virt. eigenvalues --    1.99438   1.99864   2.00435   2.00613   2.01068
 Alpha virt. eigenvalues --    2.01108   2.01384   2.01447   2.01753   2.02409
 Alpha virt. eigenvalues --    2.02571   2.02785   2.03881   2.04459   2.05210
 Alpha virt. eigenvalues --    2.05480   2.05684   2.06038   2.06361   2.06759
 Alpha virt. eigenvalues --    2.07265   2.07629   2.07974   2.08048   2.08711
 Alpha virt. eigenvalues --    2.08982   2.09267   2.10200   2.10353   2.10644
 Alpha virt. eigenvalues --    2.10975   2.11025   2.11832   2.12526   2.12895
 Alpha virt. eigenvalues --    2.13186   2.13987   2.14310   2.14827   2.15038
 Alpha virt. eigenvalues --    2.15334   2.15638   2.16094   2.16252   2.17219
 Alpha virt. eigenvalues --    2.17588   2.18256   2.18718   2.19097   2.19363
 Alpha virt. eigenvalues --    2.19931   2.20300   2.21130   2.21429   2.21923
 Alpha virt. eigenvalues --    2.22383   2.22480   2.22913   2.23288   2.23764
 Alpha virt. eigenvalues --    2.24047   2.24595   2.24658   2.25453   2.25507
 Alpha virt. eigenvalues --    2.25932   2.26148   2.26562   2.26932   2.27601
 Alpha virt. eigenvalues --    2.27737   2.27824   2.29042   2.29419   2.29692
 Alpha virt. eigenvalues --    2.30085   2.30628   2.30857   2.31465   2.31678
 Alpha virt. eigenvalues --    2.32161   2.32498   2.32764   2.33219   2.34077
 Alpha virt. eigenvalues --    2.34423   2.34703   2.35500   2.35783   2.36148
 Alpha virt. eigenvalues --    2.36430   2.37101   2.37629   2.37817   2.38186
 Alpha virt. eigenvalues --    2.38358   2.38855   2.39347   2.39595   2.40165
 Alpha virt. eigenvalues --    2.40515   2.40776   2.41191   2.41352   2.41828
 Alpha virt. eigenvalues --    2.42160   2.43064   2.43112   2.43453   2.43923
 Alpha virt. eigenvalues --    2.44230   2.44816   2.45492   2.46046   2.46127
 Alpha virt. eigenvalues --    2.46786   2.47351   2.47597   2.48166   2.48511
 Alpha virt. eigenvalues --    2.48902   2.49479   2.49880   2.50667   2.51377
 Alpha virt. eigenvalues --    2.51650   2.51972   2.52821   2.53533   2.53855
 Alpha virt. eigenvalues --    2.54202   2.54782   2.54829   2.55269   2.55370
 Alpha virt. eigenvalues --    2.56083   2.56493   2.56720   2.57000   2.58201
 Alpha virt. eigenvalues --    2.58595   2.58800   2.59089   2.59662   2.60394
 Alpha virt. eigenvalues --    2.61122   2.61722   2.62428   2.62707   2.62838
 Alpha virt. eigenvalues --    2.63252   2.63722   2.63989   2.65114   2.65337
 Alpha virt. eigenvalues --    2.66527   2.66893   2.67780   2.68853   2.69959
 Alpha virt. eigenvalues --    2.70233   2.70603   2.71457   2.72234   2.73084
 Alpha virt. eigenvalues --    2.74232   2.74678   2.75669   2.76241   2.76909
 Alpha virt. eigenvalues --    2.77209   2.78782   2.79222   2.79514   2.80760
 Alpha virt. eigenvalues --    2.81117   2.81341   2.81670   2.82209   2.82676
 Alpha virt. eigenvalues --    2.83190   2.84332   2.86056   2.86176   2.87173
 Alpha virt. eigenvalues --    2.88101   2.88602   2.90499   2.91185   2.92211
 Alpha virt. eigenvalues --    2.92490   2.92676   2.93388   2.93709   2.94129
 Alpha virt. eigenvalues --    2.94328   2.94596   2.95215   2.95765   2.96140
 Alpha virt. eigenvalues --    2.96855   2.97281   2.97598   2.97726   2.98578
 Alpha virt. eigenvalues --    2.98860   2.99300   2.99453   2.99704   2.99894
 Alpha virt. eigenvalues --    3.00123   3.00839   3.01505   3.01804   3.02482
 Alpha virt. eigenvalues --    3.03101   3.03626   3.03781   3.03997   3.04530
 Alpha virt. eigenvalues --    3.05015   3.05139   3.05154   3.06058   3.06275
 Alpha virt. eigenvalues --    3.07137   3.07548   3.07659   3.08216   3.08413
 Alpha virt. eigenvalues --    3.08817   3.09448   3.09622   3.09887   3.10289
 Alpha virt. eigenvalues --    3.10955   3.11035   3.11384   3.11794   3.11915
 Alpha virt. eigenvalues --    3.12215   3.12341   3.12876   3.12945   3.13709
 Alpha virt. eigenvalues --    3.13772   3.14237   3.14688   3.14973   3.15617
 Alpha virt. eigenvalues --    3.15732   3.16028   3.16671   3.16971   3.17737
 Alpha virt. eigenvalues --    3.18375   3.18529   3.19271   3.19736   3.19895
 Alpha virt. eigenvalues --    3.21161   3.21344   3.22802   3.23955   3.24869
 Alpha virt. eigenvalues --    3.24968   3.25414   3.27761   3.28964   3.31945
 Alpha virt. eigenvalues --    3.32581   3.36374   3.36705   3.38363   3.39569
 Alpha virt. eigenvalues --    3.40371   3.41979   3.42407   3.43981   3.44991
 Alpha virt. eigenvalues --    3.46039   3.47144   3.47806   3.49398   3.50392
 Alpha virt. eigenvalues --    3.51151   3.51200   3.52560   3.52655   3.53854
 Alpha virt. eigenvalues --    3.55019   3.55968   3.57195   3.58248   3.59494
 Alpha virt. eigenvalues --    3.60217   3.61156   3.61339   3.61635   3.63503
 Alpha virt. eigenvalues --    3.64904   3.65298   3.66380   3.68067   3.68662
 Alpha virt. eigenvalues --    3.68911   3.70541   3.70921   3.72320   3.73118
 Alpha virt. eigenvalues --    3.74307   3.74859   3.76043   3.77706   3.78562
 Alpha virt. eigenvalues --    3.80183   3.82214   3.82759   3.83388   3.83765
 Alpha virt. eigenvalues --    3.84673   3.85950   3.86587   3.87445   3.87682
 Alpha virt. eigenvalues --    3.87805   3.88193   3.88565   3.89640   3.90512
 Alpha virt. eigenvalues --    3.90883   3.92832   3.94385   4.01769   4.06854
 Alpha virt. eigenvalues --    4.18711   4.21331   4.21989   4.22773   4.23654
 Alpha virt. eigenvalues --    4.27473   4.31339   4.34031   4.34665   4.35661
 Alpha virt. eigenvalues --    4.36504   4.39059   4.39848   4.44606   4.46970
 Alpha virt. eigenvalues --    4.48319   4.49211   4.50453   4.55749   4.59029
 Alpha virt. eigenvalues --    4.61894   4.62908   4.65228   4.70293   4.77058
 Alpha virt. eigenvalues --    4.79008   4.80077   4.86041   4.87063   4.93681
 Alpha virt. eigenvalues --    4.96575   4.99624   5.01951   5.04042   9.47872
 Alpha virt. eigenvalues --    9.54496   9.58080   9.59668   9.63070   9.65573
 Alpha virt. eigenvalues --    9.67620   9.68244   9.74222   9.76590  23.00271
 Alpha virt. eigenvalues --   23.20576  23.22202  23.22950  23.39535  23.43775
 Alpha virt. eigenvalues --   23.45414  23.49134  23.53182  23.59639  23.60753
 Alpha virt. eigenvalues --   23.65428  23.66756  23.67088  23.69941  23.71456
 Alpha virt. eigenvalues --   23.71776  23.73033  23.75233  23.75765  23.78438
 Alpha virt. eigenvalues --   23.78999  23.79795  23.80501  23.80787  23.82832
 Alpha virt. eigenvalues --   23.83511  23.84930  23.86389  23.87692  23.88735
 Alpha virt. eigenvalues --   23.90577  23.91378  23.92192  23.93231  23.94531
 Alpha virt. eigenvalues --   23.94902  23.95500  23.96195  23.96555  23.97523
 Alpha virt. eigenvalues --   23.98320  23.98482  23.99206  23.99610  23.99806
 Alpha virt. eigenvalues --   24.01354  24.02017  24.02605  24.04239  24.04979
 Alpha virt. eigenvalues --   24.06623  24.07578  24.07773  24.08682  24.09031
 Alpha virt. eigenvalues --   24.09112  24.09654  24.10450  24.10745  24.11747
 Alpha virt. eigenvalues --   24.13574  24.14267  24.14498  24.15520  24.21033
 Alpha virt. eigenvalues --   25.48227  25.54527  25.59444  25.63886  25.64144
 Alpha virt. eigenvalues --   25.65570  25.68934  25.75770  25.76524  25.77181
 Alpha virt. eigenvalues --   25.80867  25.82136  25.85831  25.87568  25.88544
 Alpha virt. eigenvalues --   25.92630  25.94309  25.94755  26.00155  26.07913
 Alpha virt. eigenvalues --   26.10676  26.20305  26.23416  26.28993  26.37506
 Alpha virt. eigenvalues --   26.40775  26.46475  26.55621  26.59560  26.74700
 Alpha virt. eigenvalues --  215.42029 215.49721 215.53737 215.55604 215.59482
 Alpha virt. eigenvalues --  215.62308 215.64676 215.65554 215.72314 215.74643
          Condensed to atoms (all electrons):
 Mulliken charges:
               1
     1  C   -0.139946
     2  C   -0.273208
     3  C   -0.459887
     4  C   -0.481284
     5  C    0.382940
     6  C    0.179713
     7  C   -0.542058
     8  C    0.262015
     9  C    0.185641
    10  C    0.022362
    11  C    0.093284
    12  C    0.174836
    13  C    0.077547
    14  C    0.158064
    15  C    0.372728
    16  C   -0.653989
    17  C    0.262694
    18  C   -0.674929
    19  C    0.181791
    20  C    0.264045
    21  C    0.149853
    22  C    0.173647
    23  C   -0.666666
    24  C    0.035319
    25  C   -0.009313
    26  C    0.000665
    27  C    0.015719
    28  C    0.006937
    29  C    0.058973
    30  C    0.035407
    31  C   -0.016594
    32  C    0.165818
    33  C    0.183776
    34  C    0.025969
    35  C   -0.686890
    36  C    0.186608
    37  C    0.180229
    38  C   -0.688711
    39  C    0.175265
    40  C    0.158763
    41  C    0.043328
    42  C    0.183350
    43  C    0.001126
    44  C    0.001641
    45  C   -0.004060
    46  C    0.004597
    47  C   -0.003764
    48  C    0.002180
    49  C   -0.002892
    50  C   -0.001402
    51  C    0.006270
    52  C    0.046218
    53  C    0.028546
    54  C    0.003686
    55  C    0.001154
    56  C    0.002836
    57  C    0.035883
    58  C    0.035928
    59  C    0.002677
    60  C    0.002035
    61  C    0.004611
    62  C    0.001712
    63  C    0.001615
    64  C    0.005466
    65  C    0.002283
    66  C    0.001018
    67  Cl   0.108404
    68  Cl   0.086954
    69  Cl   0.066652
    70  Cl   0.094224
    71  Cl   0.051993
    72  Cl   0.048974
    73  Cl   0.056539
    74  Cl   0.080418
    75  Cl   0.083585
    76  Cl   0.039083
 Sum of Mulliken charges =  -0.00000
 Mulliken charges with hydrogens summed into heavy atoms:
               1
     1  C   -0.139946
     2  C   -0.273208
     3  C   -0.459887
     4  C   -0.481284
     5  C    0.382940
     6  C    0.179713
     7  C   -0.542058
     8  C    0.262015
     9  C    0.185641
    10  C    0.022362
    11  C    0.093284
    12  C    0.174836
    13  C    0.077547
    14  C    0.158064
    15  C    0.372728
    16  C   -0.653989
    17  C    0.262694
    18  C   -0.674929
    19  C    0.181791
    20  C    0.264045
    21  C    0.149853
    22  C    0.173647
    23  C   -0.666666
    24  C    0.035319
    25  C   -0.009313
    26  C    0.000665
    27  C    0.015719
    28  C    0.006937
    29  C    0.058973
    30  C    0.035407
    31  C   -0.016594
    32  C    0.165818
    33  C    0.183776
    34  C    0.025969
    35  C   -0.686890
    36  C    0.186608
    37  C    0.180229
    38  C   -0.688711
    39  C    0.175265
    40  C    0.158763
    41  C    0.043328
    42  C    0.183350
    43  C    0.001126
    44  C    0.001641
    45  C   -0.004060
    46  C    0.004597
    47  C   -0.003764
    48  C    0.002180
    49  C   -0.002892
    50  C   -0.001402
    51  C    0.006270
    52  C    0.046218
    53  C    0.028546
    54  C    0.003686
    55  C    0.001154
    56  C    0.002836
    57  C    0.035883
    58  C    0.035928
    59  C    0.002677
    60  C    0.002035
    61  C    0.004611
    62  C    0.001712
    63  C    0.001615
    64  C    0.005466
    65  C    0.002283
    66  C    0.001018
    67  Cl   0.108404
    68  Cl   0.086954
    69  Cl   0.066652
    70  Cl   0.094224
    71  Cl   0.051993
    72  Cl   0.048974
    73  Cl   0.056539
    74  Cl   0.080418
    75  Cl   0.083585
    76  Cl   0.039083
 Electronic spatial extent (au):  <R**2>=          39500.0245
 Charge=             -0.0000 electrons
 Dipole moment (field-independent basis, Debye):
    X=              4.6580    Y=             -1.0761    Z=             -3.9556  Tot=              6.2050
 Quadrupole moment (field-independent basis, Debye-Ang):
   XX=           -505.3486   YY=           -511.7357   ZZ=           -507.0578
   XY=             -6.1188   XZ=             -2.6803   YZ=             -2.9263
 Traceless Quadrupole moment (field-independent basis, Debye-Ang):
   XX=              2.6988   YY=             -3.6883   ZZ=              0.9896
   XY=             -6.1188   XZ=             -2.6803   YZ=             -2.9263
 Octapole moment (field-independent basis, Debye-Ang**2):
  XXX=           -116.7504  YYY=             34.9820  ZZZ=             31.3799  XYY=            -33.6513
  XXY=             18.2152  XXZ=             25.2342  XZZ=            -65.3770  YZZ=             17.2463
  YYZ=              9.5671  XYZ=            -17.0728
 Hexadecapole moment (field-independent basis, Debye-Ang**3):
 XXXX=         -24446.0186 YYYY=         -17143.0027 ZZZZ=         -15340.3947 XXXY=              7.5216
 XXXZ=             81.5332 YYYX=            -63.4705 YYYZ=             30.5972 ZZZX=             33.8849
 ZZZY=             58.3817 XXYY=          -6926.1960 XXZZ=          -6641.7236 YYZZ=          -5384.3660
 XXYZ=             -4.6005 YYXZ=             21.6688 ZZXY=            -12.6006
 N-N= 1.700424198799D+04 E-N=-5.077217406940D+04  KE= 7.096708800246D+03
 No NMR shielding tensors so no spin-rotation constants.
 Leave Link  601 at Sat Jul 16 16:20:14 2022, MaxMem=  1342177280 cpu:              66.9 elap:               1.7
 (Enter /home/mkliu/g16/l9999.exe)
 1\1\GINC-NODE05\FOpt\RB3LYP\6-311G(d,p)\C66Cl10\MKLIU\16-Jul-2022\0\\#
 P opt b3lyp/6-311G(d, p) empiricaldispersion=GD3\\force\\0,1\C,-1.3583
 186936,1.9496228549,-4.0482605046\C,0.2094119216,2.2355211273,-3.94546
 09228\C,0.9784313231,0.8838273975,-4.2742579779\C,-1.4624789416,0.3603
 340307,-4.1768791271\C,-0.0668209657,-0.1723940862,-4.1755330177\C,-2.
 1112851824,-0.1088136706,-2.910382349\C,-2.1990568011,2.2909164552,-2.
 6903399959\C,-2.5880831299,0.9259622189,-2.1406107539\C,-1.4713004036,
 2.9825835041,-1.5324646311\C,0.7031743835,2.5539342936,-2.5753016862\C
 ,-0.0450507395,3.1912664443,-1.5644544141\C,1.9445386908,0.7032355991,
 -3.1109069641\C,1.8726658831,1.8570823528,-2.2692262274\C,2.2992803316
 ,-0.5030885472,-2.5834575505\C,0.2138333751,-1.3716353361,-3.681504587
 7\C,1.6043564917,-1.738784426,-3.1739652156\C,-1.9086084505,-1.3847294
 822,-2.3806436161\C,-0.8650038677,-2.2655149639,-3.0807765901\C,-2.383
 1341158,-1.6583485655,-1.0889576198\C,-3.0120109494,0.6954035127,-0.82
 69202153\C,-2.9673586826,-0.6156780944,-0.3157730676\C,-2.0899445526,2
 .9307697287,-0.297269285\C,-3.2005727795,1.9202113888,0.0563048572\C,-
 1.3875180699,3.2588488119,0.9064454805\C,0.6564324408,3.4419883935,-0.
 3630617726\C,-0.0339772732,3.5785074916,0.8830691384\C,2.4585240317,1.
 882303617,-0.9779504467\C,1.9361048368,2.8435927741,-0.092588412\C,2.9
 331453898,-0.5545243116,-1.2600445455\C,3.0830259269,0.6736234664,-0.4
 779596306\C,2.9588346917,-1.7786309945,-0.5666625037\C,1.2795703516,-2
 .7417599072,-2.1073150991\C,-0.0972480403,-3.0425376828,-2.0587306895\
 C,2.0539417238,-2.8620197337,-0.9755278716\C,-2.0698342077,-3.02339256
 99,-0.4663015232\C,-0.6820549533,-3.4781186306,-0.8945700733\C,-1.9100
 045509,-2.9300064682,1.03915005\C,-3.3572826981,-0.8619867851,1.145575
 2548\C,-2.507060123,-1.9513900273,1.7760340231\C,-2.8941306827,1.59885
 83523,1.4994484523\C,-1.9145650106,2.4994684495,2.0170074536\C,-3.0081
 387799,0.340679521,2.0093397383\C,-1.0898731078,2.1238270794,3.0787987
 323\C,0.8380189254,3.1349755921,1.9511924847\C,2.0655572227,2.68458881
 72,1.3310324321\C,0.325957066,2.4444435769,3.0419538499\C,3.2866622284
 ,0.5870521436,0.9228822666\C,2.7464408404,1.5883095826,1.8293924812\C,
 3.0522034917,-1.8330471778,0.8603856507\C,3.2422501986,-0.6709198528,1
 .6015229754\C,1.5036850827,-3.4504272624,0.1995951667\C,0.1270338964,-
 3.7273086429,0.2382556249\C,-0.6309401049,-3.4406159599,1.4356652625\C
 ,2.145640506,-2.8572253402,1.3523150743\C,0.0125839604,-2.9580815563,2
 .5738057482\C,1.4353392592,-2.6502413509,2.5253123981\C,-1.8740086076,
 -1.4627202758,2.9648935698\C,-2.1792011207,-0.0599910093,3.1067063935\
 C,-1.2355872572,0.8145686012,3.6510784118\C,-0.631490614,-1.9556207899
 ,3.371923721\C,1.0536139007,1.3191345611,3.59482509\C,2.2618706591,0.9
 148148381,3.0157823375\C,2.5662788916,-0.4898341698,2.8731688276\C,1.6
 557295652,-1.4507995565,3.3133414888\C,0.0864281283,0.3196431662,3.999
 3933201\C,0.3816868266,-1.0337781126,3.8600719659\Cl,-2.025466495,2.76
 02494438,-5.4889469721\Cl,-2.4099602537,-0.2522841967,-5.6070057536\Cl
 ,-1.6306111013,-3.4023361824,-4.3092060284\Cl,-3.6886129904,3.28455985
 09,-3.0580319409\Cl,-3.3953705741,-4.2166886124,-0.9343811008\Cl,-5.15
 60464579,-1.2703350826,1.2163488171\Cl,-4.9265362359,2.5640280971,-0.0
 255142545\Cl,1.8239008442,0.8237598937,-5.8748738307\Cl,0.7835686496,3
 .6580782818,-4.9272383604\Cl,2.6355641104,-2.5221998864,-4.5020720126\
 \Version=ES64L-G16RevA.03\State=1-A\HF=-7117.6985677\RMSD=3.544e-09\RM
 SF=1.274e-05\Dipole=1.3857367,0.419627,1.965538\Quadrupole=-3.2063355,
 2.0757712,1.1305643,0.3794123,4.9878961,-1.5766519\PG=C01 [X(C66Cl10)]
 \\@


 LOGIC IS A SYSTEMATIC METHOD OF COMING TO THE
 WRONG CONCLUSION WITH CONFIDENCE.
 Job cpu time:       3 days 17 hours  4 minutes 31.2 seconds.
 Elapsed time:       0 days  1 hours 51 minutes 35.9 seconds.
 File lengths (MBytes):  RWF=   1283 Int=      0 D2E=      0 Chk=    157 Scr=      1
 Normal termination of Gaussian 16 at Sat Jul 16 16:20:16 2022.
