 Entering Gaussian System, Link 0=g16
 Input=eubutitsufabk_addon_6.gjf
 Output=eubutitsufabk_addon_6.log
 Initial command:
 /home/mkliu/g16/l1.exe "/data/scratch/Gau-206357.inp" -scrdir="/data/scratch/"
 Entering Link 1 = /home/mkliu/g16/l1.exe PID=    206358.
  
 Copyright (c) 1988,1990,1992,1993,1995,1998,2003,2009,2016,
            Gaussian, Inc.  All Rights Reserved.
  
 This is part of the Gaussian(R) 16 program.  It is based on
 the Gaussian(R) 09 system (copyright 2009, Gaussian, Inc.),
 the Gaussian(R) 03 system (copyright 2003, Gaussian, Inc.),
 the Gaussian(R) 98 system (copyright 1998, Gaussian, Inc.),
 the Gaussian(R) 94 system (copyright 1995, Gaussian, Inc.),
 the Gaussian 92(TM) system (copyright 1992, Gaussian, Inc.),
 the Gaussian 90(TM) system (copyright 1990, Gaussian, Inc.),
 the Gaussian 88(TM) system (copyright 1988, Gaussian, Inc.),
 the Gaussian 86(TM) system (copyright 1986, Carnegie Mellon
 University), and the Gaussian 82(TM) system (copyright 1983,
 Carnegie Mellon University). Gaussian is a federally registered
 trademark of Gaussian, Inc.
  
 This software contains proprietary and confidential information,
 including trade secrets, belonging to Gaussian, Inc.
  
 This software is provided under written license and may be
 used, copied, transmitted, or stored only in accord with that
 written license.
  
 The following legend is applicable only to US Government
 contracts under FAR:
  
                    RESTRICTED RIGHTS LEGEND
  
 Use, reproduction and disclosure by the US Government is
 subject to restrictions as set forth in subparagraphs (a)
 and (c) of the Commercial Computer Software - Restricted
 Rights clause in FAR 52.227-19.
  
 Gaussian, Inc.
 340 Quinnipiac St., Bldg. 40, Wallingford CT 06492
  
  
 ---------------------------------------------------------------
 Warning -- This program may not be used in any manner that
 competes with the business of Gaussian, Inc. or will provide
 assistance to any competitor of Gaussian, Inc.  The licensee
 of this program is prohibited from giving any competitor of
 Gaussian, Inc. access to this program.  By using this program,
 the user acknowledges that Gaussian, Inc. is engaged in the
 business of creating and licensing software in the field of
 computational chemistry and represents and warrants to the
 licensee that it is not a competitor of Gaussian, Inc. and that
 it will not use this program in any manner prohibited above.
 ---------------------------------------------------------------
  

 Cite this work as:
 Gaussian 16, Revision A.03,
 M. J. Frisch, G. W. Trucks, H. B. Schlegel, G. E. Scuseria, 
 M. A. Robb, J. R. Cheeseman, G. Scalmani, V. Barone, 
 G. A. Petersson, H. Nakatsuji, X. Li, M. Caricato, A. V. Marenich, 
 J. Bloino, B. G. Janesko, R. Gomperts, B. Mennucci, H. P. Hratchian, 
 J. V. Ortiz, A. F. Izmaylov, J. L. Sonnenberg, D. Williams-Young, 
 F. Ding, F. Lipparini, F. Egidi, J. Goings, B. Peng, A. Petrone, 
 T. Henderson, D. Ranasinghe, V. G. Zakrzewski, J. Gao, N. Rega, 
 G. Zheng, W. Liang, M. Hada, M. Ehara, K. Toyota, R. Fukuda, 
 J. Hasegawa, M. Ishida, T. Nakajima, Y. Honda, O. Kitao, H. Nakai, 
 T. Vreven, K. Throssell, J. A. Montgomery, Jr., J. E. Peralta, 
 F. Ogliaro, M. J. Bearpark, J. J. Heyd, E. N. Brothers, K. N. Kudin, 
 V. N. Staroverov, T. A. Keith, R. Kobayashi, J. Normand, 
 K. Raghavachari, A. P. Rendell, J. C. Burant, S. S. Iyengar, 
 J. Tomasi, M. Cossi, J. M. Millam, M. Klene, C. Adamo, R. Cammi, 
 J. W. Ochterski, R. L. Martin, K. Morokuma, O. Farkas, 
 J. B. Foresman, and D. J. Fox, Gaussian, Inc., Wallingford CT, 2016.
 
 ******************************************
 Gaussian 16:  ES64L-G16RevA.03 25-Dec-2016
                15-Jul-2022 
 ******************************************
 %mem=10GB
 %chk=eubutitsufabk_addon_6.chk
 %nprocshared=48
 Will use up to   48 processors via shared memory.
 -------------------------------------------------
 #P opt b3lyp/6-311G(d, p) empiricaldispersion=GD3
 -------------------------------------------------
 1/18=20,19=15,26=3,38=1/1,3;
 2/9=110,12=2,17=6,18=5,40=1/2;
 3/5=4,6=6,7=101,11=2,25=1,30=1,71=1,74=-5,124=31/1,2,3;
 4//1;
 5/5=2,38=5/2;
 6/7=2,8=2,9=2,10=2,28=1/1;
 7//1,2,3,16;
 1/18=20,19=15,26=3/3(2);
 2/9=110/2;
 99//99;
 2/9=110/2;
 3/5=4,6=6,7=101,11=2,25=1,30=1,71=1,74=-5,124=31/1,2,3;
 4/5=5,16=3,69=1/1;
 5/5=2,38=5/2;
 7//1,2,3,16;
 1/18=20,19=15,26=3/3(-5);
 2/9=110/2;
 6/7=2,8=2,9=2,10=2,19=2,28=1/1;
 99/9=1/99;
 Leave Link    1 at Fri Jul 15 00:22:25 2022, MaxMem=  1342177280 cpu:               2.2 elap:               0.1
 (Enter /home/mkliu/g16/l101.exe)
 -----
 force
 -----
 Symbolic Z-matrix:
 Charge =  0 Multiplicity = 1
 C                    -1.33025   1.86659  -3.91404 
 C                     0.19567   2.192    -3.97328 
 C                     0.94277   0.86919  -4.24541 
 C                    -1.49635   0.33887  -4.21714 
 C                    -0.10651  -0.16081  -4.06814 
 C                    -2.46069  -0.22368  -3.12704 
 C                    -1.88624   2.00959  -2.53847 
 C                    -2.58866   0.8965   -2.15208 
 C                    -1.40626   2.91064  -1.56129 
 C                     0.74203   2.61127  -2.64582 
 C                     0.00261   3.22359  -1.62215 
 C                     1.90552   0.68774  -3.09499 
 C                     1.85429   1.84806  -2.2729 
 C                     2.25469  -0.50929  -2.54009 
 C                     0.20632  -1.33895  -3.55303 
 C                     1.59788  -1.74731  -3.13478 
 C                    -1.97057  -1.45316  -2.40615 
 C                    -0.80805  -2.06803  -2.79902 
 C                    -2.49546  -1.74709  -1.08984 
 C                    -3.03566   0.67659  -0.83684 
 C                    -3.08487  -0.6761   -0.31105 
 C                    -2.01944   2.83839  -0.3209 
 C                    -2.88704   1.76269   0.02411 
 C                    -1.36906   3.26871   0.88689 
 C                     0.67498   3.43127  -0.40156 
 C                    -0.02657   3.56422   0.84232 
 C                     2.44242   1.85052  -0.99726 
 C                     1.91958   2.80661  -0.11664 
 C                     2.90985  -0.57641  -1.24755 
 C                     3.04304   0.64189  -0.48797 
 C                     2.90596  -1.79462  -0.55735 
 C                     1.29346  -2.78139  -2.10523 
 C                    -0.11866  -3.02569  -2.0174 
 C                     2.02651  -2.89325  -0.96885 
 C                    -1.90533  -2.81948  -0.40637 
 C                    -0.7038   -3.45399  -0.84508 
 C                    -1.9051   -2.8982    1.02549 
 C                    -3.11643  -0.79744   1.08313 
 C                    -2.50876  -1.90972   1.75742 
 C                    -2.85636   1.60485   1.44129 
 C                    -1.91638   2.53697   2.00004 
 C                    -2.98637   0.336     1.95829 
 C                    -1.09942   2.14043   3.03985 
 C                     0.83276   3.12842   1.91654 
 C                     2.038     2.65456   1.30005 
 C                     0.31031   2.44395   2.99529 
 C                     3.23458   0.55865   0.90401 
 C                     2.70794   1.55702   1.79827 
 C                     2.99609  -1.85389   0.86 
 C                     3.18037  -0.69192   1.58798 
 C                     1.46316  -3.47628   0.22516 
 C                     0.10956  -3.77195   0.28846 
 C                    -0.65372  -3.46725   1.46263 
 C                     2.10091  -2.87158   1.35575 
 C                    -0.02155  -2.94626   2.57665 
 C                     1.38551  -2.64064   2.51939 
 C                    -1.91013  -1.44171   2.97928 
 C                    -2.2063   -0.04783   3.10212 
 C                    -1.25454   0.82814   3.60656 
 C                    -0.66701  -1.92555   3.35344 
 C                     1.02325   1.31895   3.5429 
 C                     2.21744   0.90329   2.97804 
 C                     2.51183  -0.49777   2.84608 
 C                     1.60334  -1.44017   3.28395 
 C                     0.05306   0.33488   3.95185 
 C                     0.33967  -1.014     3.82429 
 Cl                   -2.31515   2.87952  -4.99858 
 Cl                    0.56985   3.47727  -5.15069 
 Cl                    1.72296   0.71908  -5.83875 
 Cl                    2.64173  -2.37501  -4.47221 
 Cl                   -2.02638   0.00227  -5.88457 
 Cl                   -4.10615  -0.59973  -3.79614 
 
 ITRead=  0  0  0  0  0  0  0  0  0  0  0  0  0  0  0  0  0  0  0  0
 ITRead=  0  0  0  0  0  0  0  0  0  0  0  0  0  0  0  0  0  0  0  0
 ITRead=  0  0  0  0  0  0  0  0  0  0  0  0  0  0  0  0  0  0  0  0
 ITRead=  0  0  0  0  0  0  0  0  0  0  0  0
 MicOpt= -1 -1 -1 -1 -1 -1 -1 -1 -1 -1 -1 -1 -1 -1 -1 -1 -1 -1 -1 -1
 MicOpt= -1 -1 -1 -1 -1 -1 -1 -1 -1 -1 -1 -1 -1 -1 -1 -1 -1 -1 -1 -1
 MicOpt= -1 -1 -1 -1 -1 -1 -1 -1 -1 -1 -1 -1 -1 -1 -1 -1 -1 -1 -1 -1
 MicOpt= -1 -1 -1 -1 -1 -1 -1 -1 -1 -1 -1 -1
 NAtoms=     72 NQM=       72 NQMF=       0 NMMI=      0 NMMIF=      0
                NMic=       0 NMicF=      0.
                    Isotopes and Nuclear Properties:
 (Nuclear quadrupole moments (NQMom) in fm**2, nuclear magnetic moments (NMagM)
  in nuclear magnetons)

  Atom         1           2           3           4           5           6           7           8           9          10
 IAtWgt=          12          12          12          12          12          12          12          12          12          12
 AtmWgt=  12.0000000  12.0000000  12.0000000  12.0000000  12.0000000  12.0000000  12.0000000  12.0000000  12.0000000  12.0000000
 NucSpn=           0           0           0           0           0           0           0           0           0           0
 AtZEff=  -0.0000000  -0.0000000  -0.0000000  -0.0000000  -0.0000000  -0.0000000  -0.0000000  -0.0000000  -0.0000000  -0.0000000
 NQMom=    0.0000000   0.0000000   0.0000000   0.0000000   0.0000000   0.0000000   0.0000000   0.0000000   0.0000000   0.0000000
 NMagM=    0.0000000   0.0000000   0.0000000   0.0000000   0.0000000   0.0000000   0.0000000   0.0000000   0.0000000   0.0000000
 AtZNuc=   6.0000000   6.0000000   6.0000000   6.0000000   6.0000000   6.0000000   6.0000000   6.0000000   6.0000000   6.0000000

  Atom        11          12          13          14          15          16          17          18          19          20
 IAtWgt=          12          12          12          12          12          12          12          12          12          12
 AtmWgt=  12.0000000  12.0000000  12.0000000  12.0000000  12.0000000  12.0000000  12.0000000  12.0000000  12.0000000  12.0000000
 NucSpn=           0           0           0           0           0           0           0           0           0           0
 AtZEff=  -0.0000000  -0.0000000  -0.0000000  -0.0000000  -0.0000000  -0.0000000  -0.0000000  -0.0000000  -0.0000000  -0.0000000
 NQMom=    0.0000000   0.0000000   0.0000000   0.0000000   0.0000000   0.0000000   0.0000000   0.0000000   0.0000000   0.0000000
 NMagM=    0.0000000   0.0000000   0.0000000   0.0000000   0.0000000   0.0000000   0.0000000   0.0000000   0.0000000   0.0000000
 AtZNuc=   6.0000000   6.0000000   6.0000000   6.0000000   6.0000000   6.0000000   6.0000000   6.0000000   6.0000000   6.0000000

  Atom        21          22          23          24          25          26          27          28          29          30
 IAtWgt=          12          12          12          12          12          12          12          12          12          12
 AtmWgt=  12.0000000  12.0000000  12.0000000  12.0000000  12.0000000  12.0000000  12.0000000  12.0000000  12.0000000  12.0000000
 NucSpn=           0           0           0           0           0           0           0           0           0           0
 AtZEff=  -0.0000000  -0.0000000  -0.0000000  -0.0000000  -0.0000000  -0.0000000  -0.0000000  -0.0000000  -0.0000000  -0.0000000
 NQMom=    0.0000000   0.0000000   0.0000000   0.0000000   0.0000000   0.0000000   0.0000000   0.0000000   0.0000000   0.0000000
 NMagM=    0.0000000   0.0000000   0.0000000   0.0000000   0.0000000   0.0000000   0.0000000   0.0000000   0.0000000   0.0000000
 AtZNuc=   6.0000000   6.0000000   6.0000000   6.0000000   6.0000000   6.0000000   6.0000000   6.0000000   6.0000000   6.0000000

  Atom        31          32          33          34          35          36          37          38          39          40
 IAtWgt=          12          12          12          12          12          12          12          12          12          12
 AtmWgt=  12.0000000  12.0000000  12.0000000  12.0000000  12.0000000  12.0000000  12.0000000  12.0000000  12.0000000  12.0000000
 NucSpn=           0           0           0           0           0           0           0           0           0           0
 AtZEff=  -0.0000000  -0.0000000  -0.0000000  -0.0000000  -0.0000000  -0.0000000  -0.0000000  -0.0000000  -0.0000000  -0.0000000
 NQMom=    0.0000000   0.0000000   0.0000000   0.0000000   0.0000000   0.0000000   0.0000000   0.0000000   0.0000000   0.0000000
 NMagM=    0.0000000   0.0000000   0.0000000   0.0000000   0.0000000   0.0000000   0.0000000   0.0000000   0.0000000   0.0000000
 AtZNuc=   6.0000000   6.0000000   6.0000000   6.0000000   6.0000000   6.0000000   6.0000000   6.0000000   6.0000000   6.0000000

  Atom        41          42          43          44          45          46          47          48          49          50
 IAtWgt=          12          12          12          12          12          12          12          12          12          12
 AtmWgt=  12.0000000  12.0000000  12.0000000  12.0000000  12.0000000  12.0000000  12.0000000  12.0000000  12.0000000  12.0000000
 NucSpn=           0           0           0           0           0           0           0           0           0           0
 AtZEff=  -0.0000000  -0.0000000  -0.0000000  -0.0000000  -0.0000000  -0.0000000  -0.0000000  -0.0000000  -0.0000000  -0.0000000
 NQMom=    0.0000000   0.0000000   0.0000000   0.0000000   0.0000000   0.0000000   0.0000000   0.0000000   0.0000000   0.0000000
 NMagM=    0.0000000   0.0000000   0.0000000   0.0000000   0.0000000   0.0000000   0.0000000   0.0000000   0.0000000   0.0000000
 AtZNuc=   6.0000000   6.0000000   6.0000000   6.0000000   6.0000000   6.0000000   6.0000000   6.0000000   6.0000000   6.0000000

  Atom        51          52          53          54          55          56          57          58          59          60
 IAtWgt=          12          12          12          12          12          12          12          12          12          12
 AtmWgt=  12.0000000  12.0000000  12.0000000  12.0000000  12.0000000  12.0000000  12.0000000  12.0000000  12.0000000  12.0000000
 NucSpn=           0           0           0           0           0           0           0           0           0           0
 AtZEff=  -0.0000000  -0.0000000  -0.0000000  -0.0000000  -0.0000000  -0.0000000  -0.0000000  -0.0000000  -0.0000000  -0.0000000
 NQMom=    0.0000000   0.0000000   0.0000000   0.0000000   0.0000000   0.0000000   0.0000000   0.0000000   0.0000000   0.0000000
 NMagM=    0.0000000   0.0000000   0.0000000   0.0000000   0.0000000   0.0000000   0.0000000   0.0000000   0.0000000   0.0000000
 AtZNuc=   6.0000000   6.0000000   6.0000000   6.0000000   6.0000000   6.0000000   6.0000000   6.0000000   6.0000000   6.0000000

  Atom        61          62          63          64          65          66          67          68          69          70
 IAtWgt=          12          12          12          12          12          12          35          35          35          35
 AtmWgt=  12.0000000  12.0000000  12.0000000  12.0000000  12.0000000  12.0000000  34.9688527  34.9688527  34.9688527  34.9688527
 NucSpn=           0           0           0           0           0           0           3           3           3           3
 AtZEff=  -0.0000000  -0.0000000  -0.0000000  -0.0000000  -0.0000000  -0.0000000  -0.0000000  -0.0000000  -0.0000000  -0.0000000
 NQMom=    0.0000000   0.0000000   0.0000000   0.0000000   0.0000000   0.0000000  -8.1650000  -8.1650000  -8.1650000  -8.1650000
 NMagM=    0.0000000   0.0000000   0.0000000   0.0000000   0.0000000   0.0000000   0.8218740   0.8218740   0.8218740   0.8218740
 AtZNuc=   6.0000000   6.0000000   6.0000000   6.0000000   6.0000000   6.0000000  17.0000000  17.0000000  17.0000000  17.0000000

  Atom        71          72
 IAtWgt=          35          35
 AtmWgt=  34.9688527  34.9688527
 NucSpn=           3           3
 AtZEff=  -0.0000000  -0.0000000
 NQMom=   -8.1650000  -8.1650000
 NMagM=    0.8218740   0.8218740
 AtZNuc=  17.0000000  17.0000000
 Leave Link  101 at Fri Jul 15 00:22:26 2022, MaxMem=  1342177280 cpu:              13.5 elap:               0.3
 (Enter /home/mkliu/g16/l103.exe)

 GradGradGradGradGradGradGradGradGradGradGradGradGradGradGradGradGradGrad
 Berny optimization.
 Initialization pass.
                           ----------------------------
                           !    Initial Parameters    !
                           ! (Angstroms and Degrees)  !
 --------------------------                            --------------------------
 ! Name  Definition              Value          Derivative Info.                !
 --------------------------------------------------------------------------------
 ! R1    R(1,2)                  1.5614         estimate D2E/DX2                !
 ! R2    R(1,4)                  1.5663         estimate D2E/DX2                !
 ! R3    R(1,7)                  1.4906         estimate D2E/DX2                !
 ! R4    R(1,67)                 1.7811         estimate D2E/DX2                !
 ! R5    R(2,3)                  1.5434         estimate D2E/DX2                !
 ! R6    R(2,10)                 1.4955         estimate D2E/DX2                !
 ! R7    R(2,68)                 1.7828         estimate D2E/DX2                !
 ! R8    R(3,5)                  1.481          estimate D2E/DX2                !
 ! R9    R(3,12)                 1.511          estimate D2E/DX2                !
 ! R10   R(3,69)                 1.7804         estimate D2E/DX2                !
 ! R11   R(4,5)                  1.4844         estimate D2E/DX2                !
 ! R12   R(4,6)                  1.5604         estimate D2E/DX2                !
 ! R13   R(4,71)                 1.7817         estimate D2E/DX2                !
 ! R14   R(5,15)                 1.3233         estimate D2E/DX2                !
 ! R15   R(6,8)                  1.4905         estimate D2E/DX2                !
 ! R16   R(6,17)                 1.5072         estimate D2E/DX2                !
 ! R17   R(6,72)                 1.8157         estimate D2E/DX2                !
 ! R18   R(7,8)                  1.3717         estimate D2E/DX2                !
 ! R19   R(7,9)                  1.4132         estimate D2E/DX2                !
 ! R20   R(8,20)                 1.4064         estimate D2E/DX2                !
 ! R21   R(9,11)                 1.4445         estimate D2E/DX2                !
 ! R22   R(9,22)                 1.3856         estimate D2E/DX2                !
 ! R23   R(10,11)                1.4034         estimate D2E/DX2                !
 ! R24   R(10,13)                1.3995         estimate D2E/DX2                !
 ! R25   R(11,25)                1.4089         estimate D2E/DX2                !
 ! R26   R(12,13)                1.423          estimate D2E/DX2                !
 ! R27   R(12,14)                1.3648         estimate D2E/DX2                !
 ! R28   R(13,27)                1.4047         estimate D2E/DX2                !
 ! R29   R(14,16)                1.5224         estimate D2E/DX2                !
 ! R30   R(14,29)                1.4506         estimate D2E/DX2                !
 ! R31   R(15,16)                1.5093         estimate D2E/DX2                !
 ! R32   R(15,18)                1.4591         estimate D2E/DX2                !
 ! R33   R(16,32)                1.4906         estimate D2E/DX2                !
 ! R34   R(16,70)                1.809          estimate D2E/DX2                !
 ! R35   R(17,18)                1.3725         estimate D2E/DX2                !
 ! R36   R(17,19)                1.4473         estimate D2E/DX2                !
 ! R37   R(18,33)                1.4154         estimate D2E/DX2                !
 ! R38   R(19,21)                1.4495         estimate D2E/DX2                !
 ! R39   R(19,35)                1.4019         estimate D2E/DX2                !
 ! R40   R(20,21)                1.4521         estimate D2E/DX2                !
 ! R41   R(20,23)                1.3939         estimate D2E/DX2                !
 ! R42   R(21,38)                1.3998         estimate D2E/DX2                !
 ! R43   R(22,23)                1.4244         estimate D2E/DX2                !
 ! R44   R(22,24)                1.4377         estimate D2E/DX2                !
 ! R45   R(23,40)                1.4263         estimate D2E/DX2                !
 ! R46   R(24,26)                1.3754         estimate D2E/DX2                !
 ! R47   R(24,41)                1.4402         estimate D2E/DX2                !
 ! R48   R(25,26)                1.4342         estimate D2E/DX2                !
 ! R49   R(25,28)                1.4214         estimate D2E/DX2                !
 ! R50   R(26,44)                1.443          estimate D2E/DX2                !
 ! R51   R(27,28)                1.4011         estimate D2E/DX2                !
 ! R52   R(27,30)                1.4425         estimate D2E/DX2                !
 ! R53   R(28,45)                1.4297         estimate D2E/DX2                !
 ! R54   R(29,30)                1.4419         estimate D2E/DX2                !
 ! R55   R(29,31)                1.4001         estimate D2E/DX2                !
 ! R56   R(30,47)                1.4076         estimate D2E/DX2                !
 ! R57   R(31,34)                1.4662         estimate D2E/DX2                !
 ! R58   R(31,49)                1.4214         estimate D2E/DX2                !
 ! R59   R(32,33)                1.4358         estimate D2E/DX2                !
 ! R60   R(32,34)                1.3569         estimate D2E/DX2                !
 ! R61   R(33,36)                1.3785         estimate D2E/DX2                !
 ! R62   R(34,51)                1.4432         estimate D2E/DX2                !
 ! R63   R(35,36)                1.4278         estimate D2E/DX2                !
 ! R64   R(35,37)                1.434          estimate D2E/DX2                !
 ! R65   R(36,52)                1.4309         estimate D2E/DX2                !
 ! R66   R(37,39)                1.3701         estimate D2E/DX2                !
 ! R67   R(37,53)                1.4425         estimate D2E/DX2                !
 ! R68   R(38,39)                1.4357         estimate D2E/DX2                !
 ! R69   R(38,42)                1.4379         estimate D2E/DX2                !
 ! R70   R(39,57)                1.4389         estimate D2E/DX2                !
 ! R71   R(40,41)                1.4369         estimate D2E/DX2                !
 ! R72   R(40,42)                1.3763         estimate D2E/DX2                !
 ! R73   R(41,43)                1.3805         estimate D2E/DX2                !
 ! R74   R(42,58)                1.4367         estimate D2E/DX2                !
 ! R75   R(43,46)                1.4427         estimate D2E/DX2                !
 ! R76   R(43,59)                1.4378         estimate D2E/DX2                !
 ! R77   R(44,45)                1.4343         estimate D2E/DX2                !
 ! R78   R(44,46)                1.3803         estimate D2E/DX2                !
 ! R79   R(45,48)                1.379          estimate D2E/DX2                !
 ! R80   R(46,61)                1.4401         estimate D2E/DX2                !
 ! R81   R(47,48)                1.4401         estimate D2E/DX2                !
 ! R82   R(47,50)                1.4264         estimate D2E/DX2                !
 ! R83   R(48,62)                1.4352         estimate D2E/DX2                !
 ! R84   R(49,50)                1.3835         estimate D2E/DX2                !
 ! R85   R(49,54)                1.4432         estimate D2E/DX2                !
 ! R86   R(50,63)                1.4379         estimate D2E/DX2                !
 ! R87   R(51,52)                1.387          estimate D2E/DX2                !
 ! R88   R(51,54)                1.432          estimate D2E/DX2                !
 ! R89   R(52,53)                1.4332         estimate D2E/DX2                !
 ! R90   R(53,55)                1.3828         estimate D2E/DX2                !
 ! R91   R(54,56)                1.3853         estimate D2E/DX2                !
 ! R92   R(55,56)                1.441          estimate D2E/DX2                !
 ! R93   R(55,60)                1.4359         estimate D2E/DX2                !
 ! R94   R(56,64)                1.4398         estimate D2E/DX2                !
 ! R95   R(57,58)                1.4303         estimate D2E/DX2                !
 ! R96   R(57,60)                1.3854         estimate D2E/DX2                !
 ! R97   R(58,59)                1.3884         estimate D2E/DX2                !
 ! R98   R(59,65)                1.4396         estimate D2E/DX2                !
 ! R99   R(60,66)                1.4374         estimate D2E/DX2                !
 ! R100  R(61,62)                1.3849         estimate D2E/DX2                !
 ! R101  R(61,65)                1.4411         estimate D2E/DX2                !
 ! R102  R(62,63)                1.4377         estimate D2E/DX2                !
 ! R103  R(63,64)                1.3803         estimate D2E/DX2                !
 ! R104  R(64,66)                1.4389         estimate D2E/DX2                !
 ! R105  R(65,66)                1.3849         estimate D2E/DX2                !
 ! A1    A(2,1,4)              107.4319         estimate D2E/DX2                !
 ! A2    A(2,1,7)              112.3065         estimate D2E/DX2                !
 ! A3    A(2,1,67)             113.5029         estimate D2E/DX2                !
 ! A4    A(4,1,7)              103.4501         estimate D2E/DX2                !
 ! A5    A(4,1,67)             112.2238         estimate D2E/DX2                !
 ! A6    A(7,1,67)             107.5247         estimate D2E/DX2                !
 ! A7    A(1,2,3)              107.5263         estimate D2E/DX2                !
 ! A8    A(1,2,10)             112.4456         estimate D2E/DX2                !
 ! A9    A(1,2,68)             112.3606         estimate D2E/DX2                !
 ! A10   A(3,2,10)             102.7064         estimate D2E/DX2                !
 ! A11   A(3,2,68)             113.5694         estimate D2E/DX2                !
 ! A12   A(10,2,68)            107.9046         estimate D2E/DX2                !
 ! A13   A(2,3,5)              103.416          estimate D2E/DX2                !
 ! A14   A(2,3,12)             106.087          estimate D2E/DX2                !
 ! A15   A(2,3,69)             116.2425         estimate D2E/DX2                !
 ! A16   A(5,3,12)             106.0676         estimate D2E/DX2                !
 ! A17   A(5,3,69)             111.0354         estimate D2E/DX2                !
 ! A18   A(12,3,69)            113.08           estimate D2E/DX2                !
 ! A19   A(1,4,5)              102.0996         estimate D2E/DX2                !
 ! A20   A(1,4,6)              106.3788         estimate D2E/DX2                !
 ! A21   A(1,4,71)             113.3849         estimate D2E/DX2                !
 ! A22   A(5,4,6)              112.7779         estimate D2E/DX2                !
 ! A23   A(5,4,71)             107.9907         estimate D2E/DX2                !
 ! A24   A(6,4,71)             113.6934         estimate D2E/DX2                !
 ! A25   A(3,5,4)              114.6596         estimate D2E/DX2                !
 ! A26   A(3,5,15)             119.8863         estimate D2E/DX2                !
 ! A27   A(4,5,15)             124.0618         estimate D2E/DX2                !
 ! A28   A(4,6,8)              103.8323         estimate D2E/DX2                !
 ! A29   A(4,6,17)             115.2953         estimate D2E/DX2                !
 ! A30   A(4,6,72)             112.1669         estimate D2E/DX2                !
 ! A31   A(8,6,17)             109.1546         estimate D2E/DX2                !
 ! A32   A(8,6,72)             108.5958         estimate D2E/DX2                !
 ! A33   A(17,6,72)            107.5789         estimate D2E/DX2                !
 ! A34   A(1,7,8)              111.9073         estimate D2E/DX2                !
 ! A35   A(1,7,9)              124.9314         estimate D2E/DX2                !
 ! A36   A(8,7,9)              119.7701         estimate D2E/DX2                !
 ! A37   A(6,8,7)              112.4336         estimate D2E/DX2                !
 ! A38   A(6,8,20)             121.4306         estimate D2E/DX2                !
 ! A39   A(7,8,20)             123.5764         estimate D2E/DX2                !
 ! A40   A(7,9,11)             116.1211         estimate D2E/DX2                !
 ! A41   A(7,9,22)             115.8144         estimate D2E/DX2                !
 ! A42   A(11,9,22)            118.728          estimate D2E/DX2                !
 ! A43   A(2,10,11)            125.2608         estimate D2E/DX2                !
 ! A44   A(2,10,13)            111.9616         estimate D2E/DX2                !
 ! A45   A(11,10,13)           117.5353         estimate D2E/DX2                !
 ! A46   A(9,11,10)            116.7492         estimate D2E/DX2                !
 ! A47   A(9,11,25)            117.4443         estimate D2E/DX2                !
 ! A48   A(10,11,25)           116.4104         estimate D2E/DX2                !
 ! A49   A(3,12,13)            108.6023         estimate D2E/DX2                !
 ! A50   A(3,12,14)            125.3007         estimate D2E/DX2                !
 ! A51   A(13,12,14)           119.3076         estimate D2E/DX2                !
 ! A52   A(10,13,12)           108.6235         estimate D2E/DX2                !
 ! A53   A(10,13,27)           125.014          estimate D2E/DX2                !
 ! A54   A(12,13,27)           120.7313         estimate D2E/DX2                !
 ! A55   A(12,14,16)           116.361          estimate D2E/DX2                !
 ! A56   A(12,14,29)           121.2241         estimate D2E/DX2                !
 ! A57   A(16,14,29)           120.3494         estimate D2E/DX2                !
 ! A58   A(5,15,16)            124.5191         estimate D2E/DX2                !
 ! A59   A(5,15,18)            118.7933         estimate D2E/DX2                !
 ! A60   A(16,15,18)           111.2575         estimate D2E/DX2                !
 ! A61   A(14,16,15)           106.6179         estimate D2E/DX2                !
 ! A62   A(14,16,32)           112.4845         estimate D2E/DX2                !
 ! A63   A(14,16,70)           108.7856         estimate D2E/DX2                !
 ! A64   A(15,16,32)           100.9989         estimate D2E/DX2                !
 ! A65   A(15,16,70)           114.899          estimate D2E/DX2                !
 ! A66   A(32,16,70)           112.8165         estimate D2E/DX2                !
 ! A67   A(6,17,18)            120.2628         estimate D2E/DX2                !
 ! A68   A(6,17,19)            118.8663         estimate D2E/DX2                !
 ! A69   A(18,17,19)           118.4596         estimate D2E/DX2                !
 ! A70   A(15,18,17)           120.8568         estimate D2E/DX2                !
 ! A71   A(15,18,33)           106.5491         estimate D2E/DX2                !
 ! A72   A(17,18,33)           123.8887         estimate D2E/DX2                !
 ! A73   A(17,19,21)           119.0844         estimate D2E/DX2                !
 ! A74   A(17,19,35)           116.4937         estimate D2E/DX2                !
 ! A75   A(21,19,35)           118.3221         estimate D2E/DX2                !
 ! A76   A(8,20,21)            119.6721         estimate D2E/DX2                !
 ! A77   A(8,20,23)            114.9537         estimate D2E/DX2                !
 ! A78   A(21,20,23)           120.3847         estimate D2E/DX2                !
 ! A79   A(19,21,20)           118.6833         estimate D2E/DX2                !
 ! A80   A(19,21,38)           118.7023         estimate D2E/DX2                !
 ! A81   A(20,21,38)           116.2405         estimate D2E/DX2                !
 ! A82   A(9,22,23)            121.7207         estimate D2E/DX2                !
 ! A83   A(9,22,24)            122.4301         estimate D2E/DX2                !
 ! A84   A(23,22,24)           107.3438         estimate D2E/DX2                !
 ! A85   A(20,23,22)           120.2503         estimate D2E/DX2                !
 ! A86   A(20,23,40)           121.9906         estimate D2E/DX2                !
 ! A87   A(22,23,40)           108.1285         estimate D2E/DX2                !
 ! A88   A(22,24,26)           118.5976         estimate D2E/DX2                !
 ! A89   A(22,24,41)           108.9857         estimate D2E/DX2                !
 ! A90   A(26,24,41)           120.3426         estimate D2E/DX2                !
 ! A91   A(11,25,26)           122.1122         estimate D2E/DX2                !
 ! A92   A(11,25,28)           121.7844         estimate D2E/DX2                !
 ! A93   A(26,25,28)           107.1691         estimate D2E/DX2                !
 ! A94   A(24,26,25)           119.0544         estimate D2E/DX2                !
 ! A95   A(24,26,44)           119.4894         estimate D2E/DX2                !
 ! A96   A(25,26,44)           109.0466         estimate D2E/DX2                !
 ! A97   A(13,27,28)           114.5661         estimate D2E/DX2                !
 ! A98   A(13,27,30)           119.5697         estimate D2E/DX2                !
 ! A99   A(28,27,30)           120.3459         estimate D2E/DX2                !
 ! A100  A(25,28,27)           120.0442         estimate D2E/DX2                !
 ! A101  A(25,28,45)           108.5345         estimate D2E/DX2                !
 ! A102  A(27,28,45)           121.2868         estimate D2E/DX2                !
 ! A103  A(14,29,30)           118.1653         estimate D2E/DX2                !
 ! A104  A(14,29,31)           118.569          estimate D2E/DX2                !
 ! A105  A(30,29,31)           118.4064         estimate D2E/DX2                !
 ! A106  A(27,30,29)           118.9133         estimate D2E/DX2                !
 ! A107  A(27,30,47)           117.0876         estimate D2E/DX2                !
 ! A108  A(29,30,47)           118.9196         estimate D2E/DX2                !
 ! A109  A(29,31,34)           121.0143         estimate D2E/DX2                !
 ! A110  A(29,31,49)           121.8452         estimate D2E/DX2                !
 ! A111  A(34,31,49)           106.6569         estimate D2E/DX2                !
 ! A112  A(16,32,33)           111.1706         estimate D2E/DX2                !
 ! A113  A(16,32,34)           121.6874         estimate D2E/DX2                !
 ! A114  A(33,32,34)           117.78           estimate D2E/DX2                !
 ! A115  A(18,33,32)           109.2774         estimate D2E/DX2                !
 ! A116  A(18,33,36)           118.2372         estimate D2E/DX2                !
 ! A117  A(32,33,36)           121.4917         estimate D2E/DX2                !
 ! A118  A(31,34,32)           119.8222         estimate D2E/DX2                !
 ! A119  A(31,34,51)           107.7361         estimate D2E/DX2                !
 ! A120  A(32,34,51)           121.0158         estimate D2E/DX2                !
 ! A121  A(19,35,36)           122.9805         estimate D2E/DX2                !
 ! A122  A(19,35,37)           121.9279         estimate D2E/DX2                !
 ! A123  A(36,35,37)           106.3951         estimate D2E/DX2                !
 ! A124  A(33,36,35)           118.7135         estimate D2E/DX2                !
 ! A125  A(33,36,52)           120.0969         estimate D2E/DX2                !
 ! A126  A(35,36,52)           109.4915         estimate D2E/DX2                !
 ! A127  A(35,37,39)           119.5859         estimate D2E/DX2                !
 ! A128  A(35,37,53)           108.9281         estimate D2E/DX2                !
 ! A129  A(39,37,53)           120.3262         estimate D2E/DX2                !
 ! A130  A(21,38,39)           121.6951         estimate D2E/DX2                !
 ! A131  A(21,38,42)           122.4004         estimate D2E/DX2                !
 ! A132  A(39,38,42)           106.6526         estimate D2E/DX2                !
 ! A133  A(37,39,38)           119.6393         estimate D2E/DX2                !
 ! A134  A(37,39,57)           120.3316         estimate D2E/DX2                !
 ! A135  A(38,39,57)           108.8403         estimate D2E/DX2                !
 ! A136  A(23,40,41)           109.1876         estimate D2E/DX2                !
 ! A137  A(23,40,42)           118.2457         estimate D2E/DX2                !
 ! A138  A(41,40,42)           120.9167         estimate D2E/DX2                !
 ! A139  A(24,41,40)           106.1203         estimate D2E/DX2                !
 ! A140  A(24,41,43)           120.2128         estimate D2E/DX2                !
 ! A141  A(40,41,43)           119.5827         estimate D2E/DX2                !
 ! A142  A(38,42,40)           120.4402         estimate D2E/DX2                !
 ! A143  A(38,42,58)           108.8495         estimate D2E/DX2                !
 ! A144  A(40,42,58)           119.6091         estimate D2E/DX2                !
 ! A145  A(41,43,46)           119.6399         estimate D2E/DX2                !
 ! A146  A(41,43,59)           119.6823         estimate D2E/DX2                !
 ! A147  A(46,43,59)           108.0352         estimate D2E/DX2                !
 ! A148  A(26,44,45)           106.2727         estimate D2E/DX2                !
 ! A149  A(26,44,46)           120.4087         estimate D2E/DX2                !
 ! A150  A(45,44,46)           119.3506         estimate D2E/DX2                !
 ! A151  A(28,45,44)           108.7332         estimate D2E/DX2                !
 ! A152  A(28,45,48)           118.873          estimate D2E/DX2                !
 ! A153  A(44,45,48)           121.0571         estimate D2E/DX2                !
 ! A154  A(43,46,44)           119.8888         estimate D2E/DX2                !
 ! A155  A(43,46,61)           107.9178         estimate D2E/DX2                !
 ! A156  A(44,46,61)           119.8159         estimate D2E/DX2                !
 ! A157  A(30,47,48)           121.5573         estimate D2E/DX2                !
 ! A158  A(30,47,50)           121.3904         estimate D2E/DX2                !
 ! A159  A(48,47,50)           107.2268         estimate D2E/DX2                !
 ! A160  A(45,48,47)           120.3374         estimate D2E/DX2                !
 ! A161  A(45,48,62)           119.5694         estimate D2E/DX2                !
 ! A162  A(47,48,62)           108.6421         estimate D2E/DX2                !
 ! A163  A(31,49,50)           119.8742         estimate D2E/DX2                !
 ! A164  A(31,49,54)           109.426          estimate D2E/DX2                !
 ! A165  A(50,49,54)           119.6115         estimate D2E/DX2                !
 ! A166  A(47,50,49)           119.2804         estimate D2E/DX2                !
 ! A167  A(47,50,63)           108.5928         estimate D2E/DX2                !
 ! A168  A(49,50,63)           120.7889         estimate D2E/DX2                !
 ! A169  A(34,51,52)           120.3197         estimate D2E/DX2                !
 ! A170  A(34,51,54)           107.9842         estimate D2E/DX2                !
 ! A171  A(52,51,54)           119.2505         estimate D2E/DX2                !
 ! A172  A(36,52,51)           118.1132         estimate D2E/DX2                !
 ! A173  A(36,52,53)           107.3994         estimate D2E/DX2                !
 ! A174  A(51,52,53)           120.7851         estimate D2E/DX2                !
 ! A175  A(37,53,52)           107.3131         estimate D2E/DX2                !
 ! A176  A(37,53,55)           119.4791         estimate D2E/DX2                !
 ! A177  A(52,53,55)           119.7783         estimate D2E/DX2                !
 ! A178  A(49,54,51)           107.6265         estimate D2E/DX2                !
 ! A179  A(49,54,56)           119.426          estimate D2E/DX2                !
 ! A180  A(51,54,56)           120.2373         estimate D2E/DX2                !
 ! A181  A(53,55,56)           119.6235         estimate D2E/DX2                !
 ! A182  A(53,55,60)           119.8774         estimate D2E/DX2                !
 ! A183  A(56,55,60)           108.0382         estimate D2E/DX2                !
 ! A184  A(54,56,55)           120.1493         estimate D2E/DX2                !
 ! A185  A(54,56,64)           120.4569         estimate D2E/DX2                !
 ! A186  A(55,56,64)           107.6648         estimate D2E/DX2                !
 ! A187  A(39,57,58)           107.6841         estimate D2E/DX2                !
 ! A188  A(39,57,60)           119.2778         estimate D2E/DX2                !
 ! A189  A(58,57,60)           120.1956         estimate D2E/DX2                !
 ! A190  A(42,58,57)           107.7229         estimate D2E/DX2                !
 ! A191  A(42,58,59)           119.5317         estimate D2E/DX2                !
 ! A192  A(57,58,59)           120.2728         estimate D2E/DX2                !
 ! A193  A(43,59,58)           120.4368         estimate D2E/DX2                !
 ! A194  A(43,59,65)           108.0157         estimate D2E/DX2                !
 ! A195  A(58,59,65)           119.5798         estimate D2E/DX2                !
 ! A196  A(55,60,57)           120.3633         estimate D2E/DX2                !
 ! A197  A(55,60,66)           108.2516         estimate D2E/DX2                !
 ! A198  A(57,60,66)           119.6968         estimate D2E/DX2                !
 ! A199  A(46,61,62)           120.4155         estimate D2E/DX2                !
 ! A200  A(46,61,65)           107.9427         estimate D2E/DX2                !
 ! A201  A(62,61,65)           119.4262         estimate D2E/DX2                !
 ! A202  A(48,62,61)           119.556          estimate D2E/DX2                !
 ! A203  A(48,62,63)           107.3646         estimate D2E/DX2                !
 ! A204  A(61,62,63)           120.4303         estimate D2E/DX2                !
 ! A205  A(50,63,62)           107.8844         estimate D2E/DX2                !
 ! A206  A(50,63,64)           119.4333         estimate D2E/DX2                !
 ! A207  A(62,63,64)           120.0958         estimate D2E/DX2                !
 ! A208  A(56,64,63)           120.0243         estimate D2E/DX2                !
 ! A209  A(56,64,66)           108.2694         estimate D2E/DX2                !
 ! A210  A(63,64,66)           119.666          estimate D2E/DX2                !
 ! A211  A(59,65,61)           108.0267         estimate D2E/DX2                !
 ! A212  A(59,65,66)           119.9757         estimate D2E/DX2                !
 ! A213  A(61,65,66)           119.9751         estimate D2E/DX2                !
 ! A214  A(60,66,64)           107.7119         estimate D2E/DX2                !
 ! A215  A(60,66,65)           120.1933         estimate D2E/DX2                !
 ! A216  A(64,66,65)           120.3195         estimate D2E/DX2                !
 ! D1    D(4,1,2,3)             -2.4441         estimate D2E/DX2                !
 ! D2    D(4,1,2,10)          -114.7796         estimate D2E/DX2                !
 ! D3    D(4,1,2,68)           123.241          estimate D2E/DX2                !
 ! D4    D(7,1,2,3)            110.6558         estimate D2E/DX2                !
 ! D5    D(7,1,2,10)            -1.6797         estimate D2E/DX2                !
 ! D6    D(7,1,2,68)          -123.6591         estimate D2E/DX2                !
 ! D7    D(67,1,2,3)          -127.1136         estimate D2E/DX2                !
 ! D8    D(67,1,2,10)          120.5509         estimate D2E/DX2                !
 ! D9    D(67,1,2,68)           -1.4285         estimate D2E/DX2                !
 ! D10   D(2,1,4,5)             14.3291         estimate D2E/DX2                !
 ! D11   D(2,1,4,6)            132.7348         estimate D2E/DX2                !
 ! D12   D(2,1,4,71)          -101.5739         estimate D2E/DX2                !
 ! D13   D(7,1,4,5)           -104.6274         estimate D2E/DX2                !
 ! D14   D(7,1,4,6)             13.7782         estimate D2E/DX2                !
 ! D15   D(7,1,4,71)           139.4695         estimate D2E/DX2                !
 ! D16   D(67,1,4,5)           139.7673         estimate D2E/DX2                !
 ! D17   D(67,1,4,6)          -101.827          estimate D2E/DX2                !
 ! D18   D(67,1,4,71)           23.8643         estimate D2E/DX2                !
 ! D19   D(2,1,7,8)           -128.8667         estimate D2E/DX2                !
 ! D20   D(2,1,7,9)             30.1429         estimate D2E/DX2                !
 ! D21   D(4,1,7,8)            -13.3323         estimate D2E/DX2                !
 ! D22   D(4,1,7,9)            145.6773         estimate D2E/DX2                !
 ! D23   D(67,1,7,8)           105.5714         estimate D2E/DX2                !
 ! D24   D(67,1,7,9)           -95.419          estimate D2E/DX2                !
 ! D25   D(1,2,3,5)            -10.5817         estimate D2E/DX2                !
 ! D26   D(1,2,3,12)          -121.9844         estimate D2E/DX2                !
 ! D27   D(1,2,3,69)           111.3569         estimate D2E/DX2                !
 ! D28   D(10,2,3,5)           108.2117         estimate D2E/DX2                !
 ! D29   D(10,2,3,12)           -3.1911         estimate D2E/DX2                !
 ! D30   D(10,2,3,69)         -129.8498         estimate D2E/DX2                !
 ! D31   D(68,2,3,5)          -135.5439         estimate D2E/DX2                !
 ! D32   D(68,2,3,12)          113.0533         estimate D2E/DX2                !
 ! D33   D(68,2,3,69)          -13.6054         estimate D2E/DX2                !
 ! D34   D(1,2,10,11)          -27.0581         estimate D2E/DX2                !
 ! D35   D(1,2,10,13)          126.5232         estimate D2E/DX2                !
 ! D36   D(3,2,10,11)         -142.345          estimate D2E/DX2                !
 ! D37   D(3,2,10,13)           11.2362         estimate D2E/DX2                !
 ! D38   D(68,2,10,11)          97.416          estimate D2E/DX2                !
 ! D39   D(68,2,10,13)        -109.0028         estimate D2E/DX2                !
 ! D40   D(2,3,5,4)             21.7906         estimate D2E/DX2                !
 ! D41   D(2,3,5,15)          -145.2845         estimate D2E/DX2                !
 ! D42   D(12,3,5,4)           133.2076         estimate D2E/DX2                !
 ! D43   D(12,3,5,15)          -33.8674         estimate D2E/DX2                !
 ! D44   D(69,3,5,4)          -103.5731         estimate D2E/DX2                !
 ! D45   D(69,3,5,15)           89.3518         estimate D2E/DX2                !
 ! D46   D(2,3,12,13)           -5.4167         estimate D2E/DX2                !
 ! D47   D(2,3,12,14)          145.1771         estimate D2E/DX2                !
 ! D48   D(5,3,12,13)         -114.95           estimate D2E/DX2                !
 ! D49   D(5,3,12,14)           35.6438         estimate D2E/DX2                !
 ! D50   D(69,3,12,13)         123.1277         estimate D2E/DX2                !
 ! D51   D(69,3,12,14)         -86.2785         estimate D2E/DX2                !
 ! D52   D(1,4,5,3)            -23.0339         estimate D2E/DX2                !
 ! D53   D(1,4,5,15)           143.428          estimate D2E/DX2                !
 ! D54   D(6,4,5,3)           -136.7875         estimate D2E/DX2                !
 ! D55   D(6,4,5,15)            29.6744         estimate D2E/DX2                !
 ! D56   D(71,4,5,3)            96.7286         estimate D2E/DX2                !
 ! D57   D(71,4,5,15)          -96.8095         estimate D2E/DX2                !
 ! D58   D(1,4,6,8)             -9.8415         estimate D2E/DX2                !
 ! D59   D(1,4,6,17)          -129.19           estimate D2E/DX2                !
 ! D60   D(1,4,6,72)           107.2195         estimate D2E/DX2                !
 ! D61   D(5,4,6,8)            101.2816         estimate D2E/DX2                !
 ! D62   D(5,4,6,17)           -18.0669         estimate D2E/DX2                !
 ! D63   D(5,4,6,72)          -141.6574         estimate D2E/DX2                !
 ! D64   D(71,4,6,8)          -135.3451         estimate D2E/DX2                !
 ! D65   D(71,4,6,17)          105.3065         estimate D2E/DX2                !
 ! D66   D(71,4,6,72)          -18.284          estimate D2E/DX2                !
 ! D67   D(3,5,15,16)           -1.0646         estimate D2E/DX2                !
 ! D68   D(3,5,15,18)          150.5917         estimate D2E/DX2                !
 ! D69   D(4,5,15,16)         -166.8606         estimate D2E/DX2                !
 ! D70   D(4,5,15,18)          -15.2044         estimate D2E/DX2                !
 ! D71   D(4,6,8,7)              1.8708         estimate D2E/DX2                !
 ! D72   D(4,6,8,20)          -160.593          estimate D2E/DX2                !
 ! D73   D(17,6,8,7)           125.3312         estimate D2E/DX2                !
 ! D74   D(17,6,8,20)          -37.1326         estimate D2E/DX2                !
 ! D75   D(72,6,8,7)          -117.6554         estimate D2E/DX2                !
 ! D76   D(72,6,8,20)           79.8808         estimate D2E/DX2                !
 ! D77   D(4,6,17,18)           -5.5427         estimate D2E/DX2                !
 ! D78   D(4,6,17,19)          156.5691         estimate D2E/DX2                !
 ! D79   D(8,6,17,18)         -121.9079         estimate D2E/DX2                !
 ! D80   D(8,6,17,19)           40.2039         estimate D2E/DX2                !
 ! D81   D(72,6,17,18)         120.4362         estimate D2E/DX2                !
 ! D82   D(72,6,17,19)         -77.4521         estimate D2E/DX2                !
 ! D83   D(1,7,8,6)              7.5498         estimate D2E/DX2                !
 ! D84   D(1,7,8,20)           169.5758         estimate D2E/DX2                !
 ! D85   D(9,7,8,6)           -152.6753         estimate D2E/DX2                !
 ! D86   D(9,7,8,20)             9.3507         estimate D2E/DX2                !
 ! D87   D(1,7,9,11)           -30.5374         estimate D2E/DX2                !
 ! D88   D(1,7,9,22)          -176.8283         estimate D2E/DX2                !
 ! D89   D(8,7,9,11)           126.9508         estimate D2E/DX2                !
 ! D90   D(8,7,9,22)           -19.3401         estimate D2E/DX2                !
 ! D91   D(6,8,20,21)           14.2852         estimate D2E/DX2                !
 ! D92   D(6,8,20,23)          169.4054         estimate D2E/DX2                !
 ! D93   D(7,8,20,21)         -146.186          estimate D2E/DX2                !
 ! D94   D(7,8,20,23)            8.9342         estimate D2E/DX2                !
 ! D95   D(7,9,11,10)            0.4542         estimate D2E/DX2                !
 ! D96   D(7,9,11,25)         -144.9344         estimate D2E/DX2                !
 ! D97   D(22,9,11,10)         145.7234         estimate D2E/DX2                !
 ! D98   D(22,9,11,25)           0.3349         estimate D2E/DX2                !
 ! D99   D(7,9,22,23)           11.6892         estimate D2E/DX2                !
 ! D100  D(7,9,22,24)          155.5833         estimate D2E/DX2                !
 ! D101  D(11,9,22,23)        -133.6834         estimate D2E/DX2                !
 ! D102  D(11,9,22,24)          10.2107         estimate D2E/DX2                !
 ! D103  D(2,10,11,9)           28.7104         estimate D2E/DX2                !
 ! D104  D(2,10,11,25)         174.4589         estimate D2E/DX2                !
 ! D105  D(13,10,11,9)        -123.5565         estimate D2E/DX2                !
 ! D106  D(13,10,11,25)         22.1921         estimate D2E/DX2                !
 ! D107  D(2,10,13,12)         -15.3            estimate D2E/DX2                !
 ! D108  D(2,10,13,27)        -168.7445         estimate D2E/DX2                !
 ! D109  D(11,10,13,12)        140.5136         estimate D2E/DX2                !
 ! D110  D(11,10,13,27)        -12.931          estimate D2E/DX2                !
 ! D111  D(9,11,25,26)         -10.7346         estimate D2E/DX2                !
 ! D112  D(9,11,25,28)         132.2893         estimate D2E/DX2                !
 ! D113  D(10,11,25,26)       -156.2398         estimate D2E/DX2                !
 ! D114  D(10,11,25,28)        -13.216          estimate D2E/DX2                !
 ! D115  D(3,12,13,10)          12.5759         estimate D2E/DX2                !
 ! D116  D(3,12,13,27)         167.364          estimate D2E/DX2                !
 ! D117  D(14,12,13,10)       -140.0669         estimate D2E/DX2                !
 ! D118  D(14,12,13,27)         14.7212         estimate D2E/DX2                !
 ! D119  D(3,12,14,16)          -0.6635         estimate D2E/DX2                !
 ! D120  D(3,12,14,29)        -164.3698         estimate D2E/DX2                !
 ! D121  D(13,12,14,16)        147.084          estimate D2E/DX2                !
 ! D122  D(13,12,14,29)        -16.6223         estimate D2E/DX2                !
 ! D123  D(10,13,27,28)         -6.7075         estimate D2E/DX2                !
 ! D124  D(10,13,27,30)        147.195          estimate D2E/DX2                !
 ! D125  D(12,13,27,28)       -157.1784         estimate D2E/DX2                !
 ! D126  D(12,13,27,30)         -3.2759         estimate D2E/DX2                !
 ! D127  D(12,14,16,15)        -33.8788         estimate D2E/DX2                !
 ! D128  D(12,14,16,32)       -143.6957         estimate D2E/DX2                !
 ! D129  D(12,14,16,70)         90.5659         estimate D2E/DX2                !
 ! D130  D(29,14,16,15)        129.9791         estimate D2E/DX2                !
 ! D131  D(29,14,16,32)         20.1622         estimate D2E/DX2                !
 ! D132  D(29,14,16,70)       -105.5762         estimate D2E/DX2                !
 ! D133  D(12,14,29,30)          7.2031         estimate D2E/DX2                !
 ! D134  D(12,14,29,31)        162.1578         estimate D2E/DX2                !
 ! D135  D(16,14,29,30)       -155.8607         estimate D2E/DX2                !
 ! D136  D(16,14,29,31)         -0.906          estimate D2E/DX2                !
 ! D137  D(5,15,16,14)          36.8246         estimate D2E/DX2                !
 ! D138  D(5,15,16,32)         154.5075         estimate D2E/DX2                !
 ! D139  D(5,15,16,70)         -83.7748         estimate D2E/DX2                !
 ! D140  D(18,15,16,14)       -116.6601         estimate D2E/DX2                !
 ! D141  D(18,15,16,32)          1.0229         estimate D2E/DX2                !
 ! D142  D(18,15,16,70)        122.7406         estimate D2E/DX2                !
 ! D143  D(5,15,18,17)         -12.4346         estimate D2E/DX2                !
 ! D144  D(5,15,18,33)        -161.2079         estimate D2E/DX2                !
 ! D145  D(16,15,18,17)        142.7478         estimate D2E/DX2                !
 ! D146  D(16,15,18,33)         -6.0255         estimate D2E/DX2                !
 ! D147  D(14,16,32,33)        117.7113         estimate D2E/DX2                !
 ! D148  D(14,16,32,34)        -28.024          estimate D2E/DX2                !
 ! D149  D(15,16,32,33)          4.3984         estimate D2E/DX2                !
 ! D150  D(15,16,32,34)       -141.337          estimate D2E/DX2                !
 ! D151  D(70,16,32,33)       -118.7683         estimate D2E/DX2                !
 ! D152  D(70,16,32,34)         95.4964         estimate D2E/DX2                !
 ! D153  D(6,17,18,15)          22.0588         estimate D2E/DX2                !
 ! D154  D(6,17,18,33)         165.2857         estimate D2E/DX2                !
 ! D155  D(19,17,18,15)       -140.1245         estimate D2E/DX2                !
 ! D156  D(19,17,18,33)          3.1024         estimate D2E/DX2                !
 ! D157  D(6,17,19,21)         -21.3769         estimate D2E/DX2                !
 ! D158  D(6,17,19,35)        -173.4857         estimate D2E/DX2                !
 ! D159  D(18,17,19,21)        141.0591         estimate D2E/DX2                !
 ! D160  D(18,17,19,35)        -11.0497         estimate D2E/DX2                !
 ! D161  D(15,18,33,32)          8.7077         estimate D2E/DX2                !
 ! D162  D(15,18,33,36)        153.3925         estimate D2E/DX2                !
 ! D163  D(17,18,33,32)       -138.8724         estimate D2E/DX2                !
 ! D164  D(17,18,33,36)          5.8123         estimate D2E/DX2                !
 ! D165  D(17,19,21,20)         -4.6788         estimate D2E/DX2                !
 ! D166  D(17,19,21,38)       -155.623          estimate D2E/DX2                !
 ! D167  D(35,19,21,20)        146.9227         estimate D2E/DX2                !
 ! D168  D(35,19,21,38)         -4.0215         estimate D2E/DX2                !
 ! D169  D(17,19,35,36)         10.8959         estimate D2E/DX2                !
 ! D170  D(17,19,35,37)        154.1043         estimate D2E/DX2                !
 ! D171  D(21,19,35,36)       -141.4327         estimate D2E/DX2                !
 ! D172  D(21,19,35,37)          1.7756         estimate D2E/DX2                !
 ! D173  D(8,20,21,19)           8.5532         estimate D2E/DX2                !
 ! D174  D(8,20,21,38)         160.1984         estimate D2E/DX2                !
 ! D175  D(23,20,21,19)       -145.204          estimate D2E/DX2                !
 ! D176  D(23,20,21,38)          6.4412         estimate D2E/DX2                !
 ! D177  D(8,20,23,22)         -16.5549         estimate D2E/DX2                !
 ! D178  D(8,20,23,40)        -158.6448         estimate D2E/DX2                !
 ! D179  D(21,20,23,22)        138.3734         estimate D2E/DX2                !
 ! D180  D(21,20,23,40)         -3.7165         estimate D2E/DX2                !
 ! D181  D(19,21,38,39)          3.9328         estimate D2E/DX2                !
 ! D182  D(19,21,38,42)        146.191          estimate D2E/DX2                !
 ! D183  D(20,21,38,39)       -147.7068         estimate D2E/DX2                !
 ! D184  D(20,21,38,42)         -5.4485         estimate D2E/DX2                !
 ! D185  D(9,22,23,20)           6.5491         estimate D2E/DX2                !
 ! D186  D(9,22,23,40)         153.2963         estimate D2E/DX2                !
 ! D187  D(24,22,23,20)       -142.0468         estimate D2E/DX2                !
 ! D188  D(24,22,23,40)          4.7004         estimate D2E/DX2                !
 ! D189  D(9,22,24,26)         -10.4093         estimate D2E/DX2                !
 ! D190  D(9,22,24,41)        -153.1614         estimate D2E/DX2                !
 ! D191  D(23,22,24,26)        137.9138         estimate D2E/DX2                !
 ! D192  D(23,22,24,41)         -4.8384         estimate D2E/DX2                !
 ! D193  D(20,23,40,41)        143.1864         estimate D2E/DX2                !
 ! D194  D(20,23,40,42)         -0.3753         estimate D2E/DX2                !
 ! D195  D(22,23,40,41)         -2.8627         estimate D2E/DX2                !
 ! D196  D(22,23,40,42)       -146.4244         estimate D2E/DX2                !
 ! D197  D(22,24,26,25)         -0.0979         estimate D2E/DX2                !
 ! D198  D(22,24,26,44)       -138.0905         estimate D2E/DX2                !
 ! D199  D(41,24,26,25)        138.3592         estimate D2E/DX2                !
 ! D200  D(41,24,26,44)          0.3666         estimate D2E/DX2                !
 ! D201  D(22,24,41,40)          3.0603         estimate D2E/DX2                !
 ! D202  D(22,24,41,43)        142.7865         estimate D2E/DX2                !
 ! D203  D(26,24,41,40)       -138.9316         estimate D2E/DX2                !
 ! D204  D(26,24,41,43)          0.7946         estimate D2E/DX2                !
 ! D205  D(11,25,26,24)         10.6896         estimate D2E/DX2                !
 ! D206  D(11,25,26,44)        152.6458         estimate D2E/DX2                !
 ! D207  D(28,25,26,24)       -136.9578         estimate D2E/DX2                !
 ! D208  D(28,25,26,44)          4.9984         estimate D2E/DX2                !
 ! D209  D(11,25,28,27)         -6.737          estimate D2E/DX2                !
 ! D210  D(11,25,28,45)       -152.4941         estimate D2E/DX2                !
 ! D211  D(26,25,28,27)        141.0396         estimate D2E/DX2                !
 ! D212  D(26,25,28,45)         -4.7175         estimate D2E/DX2                !
 ! D213  D(24,26,44,45)        138.4403         estimate D2E/DX2                !
 ! D214  D(24,26,44,46)         -1.3219         estimate D2E/DX2                !
 ! D215  D(25,26,44,45)         -3.3244         estimate D2E/DX2                !
 ! D216  D(25,26,44,46)       -143.0866         estimate D2E/DX2                !
 ! D217  D(13,27,28,25)         16.202          estimate D2E/DX2                !
 ! D218  D(13,27,28,45)        157.5708         estimate D2E/DX2                !
 ! D219  D(30,27,28,25)       -137.4803         estimate D2E/DX2                !
 ! D220  D(30,27,28,45)          3.8886         estimate D2E/DX2                !
 ! D221  D(13,27,30,29)         -6.0117         estimate D2E/DX2                !
 ! D222  D(13,27,30,47)       -160.5668         estimate D2E/DX2                !
 ! D223  D(28,27,30,29)        146.3687         estimate D2E/DX2                !
 ! D224  D(28,27,30,47)         -8.1863         estimate D2E/DX2                !
 ! D225  D(25,28,45,44)          2.7112         estimate D2E/DX2                !
 ! D226  D(25,28,45,48)        146.7174         estimate D2E/DX2                !
 ! D227  D(27,28,45,44)       -142.5395         estimate D2E/DX2                !
 ! D228  D(27,28,45,48)          1.4667         estimate D2E/DX2                !
 ! D229  D(14,29,30,27)          4.2352         estimate D2E/DX2                !
 ! D230  D(14,29,30,47)        158.3218         estimate D2E/DX2                !
 ! D231  D(31,29,30,27)       -150.7607         estimate D2E/DX2                !
 ! D232  D(31,29,30,47)          3.3259         estimate D2E/DX2                !
 ! D233  D(14,29,31,34)        -13.2347         estimate D2E/DX2                !
 ! D234  D(14,29,31,49)       -153.3321         estimate D2E/DX2                !
 ! D235  D(30,29,31,34)        141.6592         estimate D2E/DX2                !
 ! D236  D(30,29,31,49)          1.5619         estimate D2E/DX2                !
 ! D237  D(27,30,47,48)          7.4777         estimate D2E/DX2                !
 ! D238  D(27,30,47,50)        148.9124         estimate D2E/DX2                !
 ! D239  D(29,30,47,48)       -147.0756         estimate D2E/DX2                !
 ! D240  D(29,30,47,50)         -5.641          estimate D2E/DX2                !
 ! D241  D(29,31,34,32)          6.1302         estimate D2E/DX2                !
 ! D242  D(29,31,34,51)       -137.664          estimate D2E/DX2                !
 ! D243  D(49,31,34,32)        151.4641         estimate D2E/DX2                !
 ! D244  D(49,31,34,51)          7.6698         estimate D2E/DX2                !
 ! D245  D(29,31,49,50)         -4.2937         estimate D2E/DX2                !
 ! D246  D(29,31,49,54)        139.492          estimate D2E/DX2                !
 ! D247  D(34,31,49,50)       -149.2741         estimate D2E/DX2                !
 ! D248  D(34,31,49,54)         -5.4884         estimate D2E/DX2                !
 ! D249  D(16,32,33,18)         -8.5032         estimate D2E/DX2                !
 ! D250  D(16,32,33,36)       -151.8303         estimate D2E/DX2                !
 ! D251  D(34,32,33,18)        138.7112         estimate D2E/DX2                !
 ! D252  D(34,32,33,36)         -4.6159         estimate D2E/DX2                !
 ! D253  D(16,32,34,31)         15.9881         estimate D2E/DX2                !
 ! D254  D(16,32,34,51)        154.9568         estimate D2E/DX2                !
 ! D255  D(33,32,34,31)       -127.6124         estimate D2E/DX2                !
 ! D256  D(33,32,34,51)         11.3564         estimate D2E/DX2                !
 ! D257  D(18,33,36,35)         -6.1789         estimate D2E/DX2                !
 ! D258  D(18,33,36,52)       -145.4003         estimate D2E/DX2                !
 ! D259  D(32,33,36,35)        134.0359         estimate D2E/DX2                !
 ! D260  D(32,33,36,52)         -5.1855         estimate D2E/DX2                !
 ! D261  D(31,34,51,52)        134.7197         estimate D2E/DX2                !
 ! D262  D(31,34,51,54)         -6.9981         estimate D2E/DX2                !
 ! D263  D(32,34,51,52)         -8.5566         estimate D2E/DX2                !
 ! D264  D(32,34,51,54)       -150.2744         estimate D2E/DX2                !
 ! D265  D(19,35,36,33)         -2.2559         estimate D2E/DX2                !
 ! D266  D(19,35,36,52)        140.9148         estimate D2E/DX2                !
 ! D267  D(37,35,36,33)       -150.2609         estimate D2E/DX2                !
 ! D268  D(37,35,36,52)         -7.0902         estimate D2E/DX2                !
 ! D269  D(19,35,37,39)          0.7194         estimate D2E/DX2                !
 ! D270  D(19,35,37,53)       -143.2316         estimate D2E/DX2                !
 ! D271  D(36,35,37,39)        149.1392         estimate D2E/DX2                !
 ! D272  D(36,35,37,53)          5.1882         estimate D2E/DX2                !
 ! D273  D(33,36,52,51)          8.0294         estimate D2E/DX2                !
 ! D274  D(33,36,52,53)        148.882          estimate D2E/DX2                !
 ! D275  D(35,36,52,51)       -134.5511         estimate D2E/DX2                !
 ! D276  D(35,36,52,53)          6.3015         estimate D2E/DX2                !
 ! D277  D(35,37,39,38)         -0.9303         estimate D2E/DX2                !
 ! D278  D(35,37,39,57)       -140.6933         estimate D2E/DX2                !
 ! D279  D(53,37,39,38)        138.9114         estimate D2E/DX2                !
 ! D280  D(53,37,39,57)         -0.8516         estimate D2E/DX2                !
 ! D281  D(35,37,53,52)         -1.4086         estimate D2E/DX2                !
 ! D282  D(35,37,53,55)        139.287          estimate D2E/DX2                !
 ! D283  D(39,37,53,52)       -145.0472         estimate D2E/DX2                !
 ! D284  D(39,37,53,55)         -4.3516         estimate D2E/DX2                !
 ! D285  D(21,38,39,37)         -1.4468         estimate D2E/DX2                !
 ! D286  D(21,38,39,57)        142.4605         estimate D2E/DX2                !
 ! D287  D(42,38,39,37)       -148.8015         estimate D2E/DX2                !
 ! D288  D(42,38,39,57)         -4.8941         estimate D2E/DX2                !
 ! D289  D(21,38,42,40)          1.5973         estimate D2E/DX2                !
 ! D290  D(21,38,42,58)       -142.1255         estimate D2E/DX2                !
 ! D291  D(39,38,42,40)        148.6675         estimate D2E/DX2                !
 ! D292  D(39,38,42,58)          4.9447         estimate D2E/DX2                !
 ! D293  D(37,39,57,58)        146.6356         estimate D2E/DX2                !
 ! D294  D(37,39,57,60)          5.0103         estimate D2E/DX2                !
 ! D295  D(38,39,57,58)          3.0211         estimate D2E/DX2                !
 ! D296  D(38,39,57,60)       -138.6042         estimate D2E/DX2                !
 ! D297  D(23,40,41,24)         -0.1289         estimate D2E/DX2                !
 ! D298  D(23,40,41,43)       -140.1604         estimate D2E/DX2                !
 ! D299  D(42,40,41,24)        142.2896         estimate D2E/DX2                !
 ! D300  D(42,40,41,43)          2.2582         estimate D2E/DX2                !
 ! D301  D(23,40,42,38)          1.4856         estimate D2E/DX2                !
 ! D302  D(23,40,42,58)        141.39           estimate D2E/DX2                !
 ! D303  D(41,40,42,38)       -137.6807         estimate D2E/DX2                !
 ! D304  D(41,40,42,58)          2.2238         estimate D2E/DX2                !
 ! D305  D(24,41,43,46)         -1.0081         estimate D2E/DX2                !
 ! D306  D(24,41,43,59)       -138.2587         estimate D2E/DX2                !
 ! D307  D(40,41,43,46)        133.4214         estimate D2E/DX2                !
 ! D308  D(40,41,43,59)         -3.8293         estimate D2E/DX2                !
 ! D309  D(38,42,58,57)         -3.1428         estimate D2E/DX2                !
 ! D310  D(38,42,58,59)        138.9776         estimate D2E/DX2                !
 ! D311  D(40,42,58,57)       -147.2159         estimate D2E/DX2                !
 ! D312  D(40,42,58,59)         -5.0955         estimate D2E/DX2                !
 ! D313  D(41,43,46,44)          0.0572         estimate D2E/DX2                !
 ! D314  D(41,43,46,61)       -141.9947         estimate D2E/DX2                !
 ! D315  D(59,43,46,44)        141.7267         estimate D2E/DX2                !
 ! D316  D(59,43,46,61)         -0.3252         estimate D2E/DX2                !
 ! D317  D(41,43,59,58)          0.9401         estimate D2E/DX2                !
 ! D318  D(41,43,59,65)        143.4202         estimate D2E/DX2                !
 ! D319  D(46,43,59,58)       -140.7103         estimate D2E/DX2                !
 ! D320  D(46,43,59,65)          1.7698         estimate D2E/DX2                !
 ! D321  D(26,44,45,28)          0.3848         estimate D2E/DX2                !
 ! D322  D(26,44,45,48)       -142.691          estimate D2E/DX2                !
 ! D323  D(46,44,45,28)        140.6568         estimate D2E/DX2                !
 ! D324  D(46,44,45,48)         -2.419          estimate D2E/DX2                !
 ! D325  D(26,44,46,43)          1.1079         estimate D2E/DX2                !
 ! D326  D(26,44,46,61)        138.7009         estimate D2E/DX2                !
 ! D327  D(45,44,46,43)       -133.543          estimate D2E/DX2                !
 ! D328  D(45,44,46,61)          4.05           estimate D2E/DX2                !
 ! D329  D(28,45,48,47)         -2.2585         estimate D2E/DX2                !
 ! D330  D(28,45,48,62)       -141.5359         estimate D2E/DX2                !
 ! D331  D(44,45,48,47)        137.2228         estimate D2E/DX2                !
 ! D332  D(44,45,48,62)         -2.0546         estimate D2E/DX2                !
 ! D333  D(43,46,61,62)        140.8438         estimate D2E/DX2                !
 ! D334  D(43,46,61,65)         -1.2418         estimate D2E/DX2                !
 ! D335  D(44,46,61,62)         -1.2407         estimate D2E/DX2                !
 ! D336  D(44,46,61,65)       -143.3263         estimate D2E/DX2                !
 ! D337  D(30,47,48,45)         -2.3722         estimate D2E/DX2                !
 ! D338  D(30,47,48,62)        140.8404         estimate D2E/DX2                !
 ! D339  D(50,47,48,45)       -148.5127         estimate D2E/DX2                !
 ! D340  D(50,47,48,62)         -5.3001         estimate D2E/DX2                !
 ! D341  D(30,47,50,49)          2.9725         estimate D2E/DX2                !
 ! D342  D(30,47,50,63)       -140.9088         estimate D2E/DX2                !
 ! D343  D(48,47,50,49)        149.1815         estimate D2E/DX2                !
 ! D344  D(48,47,50,63)          5.3002         estimate D2E/DX2                !
 ! D345  D(45,48,62,61)          4.8615         estimate D2E/DX2                !
 ! D346  D(45,48,62,63)        146.8031         estimate D2E/DX2                !
 ! D347  D(47,48,62,61)       -138.68           estimate D2E/DX2                !
 ! D348  D(47,48,62,63)          3.2616         estimate D2E/DX2                !
 ! D349  D(31,49,50,47)          1.9952         estimate D2E/DX2                !
 ! D350  D(31,49,50,63)        141.4266         estimate D2E/DX2                !
 ! D351  D(54,49,50,47)       -138.1478         estimate D2E/DX2                !
 ! D352  D(54,49,50,63)          1.2837         estimate D2E/DX2                !
 ! D353  D(31,49,54,51)          1.2326         estimate D2E/DX2                !
 ! D354  D(31,49,54,56)       -140.569          estimate D2E/DX2                !
 ! D355  D(50,49,54,51)        145.128          estimate D2E/DX2                !
 ! D356  D(50,49,54,56)          3.3264         estimate D2E/DX2                !
 ! D357  D(47,50,63,62)         -3.3309         estimate D2E/DX2                !
 ! D358  D(47,50,63,64)        138.5818         estimate D2E/DX2                !
 ! D359  D(49,50,63,62)       -146.5682         estimate D2E/DX2                !
 ! D360  D(49,50,63,64)         -4.6555         estimate D2E/DX2                !
 ! D361  D(34,51,52,36)         -1.417          estimate D2E/DX2                !
 ! D362  D(34,51,52,53)       -136.8904         estimate D2E/DX2                !
 ! D363  D(54,51,52,36)        136.0991         estimate D2E/DX2                !
 ! D364  D(54,51,52,53)          0.6258         estimate D2E/DX2                !
 ! D365  D(34,51,54,49)          3.6316         estimate D2E/DX2                !
 ! D366  D(34,51,54,56)        145.0647         estimate D2E/DX2                !
 ! D367  D(52,51,54,49)       -138.565          estimate D2E/DX2                !
 ! D368  D(52,51,54,56)          2.868          estimate D2E/DX2                !
 ! D369  D(36,52,53,37)         -2.9485         estimate D2E/DX2                !
 ! D370  D(36,52,53,55)       -143.5044         estimate D2E/DX2                !
 ! D371  D(51,52,53,37)        136.6481         estimate D2E/DX2                !
 ! D372  D(51,52,53,55)         -3.9078         estimate D2E/DX2                !
 ! D373  D(37,53,55,56)       -132.1779         estimate D2E/DX2                !
 ! D374  D(37,53,55,60)          5.3396         estimate D2E/DX2                !
 ! D375  D(52,53,55,56)          3.6557         estimate D2E/DX2                !
 ! D376  D(52,53,55,60)        141.1733         estimate D2E/DX2                !
 ! D377  D(49,54,56,55)        133.8862         estimate D2E/DX2                !
 ! D378  D(49,54,56,64)         -4.5867         estimate D2E/DX2                !
 ! D379  D(51,54,56,55)         -3.1008         estimate D2E/DX2                !
 ! D380  D(51,54,56,64)       -141.5737         estimate D2E/DX2                !
 ! D381  D(53,55,56,54)         -0.1945         estimate D2E/DX2                !
 ! D382  D(53,55,56,64)        142.9521         estimate D2E/DX2                !
 ! D383  D(60,55,56,54)       -142.1789         estimate D2E/DX2                !
 ! D384  D(60,55,56,64)          0.9676         estimate D2E/DX2                !
 ! D385  D(53,55,60,57)         -1.1781         estimate D2E/DX2                !
 ! D386  D(53,55,60,66)       -144.0965         estimate D2E/DX2                !
 ! D387  D(56,55,60,57)        140.6927         estimate D2E/DX2                !
 ! D388  D(56,55,60,66)         -2.2257         estimate D2E/DX2                !
 ! D389  D(54,56,64,63)          1.219          estimate D2E/DX2                !
 ! D390  D(54,56,64,66)        143.6651         estimate D2E/DX2                !
 ! D391  D(55,56,64,63)       -141.7925         estimate D2E/DX2                !
 ! D392  D(55,56,64,66)          0.6537         estimate D2E/DX2                !
 ! D393  D(39,57,58,42)          0.0771         estimate D2E/DX2                !
 ! D394  D(39,57,58,59)       -141.7097         estimate D2E/DX2                !
 ! D395  D(60,57,58,42)        141.2841         estimate D2E/DX2                !
 ! D396  D(60,57,58,59)         -0.5027         estimate D2E/DX2                !
 ! D397  D(39,57,60,55)         -3.9979         estimate D2E/DX2                !
 ! D398  D(39,57,60,66)        134.7634         estimate D2E/DX2                !
 ! D399  D(58,57,60,55)       -140.8158         estimate D2E/DX2                !
 ! D400  D(58,57,60,66)         -2.0545         estimate D2E/DX2                !
 ! D401  D(42,58,59,43)          3.5306         estimate D2E/DX2                !
 ! D402  D(42,58,59,65)       -134.7123         estimate D2E/DX2                !
 ! D403  D(57,58,59,43)        140.9045         estimate D2E/DX2                !
 ! D404  D(57,58,59,65)          2.6615         estimate D2E/DX2                !
 ! D405  D(43,59,65,61)         -2.539          estimate D2E/DX2                !
 ! D406  D(43,59,65,66)       -145.1237         estimate D2E/DX2                !
 ! D407  D(58,59,65,61)        140.3187         estimate D2E/DX2                !
 ! D408  D(58,59,65,66)         -2.266          estimate D2E/DX2                !
 ! D409  D(55,60,66,64)          2.6215         estimate D2E/DX2                !
 ! D410  D(55,60,66,65)        145.6513         estimate D2E/DX2                !
 ! D411  D(57,60,66,64)       -140.5866         estimate D2E/DX2                !
 ! D412  D(57,60,66,65)          2.4432         estimate D2E/DX2                !
 ! D413  D(46,61,62,48)         -3.2368         estimate D2E/DX2                !
 ! D414  D(46,61,62,63)       -140.2078         estimate D2E/DX2                !
 ! D415  D(65,61,62,48)        134.6044         estimate D2E/DX2                !
 ! D416  D(65,61,62,63)         -2.3667         estimate D2E/DX2                !
 ! D417  D(46,61,65,59)          2.3362         estimate D2E/DX2                !
 ! D418  D(46,61,65,66)        144.9212         estimate D2E/DX2                !
 ! D419  D(62,61,65,59)       -140.1893         estimate D2E/DX2                !
 ! D420  D(62,61,65,66)          2.3956         estimate D2E/DX2                !
 ! D421  D(48,62,63,50)          0.0238         estimate D2E/DX2                !
 ! D422  D(48,62,63,64)       -141.5903         estimate D2E/DX2                !
 ! D423  D(61,62,63,50)        141.5674         estimate D2E/DX2                !
 ! D424  D(61,62,63,64)         -0.0466         estimate D2E/DX2                !
 ! D425  D(50,63,64,56)          3.3885         estimate D2E/DX2                !
 ! D426  D(50,63,64,66)       -134.8455         estimate D2E/DX2                !
 ! D427  D(62,63,64,56)        140.6597         estimate D2E/DX2                !
 ! D428  D(62,63,64,66)          2.4258         estimate D2E/DX2                !
 ! D429  D(56,64,66,60)         -2.0207         estimate D2E/DX2                !
 ! D430  D(56,64,66,65)       -144.995          estimate D2E/DX2                !
 ! D431  D(63,64,66,60)        140.5831         estimate D2E/DX2                !
 ! D432  D(63,64,66,65)         -2.3913         estimate D2E/DX2                !
 ! D433  D(59,65,66,60)         -0.2817         estimate D2E/DX2                !
 ! D434  D(59,65,66,64)        138.1382         estimate D2E/DX2                !
 ! D435  D(61,65,66,60)       -138.4477         estimate D2E/DX2                !
 ! D436  D(61,65,66,64)         -0.0277         estimate D2E/DX2                !
 --------------------------------------------------------------------------------
 Trust Radius=3.00D-01 FncErr=1.00D-07 GrdErr=1.00D-06 EigMax=2.50D+02 EigMin=1.00D-04
 Number of steps in this run=    432 maximum allowed number of steps=    432.
 GradGradGradGradGradGradGradGradGradGradGradGradGradGradGradGradGradGrad

 Leave Link  103 at Fri Jul 15 00:22:26 2022, MaxMem=  1342177280 cpu:               1.4 elap:               0.0
 (Enter /home/mkliu/g16/l202.exe)
 Stoichiometry    C66Cl6
 Framework group  C1[X(C66Cl6)]
 Deg. of freedom   210
[...]
 Alpha virt. eigenvalues --    1.14046   1.14552   1.14826   1.15202   1.16072
 Alpha virt. eigenvalues --    1.16268   1.16571   1.17110   1.17436   1.17694
 Alpha virt. eigenvalues --    1.18164   1.18925   1.19084   1.19345   1.19794
 Alpha virt. eigenvalues --    1.20350   1.20506   1.20836   1.21533   1.21731
 Alpha virt. eigenvalues --    1.22095   1.22635   1.22828   1.23592   1.23880
 Alpha virt. eigenvalues --    1.24304   1.24484   1.25468   1.25635   1.26045
 Alpha virt. eigenvalues --    1.26510   1.26771   1.27295   1.27759   1.28228
 Alpha virt. eigenvalues --    1.28528   1.28792   1.29299   1.29623   1.30093
 Alpha virt. eigenvalues --    1.30362   1.31062   1.31439   1.31731   1.32248
 Alpha virt. eigenvalues --    1.32691   1.32972   1.33182   1.33833   1.33989
 Alpha virt. eigenvalues --    1.34317   1.34499   1.34796   1.35161   1.35546
 Alpha virt. eigenvalues --    1.35912   1.36443   1.36696   1.37187   1.37361
 Alpha virt. eigenvalues --    1.37762   1.37938   1.38093   1.38744   1.39053
 Alpha virt. eigenvalues --    1.39616   1.40009   1.40201   1.40346   1.40696
 Alpha virt. eigenvalues --    1.40993   1.41031   1.41402   1.41740   1.42071
 Alpha virt. eigenvalues --    1.42319   1.42464   1.42615   1.43025   1.43279
 Alpha virt. eigenvalues --    1.43599   1.43967   1.44235   1.44442   1.44766
 Alpha virt. eigenvalues --    1.45225   1.45274   1.45382   1.45901   1.46070
 Alpha virt. eigenvalues --    1.46193   1.46687   1.46753   1.46841   1.47033
 Alpha virt. eigenvalues --    1.47181   1.47619   1.47996   1.48002   1.48061
 Alpha virt. eigenvalues --    1.48513   1.48728   1.49388   1.49627   1.49800
 Alpha virt. eigenvalues --    1.50065   1.50308   1.50554   1.51056   1.51605
 Alpha virt. eigenvalues --    1.51693   1.51842   1.52112   1.52424   1.52687
 Alpha virt. eigenvalues --    1.52793   1.53501   1.53760   1.53942   1.54506
 Alpha virt. eigenvalues --    1.54839   1.55282   1.55293   1.55642   1.56072
 Alpha virt. eigenvalues --    1.56414   1.56776   1.57084   1.57942   1.58111
 Alpha virt. eigenvalues --    1.58385   1.58931   1.59339   1.59445   1.60235
 Alpha virt. eigenvalues --    1.60629   1.61175   1.61416   1.61727   1.62332
 Alpha virt. eigenvalues --    1.62890   1.62973   1.63344   1.64053   1.64332
 Alpha virt. eigenvalues --    1.64567   1.64984   1.65368   1.65594   1.66036
 Alpha virt. eigenvalues --    1.66441   1.66676   1.67314   1.67467   1.68093
 Alpha virt. eigenvalues --    1.68191   1.68844   1.69001   1.69576   1.69868
 Alpha virt. eigenvalues --    1.70546   1.70712   1.71039   1.71600   1.71674
 Alpha virt. eigenvalues --    1.71864   1.72251   1.72614   1.73339   1.73552
 Alpha virt. eigenvalues --    1.73688   1.74434   1.74916   1.75395   1.75942
 Alpha virt. eigenvalues --    1.76297   1.76512   1.76803   1.76974   1.77219
 Alpha virt. eigenvalues --    1.77340   1.77707   1.78601   1.78683   1.78927
 Alpha virt. eigenvalues --    1.79609   1.79800   1.79844   1.80439   1.80545
 Alpha virt. eigenvalues --    1.81360   1.81779   1.82488   1.83006   1.83738
 Alpha virt. eigenvalues --    1.84941   1.85464   1.86105   1.86401   1.86852
 Alpha virt. eigenvalues --    1.87236   1.87544   1.87935   1.88380   1.89204
 Alpha virt. eigenvalues --    1.89447   1.89919   1.90382   1.90709   1.91120
 Alpha virt. eigenvalues --    1.91313   1.92225   1.92750   1.93058   1.93756
 Alpha virt. eigenvalues --    1.93993   1.94683   1.95017   1.95219   1.96096
 Alpha virt. eigenvalues --    1.96575   1.96832   1.97651   1.98258   1.99036
 Alpha virt. eigenvalues --    2.00012   2.00177   2.00407   2.00931   2.00973
 Alpha virt. eigenvalues --    2.01207   2.01556   2.01691   2.01909   2.02262
 Alpha virt. eigenvalues --    2.02419   2.02857   2.03034   2.03623   2.03742
 Alpha virt. eigenvalues --    2.04908   2.05908   2.06335   2.07168   2.07607
 Alpha virt. eigenvalues --    2.08025   2.08505   2.08553   2.08741   2.09351
 Alpha virt. eigenvalues --    2.09906   2.09978   2.10842   2.10930   2.11456
 Alpha virt. eigenvalues --    2.11919   2.12147   2.12613   2.12966   2.13684
 Alpha virt. eigenvalues --    2.13966   2.14476   2.15325   2.16140   2.17131
 Alpha virt. eigenvalues --    2.17370   2.17601   2.17754   2.18336   2.19119
 Alpha virt. eigenvalues --    2.19228   2.20159   2.20542   2.20805   2.21036
 Alpha virt. eigenvalues --    2.21567   2.22048   2.22797   2.22896   2.23403
 Alpha virt. eigenvalues --    2.23855   2.24257   2.24370   2.24928   2.25255
 Alpha virt. eigenvalues --    2.25923   2.26119   2.26694   2.27100   2.27521
 Alpha virt. eigenvalues --    2.27946   2.28225   2.28729   2.29205   2.29652
 Alpha virt. eigenvalues --    2.30140   2.31013   2.31284   2.31615   2.31975
 Alpha virt. eigenvalues --    2.32455   2.32567   2.33227   2.33807   2.34170
 Alpha virt. eigenvalues --    2.34638   2.35122   2.35715   2.36480   2.36990
 Alpha virt. eigenvalues --    2.37502   2.37735   2.38069   2.38680   2.39178
 Alpha virt. eigenvalues --    2.39805   2.40317   2.40544   2.40974   2.41357
 Alpha virt. eigenvalues --    2.41495   2.41851   2.42643   2.42812   2.43511
 Alpha virt. eigenvalues --    2.43757   2.43982   2.44266   2.45086   2.45255
 Alpha virt. eigenvalues --    2.46096   2.46386   2.46786   2.47986   2.48907
 Alpha virt. eigenvalues --    2.49527   2.50113   2.50695   2.51318   2.51617
 Alpha virt. eigenvalues --    2.52400   2.53234   2.53526   2.53699   2.54121
 Alpha virt. eigenvalues --    2.54333   2.54898   2.55164   2.55719   2.55740
 Alpha virt. eigenvalues --    2.56266   2.56536   2.57123   2.57571   2.57903
 Alpha virt. eigenvalues --    2.58281   2.58842   2.59236   2.59756   2.60962
 Alpha virt. eigenvalues --    2.61260   2.61720   2.62396   2.62805   2.63025
 Alpha virt. eigenvalues --    2.63231   2.63709   2.63854   2.64736   2.66299
 Alpha virt. eigenvalues --    2.66929   2.67352   2.68788   2.69136   2.69627
 Alpha virt. eigenvalues --    2.70504   2.71003   2.71541   2.72767   2.73070
 Alpha virt. eigenvalues --    2.73816   2.75390   2.76182   2.77060   2.77335
 Alpha virt. eigenvalues --    2.78453   2.79052   2.80005   2.80273   2.81035
 Alpha virt. eigenvalues --    2.81736   2.82517   2.83682   2.84547   2.85472
 Alpha virt. eigenvalues --    2.85523   2.85779   2.86565   2.87317   2.87995
 Alpha virt. eigenvalues --    2.89951   2.90663   2.91616   2.92038   2.92754
 Alpha virt. eigenvalues --    2.93301   2.93496   2.93784   2.94216   2.94642
 Alpha virt. eigenvalues --    2.95386   2.96005   2.96235   2.96799   2.97060
 Alpha virt. eigenvalues --    2.97168   2.97633   2.98156   2.98584   2.98619
 Alpha virt. eigenvalues --    2.98913   2.99245   2.99372   3.00720   3.01145
 Alpha virt. eigenvalues --    3.01355   3.01549   3.01964   3.02521   3.03043
 Alpha virt. eigenvalues --    3.03165   3.03445   3.03658   3.04025   3.04458
 Alpha virt. eigenvalues --    3.04557   3.05011   3.05280   3.05618   3.05831
 Alpha virt. eigenvalues --    3.06103   3.06638   3.07183   3.07673   3.08262
 Alpha virt. eigenvalues --    3.08465   3.09050   3.09278   3.09619   3.09800
 Alpha virt. eigenvalues --    3.10193   3.10551   3.11075   3.11436   3.11608
 Alpha virt. eigenvalues --    3.11791   3.12314   3.12491   3.12800   3.12891
 Alpha virt. eigenvalues --    3.13084   3.13255   3.13952   3.14140   3.14641
 Alpha virt. eigenvalues --    3.14949   3.15648   3.16232   3.16281   3.17335
 Alpha virt. eigenvalues --    3.18063   3.18112   3.18377   3.18495   3.18780
 Alpha virt. eigenvalues --    3.19841   3.21220   3.21479   3.21791   3.23654
 Alpha virt. eigenvalues --    3.23803   3.25142   3.27146   3.30206   3.31651
 Alpha virt. eigenvalues --    3.36518   3.39464   3.40303   3.42088   3.43944
 Alpha virt. eigenvalues --    3.44521   3.44970   3.46165   3.47779   3.48178
 Alpha virt. eigenvalues --    3.48711   3.49356   3.50291   3.51525   3.51748
 Alpha virt. eigenvalues --    3.52132   3.52672   3.53920   3.55236   3.56072
 Alpha virt. eigenvalues --    3.56586   3.56950   3.57154   3.58421   3.58974
 Alpha virt. eigenvalues --    3.61913   3.63088   3.63399   3.63877   3.64780
 Alpha virt. eigenvalues --    3.66034   3.66997   3.68136   3.69368   3.69879
 Alpha virt. eigenvalues --    3.70178   3.71366   3.72027   3.72847   3.73189
 Alpha virt. eigenvalues --    3.74868   3.75550   3.77441   3.79401   3.80187
 Alpha virt. eigenvalues --    3.80362   3.81956   3.83011   3.83495   3.84210
 Alpha virt. eigenvalues --    3.84966   3.86477   3.86950   3.87414   3.88039
 Alpha virt. eigenvalues --    3.88639   3.88722   3.89426   3.89834   3.90050
 Alpha virt. eigenvalues --    3.91648   3.92439   3.95111   4.00558   4.05582
 Alpha virt. eigenvalues --    4.18131   4.21235   4.22196   4.24432   4.25554
 Alpha virt. eigenvalues --    4.26833   4.32520   4.35485   4.35979   4.37479
 Alpha virt. eigenvalues --    4.37800   4.41305   4.42781   4.47522   4.54787
 Alpha virt. eigenvalues --    4.57275   4.58702   4.61709   4.62929   4.63435
 Alpha virt. eigenvalues --    4.63890   4.66599   4.67955   4.72100   4.76395
 Alpha virt. eigenvalues --    4.82024   4.84106   4.91254   4.92777   4.97020
 Alpha virt. eigenvalues --    4.99393   5.02115   5.02422   5.04323   9.50044
 Alpha virt. eigenvalues --    9.56178   9.60127   9.67544   9.68440   9.71709
 Alpha virt. eigenvalues --   22.99409  23.19741  23.21299  23.23702  23.42894
 Alpha virt. eigenvalues --   23.45861  23.46630  23.48802  23.49859  23.61408
 Alpha virt. eigenvalues --   23.63500  23.66108  23.67305  23.68946  23.71464
 Alpha virt. eigenvalues --   23.73390  23.73819  23.76198  23.77522  23.78367
 Alpha virt. eigenvalues --   23.79295  23.80926  23.81401  23.82416  23.84127
 Alpha virt. eigenvalues --   23.85701  23.87459  23.88808  23.90155  23.91266
 Alpha virt. eigenvalues --   23.91853  23.93136  23.94147  23.94370  23.94512
 Alpha virt. eigenvalues --   23.94975  23.95567  23.96323  23.96732  23.97094
 Alpha virt. eigenvalues --   23.97745  23.97864  23.98177  23.98686  23.99813
 Alpha virt. eigenvalues --   24.01950  24.03779  24.04713  24.05287  24.06937
 Alpha virt. eigenvalues --   24.07500  24.07732  24.07966  24.08534  24.09215
 Alpha virt. eigenvalues --   24.09310  24.09848  24.10099  24.10691  24.11033
 Alpha virt. eigenvalues --   24.11746  24.12319  24.13180  24.14307  24.15935
 Alpha virt. eigenvalues --   24.22256  25.50146  25.57158  25.60134  25.67592
 Alpha virt. eigenvalues --   25.72959  25.75680  25.79974  25.80952  25.86271
 Alpha virt. eigenvalues --   25.91970  25.94881  26.01110  26.18331  26.27807
 Alpha virt. eigenvalues --   26.36127  26.49915  26.59508  26.74535 215.44595
 Alpha virt. eigenvalues --  215.51390 215.56085 215.64619 215.65584 215.69321
          Condensed to atoms (all electrons):
 Mulliken charges:
               1
     1  C   -0.259928
     2  C   -0.269997
     3  C   -0.432293
     4  C   -0.269357
     5  C    0.320272
     6  C   -0.434487
     7  C    0.067640
     8  C    0.158051
     9  C    0.075677
    10  C    0.072206
    11  C    0.062096
    12  C    0.171171
    13  C    0.067584
    14  C    0.161583
    15  C    0.187934
    16  C   -0.665403
    17  C    0.076606
    18  C    0.052799
    19  C    0.092125
    20  C    0.085519
    21  C    0.015853
    22  C   -0.009491
    23  C    0.013805
    24  C   -0.000867
    25  C   -0.012126
    26  C    0.005382
    27  C    0.021901
    28  C    0.003180
    29  C    0.052731
    30  C    0.027368
    31  C   -0.014385
    32  C    0.148253
    33  C    0.023055
    34  C    0.021349
    35  C    0.002391
    36  C   -0.009556
    37  C   -0.000564
    38  C   -0.007975
    39  C   -0.003362
    40  C   -0.007942
    41  C    0.002149
    42  C    0.001321
    43  C    0.004028
    44  C    0.000448
    45  C   -0.001978
    46  C    0.003893
    47  C   -0.003646
    48  C   -0.001652
    49  C   -0.004926
    50  C   -0.002009
    51  C    0.007647
    52  C    0.006050
    53  C   -0.001189
    54  C    0.002462
    55  C    0.002835
    56  C    0.000932
    57  C    0.002145
    58  C    0.000847
    59  C    0.002418
    60  C    0.002919
    61  C    0.002785
    62  C    0.001904
    63  C    0.001423
    64  C    0.003585
    65  C    0.002762
    66  C    0.000590
    67  Cl   0.068395
    68  Cl   0.074577
    69  Cl   0.068829
    70  Cl   0.039949
    71  Cl   0.074783
    72  Cl   0.046926
 Sum of Mulliken charges =  -0.00000
 Mulliken charges with hydrogens summed into heavy atoms:
               1
     1  C   -0.259928
     2  C   -0.269997
     3  C   -0.432293
     4  C   -0.269357
     5  C    0.320272
     6  C   -0.434487
     7  C    0.067640
     8  C    0.158051
     9  C    0.075677
    10  C    0.072206
    11  C    0.062096
    12  C    0.171171
    13  C    0.067584
    14  C    0.161583
    15  C    0.187934
    16  C   -0.665403
    17  C    0.076606
    18  C    0.052799
    19  C    0.092125
    20  C    0.085519
    21  C    0.015853
    22  C   -0.009491
    23  C    0.013805
    24  C   -0.000867
    25  C   -0.012126
    26  C    0.005382
    27  C    0.021901
    28  C    0.003180
    29  C    0.052731
    30  C    0.027368
    31  C   -0.014385
    32  C    0.148253
    33  C    0.023055
    34  C    0.021349
    35  C    0.002391
    36  C   -0.009556
    37  C   -0.000564
    38  C   -0.007975
    39  C   -0.003362
    40  C   -0.007942
    41  C    0.002149
    42  C    0.001321
    43  C    0.004028
    44  C    0.000448
    45  C   -0.001978
    46  C    0.003893
    47  C   -0.003646
    48  C   -0.001652
    49  C   -0.004926
    50  C   -0.002009
    51  C    0.007647
    52  C    0.006050
    53  C   -0.001189
    54  C    0.002462
    55  C    0.002835
    56  C    0.000932
    57  C    0.002145
    58  C    0.000847
    59  C    0.002418
    60  C    0.002919
    61  C    0.002785
    62  C    0.001904
    63  C    0.001423
    64  C    0.003585
    65  C    0.002762
    66  C    0.000590
    67  Cl   0.068395
    68  Cl   0.074577
    69  Cl   0.068829
    70  Cl   0.039949
    71  Cl   0.074783
    72  Cl   0.046926
 Electronic spatial extent (au):  <R**2>=          32386.9857
 Charge=              0.0000 electrons
 Dipole moment (field-independent basis, Debye):
    X=             -5.3279    Y=             -0.7851    Z=             -0.5430  Tot=              5.4127
 Quadrupole moment (field-independent basis, Debye-Ang):
   XX=           -460.6870   YY=           -449.3428   ZZ=           -447.6485
   XY=             -1.1264   XZ=             -1.2986   YZ=              3.1796
 Traceless Quadrupole moment (field-independent basis, Debye-Ang):
   XX=             -8.1276   YY=              3.2166   ZZ=              4.9109
   XY=             -1.1264   XZ=             -1.2986   YZ=              3.1796
 Octapole moment (field-independent basis, Debye-Ang**2):
  XXX=            109.3622  YYY=            -19.6511  ZZZ=             -6.1100  XYY=             39.6381
  XXY=              3.6432  XXZ=              0.7569  XZZ=             43.9045  YZZ=              5.7151
  YYZ=              7.2658  XYZ=              6.5887
 Hexadecapole moment (field-independent basis, Debye-Ang**3):
 XXXX=         -23785.6853 YYYY=         -12736.7310 ZZZZ=         -11214.3656 XXXY=              1.5779
 XXXZ=             -0.5873 YYYX=            -66.8748 YYYZ=            -34.3004 ZZZX=            -28.7702
 ZZZY=            -43.7859 XXYY=          -6062.9175 XXZZ=          -5844.0076 YYZZ=          -3974.8524
 XXYZ=             -3.6444 YYXZ=              4.6032 ZZXY=              3.2982
 N-N= 1.380256273472D+04 E-N=-3.999591956962D+04  KE= 5.260086577511D+03
 No NMR shielding tensors so no spin-rotation constants.
 Leave Link  601 at Fri Jul 15 01:37:15 2022, MaxMem=  1342177280 cpu:              61.8 elap:               1.5
 (Enter /home/mkliu/g16/l9999.exe)
 1\1\GINC-NODE04\FOpt\RB3LYP\6-311G(d,p)\C66Cl6\MKLIU\15-Jul-2022\0\\#P
  opt b3lyp/6-311G(d, p) empiricaldispersion=GD3\\force\\0,1\C,-1.34230
 36475,1.8805644241,-3.9391207275\C,0.2183593629,2.2263312158,-3.992066
 6422\C,0.9620780033,0.858376056,-4.2788765103\C,-1.5013599576,0.345096
 081,-4.2820711213\C,-0.1087066588,-0.1663835645,-4.1357767523\C,-2.496
 9182923,-0.250650927,-3.1670885317\C,-1.8611163033,1.9635073677,-2.538
 5445568\C,-2.5840971752,0.8588472933,-2.1706775429\C,-1.4017189719,2.9
 048093004,-1.5684721146\C,0.7741983741,2.6229351255,-2.6440783395\C,0.
 0232781748,3.2439060645,-1.6205079527\C,1.9346407369,0.6931634029,-3.1
 171128913\C,1.9089526187,1.8751393188,-2.3086499058\C,2.2748137506,-0.
 5122107514,-2.5691979286\C,0.1625943848,-1.3478863025,-3.5983882435\C,
 1.5677218723,-1.7441241568,-3.1436070104\C,-2.0103010136,-1.4963501477
 ,-2.4307263621\C,-0.8327270857,-2.1009129517,-2.8458553145\C,-2.508650
 6143,-1.779154544,-1.0995251111\C,-3.043830302,0.6556449903,-0.8399476
 671\C,-3.1083397772,-0.694777599,-0.2974631548\C,-2.0370242809,2.86022
 85908,-0.3290709422\C,-2.9119829449,1.7606793837,0.0188120766\C,-1.383
 4440122,3.2953542477,0.8887962351\C,0.6877637746,3.4762708116,-0.40077
 67913\C,-0.0285344756,3.596738592,0.8521170306\C,2.4741839153,1.888686
 104,-1.0012792608\C,1.9548189165,2.8557139544,-0.1154521522\C,2.909599
 5933,-0.5670921599,-1.2548716248\C,3.0683544836,0.6666631514,-0.484544
 7729\C,2.9240034422,-1.7936554875,-0.5563236709\C,1.2688435274,-2.7757
 49092,-2.090695722\C,-0.1372411012,-3.0376104255,-2.0257676893\C,2.027
 7448039,-2.8908420878,-0.9631523102\C,-1.9357121691,-2.8684180856,-0.3
 955947339\C,-0.7212576984,-3.4916281659,-0.8515796357\C,-1.9206865706,
 -2.9349047225,1.0469362812\C,-3.144409731,-0.8206798479,1.1032006132\C
 ,-2.5249721409,-1.9390507638,1.7852875366\C,-2.8804106648,1.5981466663
 ,1.4440523533\C,-1.9242698116,2.5399251635,1.9960572697\C,-3.007724326
 9,0.3300075014,1.9775476407\C,-1.1081758188,2.1493143799,3.0525036922\
 C,0.8328570167,3.1477306704,1.924035471\C,2.0636607569,2.6900645082,1.
 3110862211\C,0.3089857122,2.4616641805,3.0164550824\C,3.2632322384,0.5
 801747508,0.9157438748\C,2.7258850587,1.5882419637,1.8160550429\C,3.01
 43101214,-1.8420974776,0.8662271988\C,3.2053310875,-0.6752086632,1.598
 6200779\C,1.4689488169,-3.4797521807,0.2319541919\C,0.107358766,-3.798
 4524537,0.2877319561\C,-0.648592067,-3.4920808416,1.4774785472\C,2.110
 821721,-2.8705734653,1.3709664544\C,-0.0148058669,-2.9688640583,2.6023
 431298\C,1.4032845427,-2.654273509,2.547514637\C,-1.9141261175,-1.4600
 048138,3.0084952991\C,-2.2161665686,-0.0522105263,3.1308963686\C,-1.26
 2855989,0.830466455,3.6387501718\C,-0.6645834194,-1.9466935872,3.39357
 83123\C,1.0275763576,1.3339093517,3.5765261806\C,2.2306651975,0.922059
 1521,3.0033270191\C,2.5296292592,-0.4874977739,2.8691085015\C,1.623446
 7563,-1.4425664339,3.319625251\C,0.0556757631,0.337339653,3.9912702765
 \C,0.349187998,-1.0189294317,3.8661688727\Cl,-2.3935512697,2.969006852
 1,-4.9336190467\Cl,0.6407886551,3.5627130951,-5.1309285746\Cl,1.820043
 267,0.7442812607,-5.8767764369\Cl,2.5373611655,-2.5217704603,-4.514297
 0817\Cl,-1.9920049014,0.006725439,-5.9918945975\Cl,-4.1777004122,-0.61
 43541725,-3.8240425357\\Version=ES64L-G16RevA.03\State=1-A\HF=-5276.77
 94378\RMSD=4.291e-09\RMSF=3.125e-05\Dipole=0.2364377,-0.043161,2.11592
 41\Quadrupole=0.9045599,5.0922342,-5.996794,1.5152495,-0.8229787,0.821
 4485\PG=C01 [X(C66Cl6)]\\@


 THE UNDERLYING PHYSICAL LAWS NECESSARY FOR THE 
 MATHEMATICAL THEORY OF A LARGE PART OF PHYSICS AND THE
 WHOLE OF CHEMISTRY ARE THUS COMPLETELY KNOWN, AND THE
 DIFFICULTY IS ONLY THAT THE EXACT APPLICATION OF THESE
 LAWS LEADS TO EQUATIONS MUCH TOO COMPLICATED 
 TO BE SOLUBLE.

                                        -- P. A. M. DIRAC, 1929
 Job cpu time:       2 days 11 hours 24 minutes 19.2 seconds.
 Elapsed time:       0 days  1 hours 14 minutes 25.7 seconds.
 File lengths (MBytes):  RWF=   1106 Int=      0 D2E=      0 Chk=    136 Scr=      1
 Normal termination of Gaussian 16 at Fri Jul 15 01:37:17 2022.
