 Entering Gaussian System, Link 0=g16
 Input=eubutj9l3myo0_addon_8.gjf
 Output=eubutj9l3myo0_addon_8.log
 Initial command:
 /home/mkliu/g16/l1.exe "/data/scratch/Gau-226653.inp" -scrdir="/data/scratch/"
 Entering Link 1 = /home/mkliu/g16/l1.exe PID=    226654.
  
 Copyright (c) 1988,1990,1992,1993,1995,1998,2003,2009,2016,
            Gaussian, Inc.  All Rights Reserved.
  
 This is part of the Gaussian(R) 16 program.  It is based on
 the Gaussian(R) 09 system (copyright 2009, Gaussian, Inc.),
 the Gaussian(R) 03 system (copyright 2003, Gaussian, Inc.),
 the Gaussian(R) 98 system (copyright 1998, Gaussian, Inc.),
 the Gaussian(R) 94 system (copyright 1995, Gaussian, Inc.),
 the Gaussian 92(TM) system (copyright 1992, Gaussian, Inc.),
 the Gaussian 90(TM) system (copyright 1990, Gaussian, Inc.),
 the Gaussian 88(TM) system (copyright 1988, Gaussian, Inc.),
 the Gaussian 86(TM) system (copyright 1986, Carnegie Mellon
 University), and the Gaussian 82(TM) system (copyright 1983,
 Carnegie Mellon University). Gaussian is a federally registered
 trademark of Gaussian, Inc.
  
 This software contains proprietary and confidential information,
 including trade secrets, belonging to Gaussian, Inc.
  
 This software is provided under written license and may be
 used, copied, transmitted, or stored only in accord with that
 written license.
  
 The following legend is applicable only to US Government
 contracts under FAR:
  
                    RESTRICTED RIGHTS LEGEND
  
 Use, reproduction and disclosure by the US Government is
 subject to restrictions as set forth in subparagraphs (a)
 and (c) of the Commercial Computer Software - Restricted
 Rights clause in FAR 52.227-19.
  
 Gaussian, Inc.
 340 Quinnipiac St., Bldg. 40, Wallingford CT 06492
  
  
 ---------------------------------------------------------------
 Warning -- This program may not be used in any manner that
 competes with the business of Gaussian, Inc. or will provide
 assistance to any competitor of Gaussian, Inc.  The licensee
 of this program is prohibited from giving any competitor of
 Gaussian, Inc. access to this program.  By using this program,
 the user acknowledges that Gaussian, Inc. is engaged in the
 business of creating and licensing software in the field of
 computational chemistry and represents and warrants to the
 licensee that it is not a competitor of Gaussian, Inc. and that
 it will not use this program in any manner prohibited above.
 ---------------------------------------------------------------
  

 Cite this work as:
 Gaussian 16, Revision A.03,
 M. J. Frisch, G. W. Trucks, H. B. Schlegel, G. E. Scuseria, 
 M. A. Robb, J. R. Cheeseman, G. Scalmani, V. Barone, 
 G. A. Petersson, H. Nakatsuji, X. Li, M. Caricato, A. V. Marenich, 
 J. Bloino, B. G. Janesko, R. Gomperts, B. Mennucci, H. P. Hratchian, 
 J. V. Ortiz, A. F. Izmaylov, J. L. Sonnenberg, D. Williams-Young, 
 F. Ding, F. Lipparini, F. Egidi, J. Goings, B. Peng, A. Petrone, 
 T. Henderson, D. Ranasinghe, V. G. Zakrzewski, J. Gao, N. Rega, 
 G. Zheng, W. Liang, M. Hada, M. Ehara, K. Toyota, R. Fukuda, 
 J. Hasegawa, M. Ishida, T. Nakajima, Y. Honda, O. Kitao, H. Nakai, 
 T. Vreven, K. Throssell, J. A. Montgomery, Jr., J. E. Peralta, 
 F. Ogliaro, M. J. Bearpark, J. J. Heyd, E. N. Brothers, K. N. Kudin, 
 V. N. Staroverov, T. A. Keith, R. Kobayashi, J. Normand, 
 K. Raghavachari, A. P. Rendell, J. C. Burant, S. S. Iyengar, 
 J. Tomasi, M. Cossi, J. M. Millam, M. Klene, C. Adamo, R. Cammi, 
 J. W. Ochterski, R. L. Martin, K. Morokuma, O. Farkas, 
 J. B. Foresman, and D. J. Fox, Gaussian, Inc., Wallingford CT, 2016.
 
 ******************************************
 Gaussian 16:  ES64L-G16RevA.03 25-Dec-2016
                14-Jul-2022 
 ******************************************
 %mem=10GB
 %chk=eubutj9l3myo0_addon_8.chk
 %nprocshared=48
 Will use up to   48 processors via shared memory.
 -------------------------------------------------
 #P opt b3lyp/6-311G(d, p) empiricaldispersion=GD3
 -------------------------------------------------
 1/18=20,19=15,26=3,38=1/1,3;
 2/9=110,12=2,17=6,18=5,40=1/2;
 3/5=4,6=6,7=101,11=2,25=1,30=1,71=1,74=-5,124=31/1,2,3;
 4//1;
 5/5=2,38=5/2;
 6/7=2,8=2,9=2,10=2,28=1/1;
 7//1,2,3,16;
 1/18=20,19=15,26=3/3(2);
 2/9=110/2;
 99//99;
 2/9=110/2;
 3/5=4,6=6,7=101,11=2,25=1,30=1,71=1,74=-5,124=31/1,2,3;
 4/5=5,16=3,69=1/1;
 5/5=2,38=5/2;
 7//1,2,3,16;
 1/18=20,19=15,26=3/3(-5);
 2/9=110/2;
 6/7=2,8=2,9=2,10=2,19=2,28=1/1;
 99/9=1/99;
 Leave Link    1 at Thu Jul 14 20:25:15 2022, MaxMem=  1342177280 cpu:               2.4 elap:               0.1
 (Enter /home/mkliu/g16/l101.exe)
 -----
 force
 -----
 Symbolic Z-matrix:
 Charge =  0 Multiplicity = 1
 C                    -1.34756   1.86415  -3.91098 
 C                     0.17946   2.19145  -3.9739 
 C                     0.92947   0.87188  -4.23975 
 C                    -1.50838   0.33536  -4.21328 
 C                    -0.11543  -0.16312  -4.06894 
 C                    -2.47618  -0.22125  -3.12389 
 C                    -1.90755   2.0157   -2.53747 
 C                    -2.61701   0.90508  -2.15557 
 C                    -1.42139   2.9111   -1.55778 
 C                     0.72344   2.60993  -2.64417 
 C                     0.00051   3.20562  -1.62469 
 C                     1.88384   0.68593  -3.0802 
 C                     1.8443    1.8321   -2.26381 
 C                     2.22926  -0.515    -2.52199 
 C                     0.20754  -1.34185  -3.55572 
 C                     1.5997   -1.75527  -3.14063 
 C                    -1.97801  -1.44404  -2.40142 
 C                    -0.80432  -2.05294  -2.78462 
 C                    -2.51158  -1.73445  -1.08749 
 C                    -3.06101   0.68715  -0.83595 
 C                    -3.10844  -0.66381  -0.31156 
 C                    -2.02868   2.83866  -0.32143 
 C                    -2.90694   1.7723    0.02548 
 C                    -1.36256   3.25581   0.88861 
 C                     0.68871   3.4053   -0.39455 
 C                    -0.01934   3.53563   0.84966 
 C                     2.42589   1.82392  -0.99623 
 C                     1.92515   2.80343  -0.11593 
 C                     2.87845  -0.56026  -1.23351 
 C                     3.01296   0.60405  -0.5024 
 C                     3.1548   -1.91631  -0.61051 
 C                     1.30402  -2.76561  -2.07989 
 C                    -0.11245  -2.99786  -1.99424 
 C                     2.04462  -2.87567  -0.95422 
 C                    -1.92882  -2.8038   -0.39882 
 C                    -0.71383  -3.42566  -0.83686 
 C                    -1.93686  -2.88479   1.02681 
 C                    -3.14541  -0.78766   1.08323 
 C                    -2.54845  -1.90092   1.76077 
 C                    -2.87326   1.61267   1.44299 
 C                    -1.92671   2.53615   2.00134 
 C                    -3.01915   0.34581   1.96155 
 C                    -1.11989   2.13169   3.04594 
 C                     0.8351    3.08663   1.91999 
 C                     2.04897   2.62402   1.31716 
 C                     0.29139   2.42081   2.99874 
 C                     3.49547   0.60004   0.93934 
 C                     2.72215   1.54425   1.81316 
 C                     3.02362  -1.8584    0.88742 
 C                     3.19956  -0.71678   1.59564 
 C                     1.45361  -3.42553   0.23333 
 C                     0.10219  -3.73004   0.28943 
 C                    -0.67488  -3.44302   1.45808 
 C                     2.08434  -2.82887   1.36006 
 C                    -0.05578  -2.93061   2.57725 
 C                     1.34827  -2.62137   2.51572 
 C                    -1.95881  -1.44052   2.98896 
 C                    -2.24883  -0.04352   3.11063 
 C                    -1.29368   0.82553   3.61527 
 C                    -0.71924  -1.92547   3.36461 
 C                     0.99615   1.29955   3.53551 
 C                     2.18988   0.88257   2.9553 
 C                     2.47222  -0.51188   2.81002 
 C                     1.55833  -1.43618   3.27119 
 C                     0.02018   0.33001   3.94721 
 C                     0.29669  -1.01825   3.82056 
 Cl                   -2.33474   2.87234  -4.99969 
 Cl                    0.53948   3.47549  -5.16055 
 Cl                    1.73265   0.72018  -5.81905 
 Cl                    2.67094  -2.39818  -4.43145 
 Cl                    4.78676  -2.45867  -1.17201 
 Cl                    5.27046   0.97189   0.8607 
 Cl                   -2.03775  -0.00923  -5.88057 
 Cl                   -4.11813  -0.61363  -3.79355 
 
 ITRead=  0  0  0  0  0  0  0  0  0  0  0  0  0  0  0  0  0  0  0  0
 ITRead=  0  0  0  0  0  0  0  0  0  0  0  0  0  0  0  0  0  0  0  0
 ITRead=  0  0  0  0  0  0  0  0  0  0  0  0  0  0  0  0  0  0  0  0
 ITRead=  0  0  0  0  0  0  0  0  0  0  0  0  0  0
 MicOpt= -1 -1 -1 -1 -1 -1 -1 -1 -1 -1 -1 -1 -1 -1 -1 -1 -1 -1 -1 -1
 MicOpt= -1 -1 -1 -1 -1 -1 -1 -1 -1 -1 -1 -1 -1 -1 -1 -1 -1 -1 -1 -1
 MicOpt= -1 -1 -1 -1 -1 -1 -1 -1 -1 -1 -1 -1 -1 -1 -1 -1 -1 -1 -1 -1
 MicOpt= -1 -1 -1 -1 -1 -1 -1 -1 -1 -1 -1 -1 -1 -1
 NAtoms=     74 NQM=       74 NQMF=       0 NMMI=      0 NMMIF=      0
                NMic=       0 NMicF=      0.
                    Isotopes and Nuclear Properties:
 (Nuclear quadrupole moments (NQMom) in fm**2, nuclear magnetic moments (NMagM)
  in nuclear magnetons)

  Atom         1           2           3           4           5           6           7           8           9          10
 IAtWgt=          12          12          12          12          12          12          12          12          12          12
 AtmWgt=  12.0000000  12.0000000  12.0000000  12.0000000  12.0000000  12.0000000  12.0000000  12.0000000  12.0000000  12.0000000
 NucSpn=           0           0           0           0           0           0           0           0           0           0
 AtZEff=  -0.0000000  -0.0000000  -0.0000000  -0.0000000  -0.0000000  -0.0000000  -0.0000000  -0.0000000  -0.0000000  -0.0000000
 NQMom=    0.0000000   0.0000000   0.0000000   0.0000000   0.0000000   0.0000000   0.0000000   0.0000000   0.0000000   0.0000000
 NMagM=    0.0000000   0.0000000   0.0000000   0.0000000   0.0000000   0.0000000   0.0000000   0.0000000   0.0000000   0.0000000
 AtZNuc=   6.0000000   6.0000000   6.0000000   6.0000000   6.0000000   6.0000000   6.0000000   6.0000000   6.0000000   6.0000000

  Atom        11          12          13          14          15          16          17          18          19          20
 IAtWgt=          12          12          12          12          12          12          12          12          12          12
 AtmWgt=  12.0000000  12.0000000  12.0000000  12.0000000  12.0000000  12.0000000  12.0000000  12.0000000  12.0000000  12.0000000
 NucSpn=           0           0           0           0           0           0           0           0           0           0
 AtZEff=  -0.0000000  -0.0000000  -0.0000000  -0.0000000  -0.0000000  -0.0000000  -0.0000000  -0.0000000  -0.0000000  -0.0000000
 NQMom=    0.0000000   0.0000000   0.0000000   0.0000000   0.0000000   0.0000000   0.0000000   0.0000000   0.0000000   0.0000000
 NMagM=    0.0000000   0.0000000   0.0000000   0.0000000   0.0000000   0.0000000   0.0000000   0.0000000   0.0000000   0.0000000
 AtZNuc=   6.0000000   6.0000000   6.0000000   6.0000000   6.0000000   6.0000000   6.0000000   6.0000000   6.0000000   6.0000000

  Atom        21          22          23          24          25          26          27          28          29          30
 IAtWgt=          12          12          12          12          12          12          12          12          12          12
 AtmWgt=  12.0000000  12.0000000  12.0000000  12.0000000  12.0000000  12.0000000  12.0000000  12.0000000  12.0000000  12.0000000
 NucSpn=           0           0           0           0           0           0           0           0           0           0
 AtZEff=  -0.0000000  -0.0000000  -0.0000000  -0.0000000  -0.0000000  -0.0000000  -0.0000000  -0.0000000  -0.0000000  -0.0000000
 NQMom=    0.0000000   0.0000000   0.0000000   0.0000000   0.0000000   0.0000000   0.0000000   0.0000000   0.0000000   0.0000000
 NMagM=    0.0000000   0.0000000   0.0000000   0.0000000   0.0000000   0.0000000   0.0000000   0.0000000   0.0000000   0.0000000
 AtZNuc=   6.0000000   6.0000000   6.0000000   6.0000000   6.0000000   6.0000000   6.0000000   6.0000000   6.0000000   6.0000000

  Atom        31          32          33          34          35          36          37          38          39          40
 IAtWgt=          12          12          12          12          12          12          12          12          12          12
 AtmWgt=  12.0000000  12.0000000  12.0000000  12.0000000  12.0000000  12.0000000  12.0000000  12.0000000  12.0000000  12.0000000
 NucSpn=           0           0           0           0           0           0           0           0           0           0
 AtZEff=  -0.0000000  -0.0000000  -0.0000000  -0.0000000  -0.0000000  -0.0000000  -0.0000000  -0.0000000  -0.0000000  -0.0000000
 NQMom=    0.0000000   0.0000000   0.0000000   0.0000000   0.0000000   0.0000000   0.0000000   0.0000000   0.0000000   0.0000000
 NMagM=    0.0000000   0.0000000   0.0000000   0.0000000   0.0000000   0.0000000   0.0000000   0.0000000   0.0000000   0.0000000
 AtZNuc=   6.0000000   6.0000000   6.0000000   6.0000000   6.0000000   6.0000000   6.0000000   6.0000000   6.0000000   6.0000000

  Atom        41          42          43          44          45          46          47          48          49          50
 IAtWgt=          12          12          12          12          12          12          12          12          12          12
 AtmWgt=  12.0000000  12.0000000  12.0000000  12.0000000  12.0000000  12.0000000  12.0000000  12.0000000  12.0000000  12.0000000
 NucSpn=           0           0           0           0           0           0           0           0           0           0
 AtZEff=  -0.0000000  -0.0000000  -0.0000000  -0.0000000  -0.0000000  -0.0000000  -0.0000000  -0.0000000  -0.0000000  -0.0000000
 NQMom=    0.0000000   0.0000000   0.0000000   0.0000000   0.0000000   0.0000000   0.0000000   0.0000000   0.0000000   0.0000000
 NMagM=    0.0000000   0.0000000   0.0000000   0.0000000   0.0000000   0.0000000   0.0000000   0.0000000   0.0000000   0.0000000
 AtZNuc=   6.0000000   6.0000000   6.0000000   6.0000000   6.0000000   6.0000000   6.0000000   6.0000000   6.0000000   6.0000000

  Atom        51          52          53          54          55          56          57          58          59          60
 IAtWgt=          12          12          12          12          12          12          12          12          12          12
 AtmWgt=  12.0000000  12.0000000  12.0000000  12.0000000  12.0000000  12.0000000  12.0000000  12.0000000  12.0000000  12.0000000
 NucSpn=           0           0           0           0           0           0           0           0           0           0
 AtZEff=  -0.0000000  -0.0000000  -0.0000000  -0.0000000  -0.0000000  -0.0000000  -0.0000000  -0.0000000  -0.0000000  -0.0000000
 NQMom=    0.0000000   0.0000000   0.0000000   0.0000000   0.0000000   0.0000000   0.0000000   0.0000000   0.0000000   0.0000000
 NMagM=    0.0000000   0.0000000   0.0000000   0.0000000   0.0000000   0.0000000   0.0000000   0.0000000   0.0000000   0.0000000
 AtZNuc=   6.0000000   6.0000000   6.0000000   6.0000000   6.0000000   6.0000000   6.0000000   6.0000000   6.0000000   6.0000000

  Atom        61          62          63          64          65          66          67          68          69          70
 IAtWgt=          12          12          12          12          12          12          35          35          35          35
 AtmWgt=  12.0000000  12.0000000  12.0000000  12.0000000  12.0000000  12.0000000  34.9688527  34.9688527  34.9688527  34.9688527
 NucSpn=           0           0           0           0           0           0           3           3           3           3
 AtZEff=  -0.0000000  -0.0000000  -0.0000000  -0.0000000  -0.0000000  -0.0000000  -0.0000000  -0.0000000  -0.0000000  -0.0000000
 NQMom=    0.0000000   0.0000000   0.0000000   0.0000000   0.0000000   0.0000000  -8.1650000  -8.1650000  -8.1650000  -8.1650000
 NMagM=    0.0000000   0.0000000   0.0000000   0.0000000   0.0000000   0.0000000   0.8218740   0.8218740   0.8218740   0.8218740
 AtZNuc=   6.0000000   6.0000000   6.0000000   6.0000000   6.0000000   6.0000000  17.0000000  17.0000000  17.0000000  17.0000000

  Atom        71          72          73          74
 IAtWgt=          35          35          35          35
 AtmWgt=  34.9688527  34.9688527  34.9688527  34.9688527
 NucSpn=           3           3           3           3
 AtZEff=  -0.0000000  -0.0000000  -0.0000000  -0.0000000
 NQMom=   -8.1650000  -8.1650000  -8.1650000  -8.1650000
 NMagM=    0.8218740   0.8218740   0.8218740   0.8218740
 AtZNuc=  17.0000000  17.0000000  17.0000000  17.0000000
 Leave Link  101 at Thu Jul 14 20:25:16 2022, MaxMem=  1342177280 cpu:              13.2 elap:               0.3
 (Enter /home/mkliu/g16/l103.exe)

 GradGradGradGradGradGradGradGradGradGradGradGradGradGradGradGradGradGrad
 Berny optimization.
 Initialization pass.
                           ----------------------------
                           !    Initial Parameters    !
                           ! (Angstroms and Degrees)  !
 --------------------------                            --------------------------
 ! Name  Definition              Value          Derivative Info.                !
 --------------------------------------------------------------------------------
 ! R1    R(1,2)                  1.563          estimate D2E/DX2                !
 ! R2    R(1,4)                  1.5667         estimate D2E/DX2                !
 ! R3    R(1,7)                  1.491          estimate D2E/DX2                !
 ! R4    R(1,67)                 1.7822         estimate D2E/DX2                !
 ! R5    R(2,3)                  1.5409         estimate D2E/DX2                !
 ! R6    R(2,10)                 1.4964         estimate D2E/DX2                !
 ! R7    R(2,68)                 1.7851         estimate D2E/DX2                !
 ! R8    R(3,5)                  1.4806         estimate D2E/DX2                !
 ! R9    R(3,12)                 1.5133         estimate D2E/DX2                !
 ! R10   R(3,69)                 1.7783         estimate D2E/DX2                !
 ! R11   R(4,5)                  1.4865         estimate D2E/DX2                !
 ! R12   R(4,6)                  1.5599         estimate D2E/DX2                !
 ! R13   R(4,73)                 1.7829         estimate D2E/DX2                !
 ! R14   R(5,15)                 1.3256         estimate D2E/DX2                !
 ! R15   R(6,8)                  1.492          estimate D2E/DX2                !
 ! R16   R(6,17)                 1.5051         estimate D2E/DX2                !
 ! R17   R(6,74)                 1.8162         estimate D2E/DX2                !
 ! R18   R(7,8)                  1.3721         estimate D2E/DX2                !
 ! R19   R(7,9)                  1.4135         estimate D2E/DX2                !
 ! R20   R(8,20)                 1.4093         estimate D2E/DX2                !
 ! R21   R(9,11)                 1.4536         estimate D2E/DX2                !
 ! R22   R(9,22)                 1.3793         estimate D2E/DX2                !
 ! R23   R(10,11)                1.3845         estimate D2E/DX2                !
 ! R24   R(10,13)                1.4163         estimate D2E/DX2                !
 ! R25   R(11,25)                1.4236         estimate D2E/DX2                !
 ! R26   R(12,13)                1.4078         estimate D2E/DX2                !
 ! R27   R(12,14)                1.3686         estimate D2E/DX2                !
 ! R28   R(13,27)                1.3947         estimate D2E/DX2                !
 ! R29   R(14,16)                1.5223         estimate D2E/DX2                !
 ! R30   R(14,29)                1.4435         estimate D2E/DX2                !
 ! R31   R(15,16)                1.5104         estimate D2E/DX2                !
 ! R32   R(15,18)                1.4574         estimate D2E/DX2                !
 ! R33   R(16,32)                1.4944         estimate D2E/DX2                !
 ! R34   R(16,70)                1.7964         estimate D2E/DX2                !
 ! R35   R(17,18)                1.3766         estimate D2E/DX2                !
 ! R36   R(17,19)                1.4476         estimate D2E/DX2                !
 ! R37   R(18,33)                1.4129         estimate D2E/DX2                !
 ! R38   R(19,21)                1.4507         estimate D2E/DX2                !
 ! R39   R(19,35)                1.3991         estimate D2E/DX2                !
 ! R40   R(20,21)                1.4499         estimate D2E/DX2                !
 ! R41   R(20,23)                1.394          estimate D2E/DX2                !
 ! R42   R(21,38)                1.4008         estimate D2E/DX2                !
 ! R43   R(22,23)                1.4244         estimate D2E/DX2                !
 ! R44   R(22,24)                1.4429         estimate D2E/DX2                !
 ! R45   R(23,40)                1.4269         estimate D2E/DX2                !
 ! R46   R(24,26)                1.3726         estimate D2E/DX2                !
 ! R47   R(24,41)                1.4403         estimate D2E/DX2                !
 ! R48   R(25,26)                1.4375         estimate D2E/DX2                !
 ! R49   R(25,28)                1.4031         estimate D2E/DX2                !
 ! R50   R(26,44)                1.4413         estimate D2E/DX2                !
 ! R51   R(27,28)                1.4089         estimate D2E/DX2                !
 ! R52   R(27,30)                1.441          estimate D2E/DX2                !
 ! R53   R(28,45)                1.4496         estimate D2E/DX2                !
 ! R54   R(29,30)                1.3814         estimate D2E/DX2                !
 ! R55   R(29,31)                1.5177         estimate D2E/DX2                !
 ! R56   R(30,47)                1.5203         estimate D2E/DX2                !
 ! R57   R(31,34)                1.507          estimate D2E/DX2                !
 ! R58   R(31,49)                1.5048         estimate D2E/DX2                !
 ! R59   R(31,71)                1.8091         estimate D2E/DX2                !
 ! R60   R(32,33)                1.4379         estimate D2E/DX2                !
 ! R61   R(32,34)                1.3519         estimate D2E/DX2                !
 ! R62   R(33,36)                1.3727         estimate D2E/DX2                !
 ! R63   R(34,51)                1.4359         estimate D2E/DX2                !
 ! R64   R(35,36)                1.4335         estimate D2E/DX2                !
 ! R65   R(35,37)                1.428          estimate D2E/DX2                !
 ! R66   R(36,52)                1.4237         estimate D2E/DX2                !
 ! R67   R(37,39)                1.3714         estimate D2E/DX2                !
 ! R68   R(37,53)                1.4458         estimate D2E/DX2                !
 ! R69   R(38,39)                1.4335         estimate D2E/DX2                !
 ! R70   R(38,42)                1.4395         estimate D2E/DX2                !
 ! R71   R(39,57)                1.4381         estimate D2E/DX2                !
 ! R72   R(40,41)                1.4355         estimate D2E/DX2                !
 ! R73   R(40,42)                1.3766         estimate D2E/DX2                !
 ! R74   R(41,43)                1.3805         estimate D2E/DX2                !
 ! R75   R(42,58)                1.4371         estimate D2E/DX2                !
 ! R76   R(43,46)                1.4414         estimate D2E/DX2                !
 ! R77   R(43,59)                1.4354         estimate D2E/DX2                !
 ! R78   R(44,45)                1.4321         estimate D2E/DX2                !
 ! R79   R(44,46)                1.3794         estimate D2E/DX2                !
 ! R80   R(45,48)                1.3657         estimate D2E/DX2                !
 ! R81   R(46,61)                1.429          estimate D2E/DX2                !
 ! R82   R(47,48)                1.501          estimate D2E/DX2                !
 ! R83   R(47,50)                1.5008         estimate D2E/DX2                !
 ! R84   R(47,72)                1.8152         estimate D2E/DX2                !
 ! R85   R(48,62)                1.4232         estimate D2E/DX2                !
 ! R86   R(49,50)                1.3549         estimate D2E/DX2                !
 ! R87   R(49,54)                1.4309         estimate D2E/DX2                !
 ! R88   R(50,63)                1.4303         estimate D2E/DX2                !
 ! R89   R(51,52)                1.3864         estimate D2E/DX2                !
 ! R90   R(51,54)                1.4224         estimate D2E/DX2                !
 ! R91   R(52,53)                1.4325         estimate D2E/DX2                !
 ! R92   R(53,55)                1.3778         estimate D2E/DX2                !
 ! R93   R(54,56)                1.3858         estimate D2E/DX2                !
 ! R94   R(55,56)                1.439          estimate D2E/DX2                !
 ! R95   R(55,60)                1.4389         estimate D2E/DX2                !
 ! R96   R(56,64)                1.4211         estimate D2E/DX2                !
 ! R97   R(57,58)                1.432          estimate D2E/DX2                !
 ! R98   R(57,60)                1.383          estimate D2E/DX2                !
 ! R99   R(58,59)                1.3864         estimate D2E/DX2                !
 ! R100  R(59,65)                1.4429         estimate D2E/DX2                !
 ! R101  R(60,66)                1.4363         estimate D2E/DX2                !
 ! R102  R(61,62)                1.3912         estimate D2E/DX2                !
 ! R103  R(61,65)                1.436          estimate D2E/DX2                !
 ! R104  R(62,63)                1.4301         estimate D2E/DX2                !
 ! R105  R(63,64)                1.3792         estimate D2E/DX2                !
 ! R106  R(64,66)                1.4381         estimate D2E/DX2                !
 ! R107  R(65,66)                1.3821         estimate D2E/DX2                !
 ! A1    A(2,1,4)              107.27           estimate D2E/DX2                !
 ! A2    A(2,1,7)              112.5032         estimate D2E/DX2                !
 ! A3    A(2,1,67)             113.4603         estimate D2E/DX2                !
 ! A4    A(4,1,7)              103.7912         estimate D2E/DX2                !
 ! A5    A(4,1,67)             112.1659         estimate D2E/DX2                !
 ! A6    A(7,1,67)             107.2896         estimate D2E/DX2                !
 ! A7    A(1,2,3)              107.6464         estimate D2E/DX2                !
 ! A8    A(1,2,10)             112.2069         estimate D2E/DX2                !
 ! A9    A(1,2,68)             111.9895         estimate D2E/DX2                !
 ! A10   A(3,2,10)             102.4659         estimate D2E/DX2                !
 ! A11   A(3,2,68)             113.7745         estimate D2E/DX2                !
 ! A12   A(10,2,68)            108.4359         estimate D2E/DX2                !
 ! A13   A(2,3,5)              103.6049         estimate D2E/DX2                !
 ! A14   A(2,3,12)             106.2598         estimate D2E/DX2                !
 ! A15   A(2,3,69)             116.4939         estimate D2E/DX2                !
 ! A16   A(5,3,12)             105.7111         estimate D2E/DX2                !
 ! A17   A(5,3,69)             111.1965         estimate D2E/DX2                !
 ! A18   A(12,3,69)            112.6552         estimate D2E/DX2                !
 ! A19   A(1,4,5)              102.2572         estimate D2E/DX2                !
 ! A20   A(1,4,6)              106.0889         estimate D2E/DX2                !
 ! A21   A(1,4,73)             113.5481         estimate D2E/DX2                !
 ! A22   A(5,4,6)              113.1988         estimate D2E/DX2                !
 ! A23   A(5,4,73)             107.7113         estimate D2E/DX2                !
 ! A24   A(6,4,73)             113.5727         estimate D2E/DX2                !
 ! A25   A(3,5,4)              114.5634         estimate D2E/DX2                !
 ! A26   A(3,5,15)             119.625          estimate D2E/DX2                !
 ! A27   A(4,5,15)             124.3405         estimate D2E/DX2                !
 ! A28   A(4,6,8)              104.0311         estimate D2E/DX2                !
 ! A29   A(4,6,17)             114.8203         estimate D2E/DX2                !
 ! A30   A(4,6,74)             112.3648         estimate D2E/DX2                !
 ! A31   A(8,6,17)             109.452          estimate D2E/DX2                !
 ! A32   A(8,6,74)             108.4857         estimate D2E/DX2                !
 ! A33   A(17,6,74)            107.4998         estimate D2E/DX2                !
 ! A34   A(1,7,8)              111.6123         estimate D2E/DX2                !
 ! A35   A(1,7,9)              125.0089         estimate D2E/DX2                !
 ! A36   A(8,7,9)              119.8471         estimate D2E/DX2                !
 ! A37   A(6,8,7)              112.4327         estimate D2E/DX2                !
 ! A38   A(6,8,20)             121.3806         estimate D2E/DX2                !
 ! A39   A(7,8,20)             123.2779         estimate D2E/DX2                !
 ! A40   A(7,9,11)             115.6507         estimate D2E/DX2                !
 ! A41   A(7,9,22)             115.8841         estimate D2E/DX2                !
 ! A42   A(11,9,22)            118.8533         estimate D2E/DX2                !
 ! A43   A(2,10,11)            125.7926         estimate D2E/DX2                !
 ! A44   A(2,10,13)            111.8849         estimate D2E/DX2                !
 ! A45   A(11,10,13)           116.857          estimate D2E/DX2                !
 ! A46   A(9,11,10)            117.2251         estimate D2E/DX2                !
 ! A47   A(9,11,25)            117.4838         estimate D2E/DX2                !
 ! A48   A(10,11,25)           116.3729         estimate D2E/DX2                !
 ! A49   A(3,12,13)            109.0631         estimate D2E/DX2                !
 ! A50   A(3,12,14)            125.4168         estimate D2E/DX2                !
 ! A51   A(13,12,14)           119.0111         estimate D2E/DX2                !
 ! A52   A(10,13,12)           108.2778         estimate D2E/DX2                !
 ! A53   A(10,13,27)           125.2623         estimate D2E/DX2                !
 ! A54   A(12,13,27)           120.7034         estimate D2E/DX2                !
 ! A55   A(12,14,16)           116.4095         estimate D2E/DX2                !
 ! A56   A(12,14,29)           120.3366         estimate D2E/DX2                !
 ! A57   A(16,14,29)           121.5472         estimate D2E/DX2                !
 ! A58   A(5,15,16)            125.0557         estimate D2E/DX2                !
 ! A59   A(5,15,18)            118.0045         estimate D2E/DX2                !
 ! A60   A(16,15,18)           111.1601         estimate D2E/DX2                !
 ! A61   A(14,16,15)           105.6566         estimate D2E/DX2                !
 ! A62   A(14,16,32)           110.1327         estimate D2E/DX2                !
 ! A63   A(14,16,70)           109.6929         estimate D2E/DX2                !
 ! A64   A(15,16,32)           101.4056         estimate D2E/DX2                !
 ! A65   A(15,16,70)           116.7513         estimate D2E/DX2                !
 ! A66   A(32,16,70)           112.7086         estimate D2E/DX2                !
 ! A67   A(6,17,18)            120.5251         estimate D2E/DX2                !
 ! A68   A(6,17,19)            118.4694         estimate D2E/DX2                !
 ! A69   A(18,17,19)           118.5667         estimate D2E/DX2                !
 ! A70   A(15,18,17)           121.5603         estimate D2E/DX2                !
 ! A71   A(15,18,33)           106.3971         estimate D2E/DX2                !
 ! A72   A(17,18,33)           123.889          estimate D2E/DX2                !
 ! A73   A(17,19,21)           119.2794         estimate D2E/DX2                !
 ! A74   A(17,19,35)           116.5258         estimate D2E/DX2                !
 ! A75   A(21,19,35)           118.1759         estimate D2E/DX2                !
 ! A76   A(8,20,21)            119.5409         estimate D2E/DX2                !
 ! A77   A(8,20,23)            115.0518         estimate D2E/DX2                !
 ! A78   A(21,20,23)           120.3587         estimate D2E/DX2                !
 ! A79   A(19,21,20)           118.7335         estimate D2E/DX2                !
 ! A80   A(19,21,38)           118.5669         estimate D2E/DX2                !
 ! A81   A(20,21,38)           116.3186         estimate D2E/DX2                !
 ! A82   A(9,22,23)            121.9445         estimate D2E/DX2                !
 ! A83   A(9,22,24)            122.2249         estimate D2E/DX2                !
 ! A84   A(23,22,24)           107.2684         estimate D2E/DX2                !
 ! A85   A(20,23,22)           120.0272         estimate D2E/DX2                !
 ! A86   A(20,23,40)           121.9657         estimate D2E/DX2                !
 ! A87   A(22,23,40)           108.1291         estimate D2E/DX2                !
 ! A88   A(22,24,26)           119.1379         estimate D2E/DX2                !
 ! A89   A(22,24,41)           108.8218         estimate D2E/DX2                !
 ! A90   A(26,24,41)           120.4705         estimate D2E/DX2                !
 ! A91   A(11,25,26)           121.5007         estimate D2E/DX2                !
 ! A92   A(11,25,28)           122.5076         estimate D2E/DX2                !
 ! A93   A(26,25,28)           107.5224         estimate D2E/DX2                !
 ! A94   A(24,26,25)           119.2152         estimate D2E/DX2                !
 ! A95   A(24,26,44)           119.7071         estimate D2E/DX2                !
 ! A96   A(25,26,44)           108.8152         estimate D2E/DX2                !
 ! A97   A(13,27,28)           114.5557         estimate D2E/DX2                !
 ! A98   A(13,27,30)           119.0986         estimate D2E/DX2                !
 ! A99   A(28,27,30)           121.278          estimate D2E/DX2                !
 ! A100  A(25,28,27)           119.166          estimate D2E/DX2                !
 ! A101  A(25,28,45)           108.9463         estimate D2E/DX2                !
 ! A102  A(27,28,45)           120.085          estimate D2E/DX2                !
 ! A103  A(14,29,30)           119.3266         estimate D2E/DX2                !
 ! A104  A(14,29,31)           118.445          estimate D2E/DX2                !
 ! A105  A(30,29,31)           121.2053         estimate D2E/DX2                !
 ! A106  A(27,30,29)           119.5022         estimate D2E/DX2                !
 ! A107  A(27,30,47)           117.1611         estimate D2E/DX2                !
 ! A108  A(29,30,47)           122.0442         estimate D2E/DX2                !
 ! A109  A(29,31,34)           109.9403         estimate D2E/DX2                !
 ! A110  A(29,31,49)           110.9998         estimate D2E/DX2                !
 ! A111  A(29,31,71)           107.7419         estimate D2E/DX2                !
 ! A112  A(34,31,49)           100.7963         estimate D2E/DX2                !
 ! A113  A(34,31,71)           113.7607         estimate D2E/DX2                !
 ! A114  A(49,31,71)           113.5247         estimate D2E/DX2                !
 ! A115  A(16,32,33)           110.2656         estimate D2E/DX2                !
 ! A116  A(16,32,34)           122.5231         estimate D2E/DX2                !
 ! A117  A(33,32,34)           118.482          estimate D2E/DX2                !
 ! A118  A(18,33,32)           109.94           estimate D2E/DX2                !
 ! A119  A(18,33,36)           117.7467         estimate D2E/DX2                !
 ! A120  A(32,33,36)           122.15           estimate D2E/DX2                !
 ! A121  A(31,34,32)           122.7958         estimate D2E/DX2                !
 ! A122  A(31,34,51)           110.9997         estimate D2E/DX2                !
 ! A123  A(32,34,51)           119.624          estimate D2E/DX2                !
 ! A124  A(19,35,36)           122.291          estimate D2E/DX2                !
 ! A125  A(19,35,37)           122.1703         estimate D2E/DX2                !
 ! A126  A(36,35,37)           106.5742         estimate D2E/DX2                !
 ! A127  A(33,36,35)           119.5903         estimate D2E/DX2                !
 ! A128  A(33,36,52)           118.8504         estimate D2E/DX2                !
 ! A129  A(35,36,52)           109.6825         estimate D2E/DX2                !
 ! A130  A(35,37,39)           119.7454         estimate D2E/DX2                !
 ! A131  A(35,37,53)           108.3482         estimate D2E/DX2                !
 ! A132  A(39,37,53)           120.44           estimate D2E/DX2                !
 ! A133  A(21,38,39)           121.8921         estimate D2E/DX2                !
 ! A134  A(21,38,42)           122.386          estimate D2E/DX2                !
 ! A135  A(39,38,42)           106.6544         estimate D2E/DX2                !
 ! A136  A(37,39,38)           119.3357         estimate D2E/DX2                !
 ! A137  A(37,39,57)           120.2592         estimate D2E/DX2                !
 ! A138  A(38,39,57)           109.0133         estimate D2E/DX2                !
 ! A139  A(23,40,41)           109.2694         estimate D2E/DX2                !
 ! A140  A(23,40,42)           118.3376         estimate D2E/DX2                !
 ! A141  A(41,40,42)           121.024          estimate D2E/DX2                !
 ! A142  A(24,41,40)           106.2145         estimate D2E/DX2                !
 ! A143  A(24,41,43)           120.1381         estimate D2E/DX2                !
 ! A144  A(40,41,43)           119.4215         estimate D2E/DX2                !
 ! A145  A(38,42,40)           120.2701         estimate D2E/DX2                !
 ! A146  A(38,42,58)           108.7577         estimate D2E/DX2                !
 ! A147  A(40,42,58)           119.5828         estimate D2E/DX2                !
 ! A148  A(41,43,46)           119.2552         estimate D2E/DX2                !
 ! A149  A(41,43,59)           119.734          estimate D2E/DX2                !
 ! A150  A(46,43,59)           108.3041         estimate D2E/DX2                !
 ! A151  A(26,44,45)           106.8896         estimate D2E/DX2                !
 ! A152  A(26,44,46)           119.8328         estimate D2E/DX2                !
 ! A153  A(45,44,46)           120.4899         estimate D2E/DX2                !
 ! A154  A(28,45,44)           107.6845         estimate D2E/DX2                !
 ! A155  A(28,45,48)           119.9354         estimate D2E/DX2                !
 ! A156  A(44,45,48)           121.3547         estimate D2E/DX2                !
 ! A157  A(43,46,44)           120.5562         estimate D2E/DX2                !
 ! A158  A(43,46,61)           108.2522         estimate D2E/DX2                !
 ! A159  A(44,46,61)           118.5624         estimate D2E/DX2                !
 ! A160  A(30,47,48)           112.7607         estimate D2E/DX2                !
 ! A161  A(30,47,50)           110.7588         estimate D2E/DX2                !
 ! A162  A(30,47,72)           105.5879         estimate D2E/DX2                !
 ! A163  A(48,47,50)           101.2901         estimate D2E/DX2                !
 ! A164  A(48,47,72)           113.5863         estimate D2E/DX2                !
 ! A165  A(50,47,72)           113.0471         estimate D2E/DX2                !
 ! A166  A(45,48,47)           122.6744         estimate D2E/DX2                !
 ! A167  A(45,48,62)           118.3387         estimate D2E/DX2                !
 ! A168  A(47,48,62)           111.5555         estimate D2E/DX2                !
 ! A169  A(31,49,50)           122.7806         estimate D2E/DX2                !
 ! A170  A(31,49,54)           111.0962         estimate D2E/DX2                !
 ! A171  A(50,49,54)           118.9496         estimate D2E/DX2                !
 ! A172  A(47,50,49)           122.4336         estimate D2E/DX2                !
 ! A173  A(47,50,63)           110.2342         estimate D2E/DX2                !
 ! A174  A(49,50,63)           119.8986         estimate D2E/DX2                !
 ! A175  A(34,51,52)           121.249          estimate D2E/DX2                !
 ! A176  A(34,51,54)           108.1776         estimate D2E/DX2                !
 ! A177  A(52,51,54)           119.4913         estimate D2E/DX2                !
 ! A178  A(36,52,51)           118.6666         estimate D2E/DX2                !
 ! A179  A(36,52,53)           106.9554         estimate D2E/DX2                !
 ! A180  A(51,52,53)           121.1831         estimate D2E/DX2                !
 ! A181  A(37,53,52)           107.91           estimate D2E/DX2                !
 ! A182  A(37,53,55)           119.4005         estimate D2E/DX2                !
 ! A183  A(52,53,55)           119.5675         estimate D2E/DX2                !
 ! A184  A(49,54,51)           108.2953         estimate D2E/DX2                !
 ! A185  A(49,54,56)           121.5051         estimate D2E/DX2                !
 ! A186  A(51,54,56)           119.1996         estimate D2E/DX2                !
 ! A187  A(53,55,56)           118.9206         estimate D2E/DX2                !
 ! A188  A(53,55,60)           119.8074         estimate D2E/DX2                !
 ! A189  A(56,55,60)           108.8546         estimate D2E/DX2                !
 ! A190  A(54,56,55)           121.4486         estimate D2E/DX2                !
 ! A191  A(54,56,64)           119.3206         estimate D2E/DX2                !
 ! A192  A(55,56,64)           107.5005         estimate D2E/DX2                !
 ! A193  A(39,57,58)           107.5694         estimate D2E/DX2                !
 ! A194  A(39,57,60)           119.1563         estimate D2E/DX2                !
 ! A195  A(58,57,60)           120.0339         estimate D2E/DX2                !
 ! A196  A(42,58,57)           107.7526         estimate D2E/DX2                !
 ! A197  A(42,58,59)           119.3732         estimate D2E/DX2                !
 ! A198  A(57,58,59)           120.1928         estimate D2E/DX2                !
 ! A199  A(43,59,58)           120.6249         estimate D2E/DX2                !
 ! A200  A(43,59,65)           107.0674         estimate D2E/DX2                !
 ! A201  A(58,59,65)           119.7219         estimate D2E/DX2                !
 ! A202  A(55,60,57)           120.6348         estimate D2E/DX2                !
 ! A203  A(55,60,66)           106.7853         estimate D2E/DX2                !
 ! A204  A(57,60,66)           119.9131         estimate D2E/DX2                !
 ! A205  A(46,61,62)           120.1121         estimate D2E/DX2                !
 ! A206  A(46,61,65)           107.5947         estimate D2E/DX2                !
 ! A207  A(62,61,65)           120.0248         estimate D2E/DX2                !
 ! A208  A(48,62,61)           121.08           estimate D2E/DX2                !
 ! A209  A(48,62,63)           107.3342         estimate D2E/DX2                !
 ! A210  A(61,62,63)           120.2654         estimate D2E/DX2                !
 ! A211  A(50,63,62)           109.0464         estimate D2E/DX2                !
 ! A212  A(50,63,64)           121.6583         estimate D2E/DX2                !
 ! A213  A(62,63,64)           119.2524         estimate D2E/DX2                !
 ! A214  A(56,64,63)           118.6267         estimate D2E/DX2                !
 ! A215  A(56,64,66)           108.4071         estimate D2E/DX2                !
 ! A216  A(63,64,66)           120.949          estimate D2E/DX2                !
 ! A217  A(59,65,61)           108.7261         estimate D2E/DX2                !
 ! A218  A(59,65,66)           119.7413         estimate D2E/DX2                !
 ! A219  A(61,65,66)           119.7615         estimate D2E/DX2                !
 ! A220  A(60,66,64)           108.4027         estimate D2E/DX2                !
 ! A221  A(60,66,65)           120.2469         estimate D2E/DX2                !
 ! A222  A(64,66,65)           119.6039         estimate D2E/DX2                !
 ! D1    D(4,1,2,3)             -2.7079         estimate D2E/DX2                !
 ! D2    D(4,1,2,10)          -114.703          estimate D2E/DX2                !
 ! D3    D(4,1,2,68)           123.0732         estimate D2E/DX2                !
 ! D4    D(7,1,2,3)            110.8083         estimate D2E/DX2                !
 ! D5    D(7,1,2,10)            -1.1868         estimate D2E/DX2                !
 ! D6    D(7,1,2,68)          -123.4105         estimate D2E/DX2                !
 ! D7    D(67,1,2,3)          -127.1539         estimate D2E/DX2                !
 ! D8    D(67,1,2,10)          120.851          estimate D2E/DX2                !
 ! D9    D(67,1,2,68)           -1.3727         estimate D2E/DX2                !
 ! D10   D(2,1,4,5)             14.2544         estimate D2E/DX2                !
 ! D11   D(2,1,4,6)            133.084          estimate D2E/DX2                !
 ! D12   D(2,1,4,73)          -101.485          estimate D2E/DX2                !
 ! D13   D(7,1,4,5)           -105.0214         estimate D2E/DX2                !
 ! D14   D(7,1,4,6)             13.8081         estimate D2E/DX2                !
 ! D15   D(7,1,4,73)           139.2392         estimate D2E/DX2                !
 ! D16   D(67,1,4,5)           139.4827         estimate D2E/DX2                !
 ! D17   D(67,1,4,6)          -101.6878         estimate D2E/DX2                !
 ! D18   D(67,1,4,73)           23.7433         estimate D2E/DX2                !
 ! D19   D(2,1,7,8)           -129.3772         estimate D2E/DX2                !
 ! D20   D(2,1,7,9)             29.2259         estimate D2E/DX2                !
 ! D21   D(4,1,7,8)            -13.7464         estimate D2E/DX2                !
 ! D22   D(4,1,7,9)            144.8567         estimate D2E/DX2                !
 ! D23   D(67,1,7,8)           105.1533         estimate D2E/DX2                !
 ! D24   D(67,1,7,9)           -96.2436         estimate D2E/DX2                !
 ! D25   D(1,2,3,5)            -10.1099         estimate D2E/DX2                !
 ! D26   D(1,2,3,12)          -121.2591         estimate D2E/DX2                !
 ! D27   D(1,2,3,69)           112.3215         estimate D2E/DX2                !
 ! D28   D(10,2,3,5)           108.3481         estimate D2E/DX2                !
 ! D29   D(10,2,3,12)           -2.8011         estimate D2E/DX2                !
 ! D30   D(10,2,3,69)         -129.2205         estimate D2E/DX2                !
 ! D31   D(68,2,3,5)          -134.8249         estimate D2E/DX2                !
 ! D32   D(68,2,3,12)          114.0259         estimate D2E/DX2                !
 ! D33   D(68,2,3,69)          -12.3935         estimate D2E/DX2                !
 ! D34   D(1,2,10,11)          -26.7279         estimate D2E/DX2                !
 ! D35   D(1,2,10,13)          126.1246         estimate D2E/DX2                !
 ! D36   D(3,2,10,11)         -141.9154         estimate D2E/DX2                !
 ! D37   D(3,2,10,13)           10.9371         estimate D2E/DX2                !
 ! D38   D(68,2,10,11)          97.494          estimate D2E/DX2                !
 ! D39   D(68,2,10,13)        -109.6535         estimate D2E/DX2                !
 ! D40   D(2,3,5,4)             21.1749         estimate D2E/DX2                !
 ! D41   D(2,3,5,15)          -145.586          estimate D2E/DX2                !
 ! D42   D(12,3,5,4)           132.7262         estimate D2E/DX2                !
 ! D43   D(12,3,5,15)          -34.0347         estimate D2E/DX2                !
 ! D44   D(69,3,5,4)          -104.7087         estimate D2E/DX2                !
 ! D45   D(69,3,5,15)           88.5303         estimate D2E/DX2                !
 ! D46   D(2,3,12,13)           -5.9903         estimate D2E/DX2                !
 ! D47   D(2,3,12,14)          145.0969         estimate D2E/DX2                !
 ! D48   D(5,3,12,13)         -115.6588         estimate D2E/DX2                !
 ! D49   D(5,3,12,14)           35.4284         estimate D2E/DX2                !
 ! D50   D(69,3,12,13)         122.7124         estimate D2E/DX2                !
 ! D51   D(69,3,12,14)         -86.2004         estimate D2E/DX2                !
 ! D52   D(1,4,5,3)            -22.5914         estimate D2E/DX2                !
 ! D53   D(1,4,5,15)           143.457          estimate D2E/DX2                !
 ! D54   D(6,4,5,3)           -136.2728         estimate D2E/DX2                !
 ! D55   D(6,4,5,15)            29.7756         estimate D2E/DX2                !
 ! D56   D(73,4,5,3)            97.3135         estimate D2E/DX2                !
 ! D57   D(73,4,5,15)          -96.638          estimate D2E/DX2                !
 ! D58   D(1,4,6,8)             -9.4989         estimate D2E/DX2                !
 ! D59   D(1,4,6,17)          -129.0877         estimate D2E/DX2                !
 ! D60   D(1,4,6,74)           107.6449         estimate D2E/DX2                !
 ! D61   D(5,4,6,8)            101.8475         estimate D2E/DX2                !
 ! D62   D(5,4,6,17)           -17.7413         estimate D2E/DX2                !
 ! D63   D(5,4,6,74)          -141.0087         estimate D2E/DX2                !
 ! D64   D(73,4,6,8)          -134.9148         estimate D2E/DX2                !
 ! D65   D(73,4,6,17)          105.4964         estimate D2E/DX2                !
 ! D66   D(73,4,6,74)          -17.771          estimate D2E/DX2                !
 ! D67   D(3,5,15,16)           -1.4581         estimate D2E/DX2                !
 ! D68   D(3,5,15,18)          149.3039         estimate D2E/DX2                !
 ! D69   D(4,5,15,16)         -166.847          estimate D2E/DX2                !
 ! D70   D(4,5,15,18)          -16.0849         estimate D2E/DX2                !
 ! D71   D(4,6,8,7)              1.2752         estimate D2E/DX2                !
 ! D72   D(4,6,8,20)          -160.0114         estimate D2E/DX2                !
 ! D73   D(17,6,8,7)           124.4459         estimate D2E/DX2                !
 ! D74   D(17,6,8,20)          -36.8407         estimate D2E/DX2                !
 ! D75   D(74,6,8,7)          -118.5323         estimate D2E/DX2                !
 ! D76   D(74,6,8,20)           80.1811         estimate D2E/DX2                !
 ! D77   D(4,6,17,18)           -5.0958         estimate D2E/DX2                !
 ! D78   D(4,6,17,19)          156.9342         estimate D2E/DX2                !
 ! D79   D(8,6,17,18)         -121.6237         estimate D2E/DX2                !
 ! D80   D(8,6,17,19)           40.4063         estimate D2E/DX2                !
 ! D81   D(74,6,17,18)         120.735          estimate D2E/DX2                !
 ! D82   D(74,6,17,19)         -77.235          estimate D2E/DX2                !
 ! D83   D(1,7,8,6)              8.1826         estimate D2E/DX2                !
 ! D84   D(1,7,8,20)           169.0576         estimate D2E/DX2                !
 ! D85   D(9,7,8,6)           -151.6654         estimate D2E/DX2                !
 ! D86   D(9,7,8,20)             9.2096         estimate D2E/DX2                !
 ! D87   D(1,7,9,11)           -30.291          estimate D2E/DX2                !
 ! D88   D(1,7,9,22)          -176.1878         estimate D2E/DX2                !
 ! D89   D(8,7,9,11)           126.6893         estimate D2E/DX2                !
 ! D90   D(8,7,9,22)           -19.2076         estimate D2E/DX2                !
 ! D91   D(6,8,20,21)           13.4731         estimate D2E/DX2                !
 ! D92   D(6,8,20,23)          168.4511         estimate D2E/DX2                !
 ! D93   D(7,8,20,21)         -145.7503         estimate D2E/DX2                !
 ! D94   D(7,8,20,23)            9.2276         estimate D2E/DX2                !
 ! D95   D(7,9,11,10)            1.2793         estimate D2E/DX2                !
 ! D96   D(7,9,11,25)         -144.8958         estimate D2E/DX2                !
 ! D97   D(22,9,11,10)         146.1143         estimate D2E/DX2                !
 ! D98   D(22,9,11,25)          -0.0608         estimate D2E/DX2                !
 ! D99   D(7,9,22,23)           11.3492         estimate D2E/DX2                !
 ! D100  D(7,9,22,24)          155.1099         estimate D2E/DX2                !
 ! D101  D(11,9,22,23)        -133.4062         estimate D2E/DX2                !
 ! D102  D(11,9,22,24)          10.3544         estimate D2E/DX2                !
 ! D103  D(2,10,11,9)           27.6507         estimate D2E/DX2                !
 ! D104  D(2,10,11,25)         174.2013         estimate D2E/DX2                !
 ! D105  D(13,10,11,9)        -124.0166         estimate D2E/DX2                !
 ! D106  D(13,10,11,25)         22.534          estimate D2E/DX2                !
 ! D107  D(2,10,13,12)         -15.3427         estimate D2E/DX2                !
 ! D108  D(2,10,13,27)        -168.4797         estimate D2E/DX2                !
 ! D109  D(11,10,13,12)        140.147          estimate D2E/DX2                !
 ! D110  D(11,10,13,27)        -12.99           estimate D2E/DX2                !
 ! D111  D(9,11,25,26)         -10.2107         estimate D2E/DX2                !
 ! D112  D(9,11,25,28)         133.8113         estimate D2E/DX2                !
 ! D113  D(10,11,25,26)       -156.6727         estimate D2E/DX2                !
 ! D114  D(10,11,25,28)        -12.6507         estimate D2E/DX2                !
 ! D115  D(3,12,13,10)          12.9066         estimate D2E/DX2                !
 ! D116  D(3,12,13,27)         167.496          estimate D2E/DX2                !
 ! D117  D(14,12,13,10)       -140.3147         estimate D2E/DX2                !
 ! D118  D(14,12,13,27)         14.2748         estimate D2E/DX2                !
 ! D119  D(3,12,14,16)           0.547          estimate D2E/DX2                !
 ! D120  D(3,12,14,29)        -164.7979         estimate D2E/DX2                !
 ! D121  D(13,12,14,16)        149.045          estimate D2E/DX2                !
 ! D122  D(13,12,14,29)        -16.2999         estimate D2E/DX2                !
 ! D123  D(10,13,27,28)         -8.1403         estimate D2E/DX2                !
 ! D124  D(10,13,27,30)        147.0304         estimate D2E/DX2                !
 ! D125  D(12,13,27,28)       -158.2057         estimate D2E/DX2                !
 ! D126  D(12,13,27,30)         -3.0349         estimate D2E/DX2                !
 ! D127  D(12,14,16,15)        -35.1758         estimate D2E/DX2                !
 ! D128  D(12,14,16,32)       -143.9285         estimate D2E/DX2                !
 ! D129  D(12,14,16,70)         91.4662         estimate D2E/DX2                !
 ! D130  D(29,14,16,15)        129.9779         estimate D2E/DX2                !
 ! D131  D(29,14,16,32)         21.2252         estimate D2E/DX2                !
 ! D132  D(29,14,16,70)       -103.38           estimate D2E/DX2                !
 ! D133  D(12,14,29,30)          7.2051         estimate D2E/DX2                !
 ! D134  D(12,14,29,31)        175.7802         estimate D2E/DX2                !
 ! D135  D(16,14,29,30)       -157.3748         estimate D2E/DX2                !
 ! D136  D(16,14,29,31)         11.2002         estimate D2E/DX2                !
 ! D137  D(5,15,16,14)          37.9682         estimate D2E/DX2                !
 ! D138  D(5,15,16,32)         152.8785         estimate D2E/DX2                !
 ! D139  D(5,15,16,70)         -84.2527         estimate D2E/DX2                !
 ! D140  D(18,15,16,14)       -114.4881         estimate D2E/DX2                !
 ! D141  D(18,15,16,32)          0.4223         estimate D2E/DX2                !
 ! D142  D(18,15,16,70)        123.291          estimate D2E/DX2                !
 ! D143  D(5,15,18,17)         -10.786          estimate D2E/DX2                !
 ! D144  D(5,15,18,33)        -160.4261         estimate D2E/DX2                !
 ! D145  D(16,15,18,17)        143.8265         estimate D2E/DX2                !
 ! D146  D(16,15,18,33)         -5.8136         estimate D2E/DX2                !
 ! D147  D(14,16,32,33)        116.686          estimate D2E/DX2                !
 ! D148  D(14,16,32,34)        -30.2787         estimate D2E/DX2                !
 ! D149  D(15,16,32,33)          5.1442         estimate D2E/DX2                !
 ! D150  D(15,16,32,34)       -141.8205         estimate D2E/DX2                !
 ! D151  D(70,16,32,33)       -120.4612         estimate D2E/DX2                !
 ! D152  D(70,16,32,34)         92.5742         estimate D2E/DX2                !
 ! D153  D(6,17,18,15)          20.7478         estimate D2E/DX2                !
 ! D154  D(6,17,18,33)         165.0083         estimate D2E/DX2                !
 ! D155  D(19,17,18,15)       -141.265          estimate D2E/DX2                !
 ! D156  D(19,17,18,33)          2.9955         estimate D2E/DX2                !
 ! D157  D(6,17,19,21)         -21.7564         estimate D2E/DX2                !
 ! D158  D(6,17,19,35)        -173.9952         estimate D2E/DX2                !
 ! D159  D(18,17,19,21)        140.6299         estimate D2E/DX2                !
 ! D160  D(18,17,19,35)        -11.6089         estimate D2E/DX2                !
 ! D161  D(15,18,33,32)          9.0841         estimate D2E/DX2                !
 ! D162  D(15,18,33,36)        155.2306         estimate D2E/DX2                !
 ! D163  D(17,18,33,32)       -139.6636         estimate D2E/DX2                !
 ! D164  D(17,18,33,36)          6.4828         estimate D2E/DX2                !
 ! D165  D(17,19,21,20)         -4.6079         estimate D2E/DX2                !
 ! D166  D(17,19,21,38)       -155.5595         estimate D2E/DX2                !
 ! D167  D(35,19,21,20)        147.1773         estimate D2E/DX2                !
 ! D168  D(35,19,21,38)         -3.7744         estimate D2E/DX2                !
 ! D169  D(17,19,35,36)         11.4364         estimate D2E/DX2                !
 ! D170  D(17,19,35,37)        154.2009         estimate D2E/DX2                !
 ! D171  D(21,19,35,36)       -141.1186         estimate D2E/DX2                !
 ! D172  D(21,19,35,37)          1.6459         estimate D2E/DX2                !
 ! D173  D(8,20,21,19)           9.0619         estimate D2E/DX2                !
 ! D174  D(8,20,21,38)         160.6535         estimate D2E/DX2                !
 ! D175  D(23,20,21,19)       -144.5744         estimate D2E/DX2                !
 ! D176  D(23,20,21,38)          7.0172         estimate D2E/DX2                !
 ! D177  D(8,20,23,22)         -17.0189         estimate D2E/DX2                !
 ! D178  D(8,20,23,40)        -158.6762         estimate D2E/DX2                !
 ! D179  D(21,20,23,22)        137.738          estimate D2E/DX2                !
 ! D180  D(21,20,23,40)         -3.9193         estimate D2E/DX2                !
 ! D181  D(19,21,38,39)          3.455          estimate D2E/DX2                !
 ! D182  D(19,21,38,42)        146.0544         estimate D2E/DX2                !
 ! D183  D(20,21,38,39)       -148.1858         estimate D2E/DX2                !
 ! D184  D(20,21,38,42)         -5.5864         estimate D2E/DX2                !
 ! D185  D(9,22,23,20)           7.0621         estimate D2E/DX2                !
 ! D186  D(9,22,23,40)         153.435          estimate D2E/DX2                !
 ! D187  D(24,22,23,20)       -141.3568         estimate D2E/DX2                !
 ! D188  D(24,22,23,40)          5.0161         estimate D2E/DX2                !
 ! D189  D(9,22,24,26)         -10.4593         estimate D2E/DX2                !
 ! D190  D(9,22,24,41)        -153.913          estimate D2E/DX2                !
 ! D191  D(23,22,24,26)        137.8513         estimate D2E/DX2                !
 ! D192  D(23,22,24,41)         -5.6024         estimate D2E/DX2                !
 ! D193  D(20,23,40,41)        142.9681         estimate D2E/DX2                !
 ! D194  D(20,23,40,42)         -1.0159         estimate D2E/DX2                !
 ! D195  D(22,23,40,41)         -2.6185         estimate D2E/DX2                !
 ! D196  D(22,23,40,42)       -146.6025         estimate D2E/DX2                !
 ! D197  D(22,24,26,25)         -0.032          estimate D2E/DX2                !
 ! D198  D(22,24,26,44)       -138.149          estimate D2E/DX2                !
 ! D199  D(41,24,26,25)        139.1282         estimate D2E/DX2                !
 ! D200  D(41,24,26,44)          1.0111         estimate D2E/DX2                !
 ! D201  D(22,24,41,40)          3.9656         estimate D2E/DX2                !
 ! D202  D(22,24,41,43)        143.4631         estimate D2E/DX2                !
 ! D203  D(26,24,41,40)       -138.9164         estimate D2E/DX2                !
 ! D204  D(26,24,41,43)          0.5811         estimate D2E/DX2                !
 ! D205  D(11,25,26,24)         10.3056         estimate D2E/DX2                !
 ! D206  D(11,25,26,44)        152.5277         estimate D2E/DX2                !
 ! D207  D(28,25,26,24)       -138.3932         estimate D2E/DX2                !
 ! D208  D(28,25,26,44)          3.8289         estimate D2E/DX2                !
 ! D209  D(11,25,28,27)         -8.923          estimate D2E/DX2                !
 ! D210  D(11,25,28,45)       -151.9137         estimate D2E/DX2                !
 ! D211  D(26,25,28,27)        139.3903         estimate D2E/DX2                !
 ! D212  D(26,25,28,45)         -3.6005         estimate D2E/DX2                !
 ! D213  D(24,26,44,45)        139.4578         estimate D2E/DX2                !
 ! D214  D(24,26,44,46)         -2.2981         estimate D2E/DX2                !
 ! D215  D(25,26,44,45)         -2.5481         estimate D2E/DX2                !
 ! D216  D(25,26,44,46)       -144.304          estimate D2E/DX2                !
 ! D217  D(13,27,28,25)         18.5416         estimate D2E/DX2                !
 ! D218  D(13,27,28,45)        157.3961         estimate D2E/DX2                !
 ! D219  D(30,27,28,25)       -136.0345         estimate D2E/DX2                !
 ! D220  D(30,27,28,45)          2.82           estimate D2E/DX2                !
 ! D221  D(13,27,30,29)         -6.0984         estimate D2E/DX2                !
 ! D222  D(13,27,30,47)       -173.3854         estimate D2E/DX2                !
 ! D223  D(28,27,30,29)        147.3574         estimate D2E/DX2                !
 ! D224  D(28,27,30,47)        -19.9297         estimate D2E/DX2                !
 ! D225  D(25,28,45,44)          2.0469         estimate D2E/DX2                !
 ! D226  D(25,28,45,48)        146.5184         estimate D2E/DX2                !
 ! D227  D(27,28,45,44)       -140.547          estimate D2E/DX2                !
 ! D228  D(27,28,45,48)          3.9245         estimate D2E/DX2                !
 ! D229  D(14,29,30,27)          4.1113         estimate D2E/DX2                !
 ! D230  D(14,29,30,47)        170.7557         estimate D2E/DX2                !
 ! D231  D(31,29,30,27)       -164.1392         estimate D2E/DX2                !
 ! D232  D(31,29,30,47)          2.5052         estimate D2E/DX2                !
 ! D233  D(14,29,31,34)        -34.9633         estimate D2E/DX2                !
 ! D234  D(14,29,31,49)       -145.616          estimate D2E/DX2                !
 ! D235  D(14,29,31,71)         89.5148         estimate D2E/DX2                !
 ! D236  D(30,29,31,34)        133.3879         estimate D2E/DX2                !
 ! D237  D(30,29,31,49)         22.7353         estimate D2E/DX2                !
 ! D238  D(30,29,31,71)       -102.134          estimate D2E/DX2                !
 ! D239  D(27,30,47,48)         28.7227         estimate D2E/DX2                !
 ! D240  D(27,30,47,50)        141.4333         estimate D2E/DX2                !
 ! D241  D(27,30,47,72)        -95.8559         estimate D2E/DX2                !
 ! D242  D(29,30,47,48)       -138.218          estimate D2E/DX2                !
 ! D243  D(29,30,47,50)        -25.5074         estimate D2E/DX2                !
 ! D244  D(29,30,47,72)         97.2034         estimate D2E/DX2                !
 ! D245  D(29,31,34,32)         27.8011         estimate D2E/DX2                !
 ! D246  D(29,31,34,51)       -123.5064         estimate D2E/DX2                !
 ! D247  D(49,31,34,32)        145.0123         estimate D2E/DX2                !
 ! D248  D(49,31,34,51)         -6.2952         estimate D2E/DX2                !
 ! D249  D(71,31,34,32)        -93.1228         estimate D2E/DX2                !
 ! D250  D(71,31,34,51)        115.5698         estimate D2E/DX2                !
 ! D251  D(29,31,49,50)        -25.4647         estimate D2E/DX2                !
 ! D252  D(29,31,49,54)        124.4778         estimate D2E/DX2                !
 ! D253  D(34,31,49,50)       -141.8935         estimate D2E/DX2                !
 ! D254  D(34,31,49,54)          8.0489         estimate D2E/DX2                !
 ! D255  D(71,31,49,50)         96.0758         estimate D2E/DX2                !
 ! D256  D(71,31,49,54)       -113.9817         estimate D2E/DX2                !
 ! D257  D(16,32,33,18)         -9.2311         estimate D2E/DX2                !
 ! D258  D(16,32,33,36)       -153.618          estimate D2E/DX2                !
 ! D259  D(34,32,33,18)        139.2381         estimate D2E/DX2                !
 ! D260  D(34,32,33,36)         -5.1488         estimate D2E/DX2                !
 ! D261  D(16,32,34,31)          5.5393         estimate D2E/DX2                !
 ! D262  D(16,32,34,51)        154.5004         estimate D2E/DX2                !
 ! D263  D(33,32,34,31)       -138.8813         estimate D2E/DX2                !
 ! D264  D(33,32,34,51)         10.0798         estimate D2E/DX2                !
 ! D265  D(18,33,36,35)         -6.8234         estimate D2E/DX2                !
 ! D266  D(18,33,36,52)       -145.8523         estimate D2E/DX2                !
 ! D267  D(32,33,36,35)        134.9684         estimate D2E/DX2                !
 ! D268  D(32,33,36,52)         -4.0605         estimate D2E/DX2                !
 ! D269  D(31,34,51,52)        146.1393         estimate D2E/DX2                !
 ! D270  D(31,34,51,54)          2.4982         estimate D2E/DX2                !
 ! D271  D(32,34,51,52)         -6.1979         estimate D2E/DX2                !
 ! D272  D(32,34,51,54)       -149.8389         estimate D2E/DX2                !
 ! D273  D(19,35,36,33)         -2.2056         estimate D2E/DX2                !
 ! D274  D(19,35,36,52)        140.2097         estimate D2E/DX2                !
 ! D275  D(37,35,36,33)       -149.9027         estimate D2E/DX2                !
 ! D276  D(37,35,36,52)         -7.4874         estimate D2E/DX2                !
 ! D277  D(19,35,37,39)          0.98           estimate D2E/DX2                !
 ! D278  D(19,35,37,53)       -142.5621         estimate D2E/DX2                !
 ! D279  D(36,35,37,39)        148.7252         estimate D2E/DX2                !
 ! D280  D(36,35,37,53)          5.1831         estimate D2E/DX2                !
 ! D281  D(33,36,52,51)          7.9751         estimate D2E/DX2                !
 ! D282  D(33,36,52,53)        149.5673         estimate D2E/DX2                !
 ! D283  D(35,36,52,51)       -134.7569         estimate D2E/DX2                !
 ! D284  D(35,36,52,53)          6.8352         estimate D2E/DX2                !
 ! D285  D(35,37,39,38)         -1.4117         estimate D2E/DX2                !
 ! D286  D(35,37,39,57)       -140.9221         estimate D2E/DX2                !
 ! D287  D(53,37,39,38)        137.7296         estimate D2E/DX2                !
 ! D288  D(53,37,39,57)         -1.7808         estimate D2E/DX2                !
 ! D289  D(35,37,53,52)         -1.0894         estimate D2E/DX2                !
 ! D290  D(35,37,53,55)        139.9291         estimate D2E/DX2                !
 ! D291  D(39,37,53,52)       -144.3324         estimate D2E/DX2                !
 ! D292  D(39,37,53,55)         -3.3139         estimate D2E/DX2                !
 ! D293  D(21,38,39,37)         -0.8436         estimate D2E/DX2                !
 ! D294  D(21,38,39,57)        142.7714         estimate D2E/DX2                !
 ! D295  D(42,38,39,37)       -148.4746         estimate D2E/DX2                !
 ! D296  D(42,38,39,57)         -4.8596         estimate D2E/DX2                !
 ! D297  D(21,38,42,40)          0.8877         estimate D2E/DX2                !
 ! D298  D(21,38,42,58)       -142.4233         estimate D2E/DX2                !
 ! D299  D(39,38,42,40)        148.3213         estimate D2E/DX2                !
 ! D300  D(39,38,42,58)          5.0104         estimate D2E/DX2                !
 ! D301  D(37,39,57,58)        146.1126         estimate D2E/DX2                !
 ! D302  D(37,39,57,60)          5.0514         estimate D2E/DX2                !
 ! D303  D(38,39,57,58)          2.8901         estimate D2E/DX2                !
 ! D304  D(38,39,57,60)       -138.1711         estimate D2E/DX2                !
 ! D305  D(23,40,41,24)         -0.845          estimate D2E/DX2                !
 ! D306  D(23,40,41,43)       -140.6906         estimate D2E/DX2                !
 ! D307  D(42,40,41,24)        142.0025         estimate D2E/DX2                !
 ! D308  D(42,40,41,43)          2.1569         estimate D2E/DX2                !
 ! D309  D(23,40,42,38)          2.5554         estimate D2E/DX2                !
 ! D310  D(23,40,42,58)        141.973          estimate D2E/DX2                !
 ! D311  D(41,40,42,38)       -137.0743         estimate D2E/DX2                !
 ! D312  D(41,40,42,58)          2.3432         estimate D2E/DX2                !
 ! D313  D(24,41,43,46)         -0.9013         estimate D2E/DX2                !
 ! D314  D(24,41,43,59)       -138.1662         estimate D2E/DX2                !
 ! D315  D(40,41,43,46)        133.3744         estimate D2E/DX2                !
 ! D316  D(40,41,43,59)         -3.8905         estimate D2E/DX2                !
 ! D317  D(38,42,58,57)         -3.2918         estimate D2E/DX2                !
 ! D318  D(38,42,58,59)        138.536          estimate D2E/DX2                !
 ! D319  D(40,42,58,57)       -146.8959         estimate D2E/DX2                !
 ! D320  D(40,42,58,59)         -5.0682         estimate D2E/DX2                !
 ! D321  D(41,43,46,44)         -0.3972         estimate D2E/DX2                !
 ! D322  D(41,43,46,61)       -141.5967         estimate D2E/DX2                !
 ! D323  D(59,43,46,44)        141.238          estimate D2E/DX2                !
 ! D324  D(59,43,46,61)          0.0386         estimate D2E/DX2                !
 ! D325  D(41,43,59,58)          1.1435         estimate D2E/DX2                !
 ! D326  D(41,43,59,65)        142.8128         estimate D2E/DX2                !
 ! D327  D(46,43,59,58)       -140.2765         estimate D2E/DX2                !
 ! D328  D(46,43,59,65)          1.3928         estimate D2E/DX2                !
 ! D329  D(26,44,45,28)          0.3382         estimate D2E/DX2                !
 ! D330  D(26,44,45,48)       -143.5261         estimate D2E/DX2                !
 ! D331  D(46,44,45,28)        141.7915         estimate D2E/DX2                !
 ! D332  D(46,44,45,48)         -2.0728         estimate D2E/DX2                !
 ! D333  D(26,44,46,43)          1.9859         estimate D2E/DX2                !
 ! D334  D(26,44,46,61)        139.3339         estimate D2E/DX2                !
 ! D335  D(45,44,46,43)       -134.5924         estimate D2E/DX2                !
 ! D336  D(45,44,46,61)          2.7556         estimate D2E/DX2                !
 ! D337  D(28,45,48,47)          7.5871         estimate D2E/DX2                !
 ! D338  D(28,45,48,62)       -139.7432         estimate D2E/DX2                !
 ! D339  D(44,45,48,47)        147.1715         estimate D2E/DX2                !
 ! D340  D(44,45,48,62)         -0.1588         estimate D2E/DX2                !
 ! D341  D(43,46,61,62)        140.7895         estimate D2E/DX2                !
 ! D342  D(43,46,61,65)         -1.4655         estimate D2E/DX2                !
 ! D343  D(44,46,61,62)         -1.3048         estimate D2E/DX2                !
 ! D344  D(44,46,61,65)       -143.5597         estimate D2E/DX2                !
 ! D345  D(30,47,48,45)        -23.5046         estimate D2E/DX2                !
 ! D346  D(30,47,48,62)        125.7762         estimate D2E/DX2                !
 ! D347  D(50,47,48,45)       -141.9102         estimate D2E/DX2                !
 ! D348  D(50,47,48,62)          7.3707         estimate D2E/DX2                !
 ! D349  D(72,47,48,45)         96.5717         estimate D2E/DX2                !
 ! D350  D(72,47,48,62)       -114.1475         estimate D2E/DX2                !
 ! D351  D(30,47,50,49)         23.3188         estimate D2E/DX2                !
 ! D352  D(30,47,50,63)       -126.4115         estimate D2E/DX2                !
 ! D353  D(48,47,50,49)        143.1588         estimate D2E/DX2                !
 ! D354  D(48,47,50,63)         -6.5716         estimate D2E/DX2                !
 ! D355  D(72,47,50,49)        -94.9469         estimate D2E/DX2                !
 ! D356  D(72,47,50,63)        115.3228         estimate D2E/DX2                !
 ! D357  D(45,48,62,61)          1.6247         estimate D2E/DX2                !
 ! D358  D(45,48,62,63)        145.198          estimate D2E/DX2                !
 ! D359  D(47,48,62,61)       -149.1306         estimate D2E/DX2                !
 ! D360  D(47,48,62,63)         -5.5572         estimate D2E/DX2                !
 ! D361  D(31,49,50,47)          2.1238         estimate D2E/DX2                !
 ! D362  D(31,49,50,63)        149.06           estimate D2E/DX2                !
 ! D363  D(54,49,50,47)       -145.5981         estimate D2E/DX2                !
 ! D364  D(54,49,50,63)          1.3381         estimate D2E/DX2                !
 ! D365  D(31,49,54,51)         -7.1222         estimate D2E/DX2                !
 ! D366  D(31,49,54,56)       -150.7628         estimate D2E/DX2                !
 ! D367  D(50,49,54,51)        144.1115         estimate D2E/DX2                !
 ! D368  D(50,49,54,56)          0.4709         estimate D2E/DX2                !
 ! D369  D(47,50,63,62)          3.7264         estimate D2E/DX2                !
 ! D370  D(47,50,63,64)        148.8321         estimate D2E/DX2                !
 ! D371  D(49,50,63,62)       -146.8832         estimate D2E/DX2                !
 ! D372  D(49,50,63,64)         -1.7775         estimate D2E/DX2                !
 ! D373  D(34,51,52,36)         -3.0753         estimate D2E/DX2                !
 ! D374  D(34,51,52,53)       -139.0792         estimate D2E/DX2                !
 ! D375  D(54,51,52,36)        136.6014         estimate D2E/DX2                !
 ! D376  D(54,51,52,53)          0.5975         estimate D2E/DX2                !
 ! D377  D(34,51,54,49)          2.7923         estimate D2E/DX2                !
 ! D378  D(34,51,54,56)        147.4092         estimate D2E/DX2                !
 ! D379  D(52,51,54,49)       -141.5968         estimate D2E/DX2                !
 ! D380  D(52,51,54,56)          3.0201         estimate D2E/DX2                !
 ! D381  D(36,52,53,37)         -3.4839         estimate D2E/DX2                !
 ! D382  D(36,52,53,55)       -144.4259         estimate D2E/DX2                !
 ! D383  D(51,52,53,37)        136.9354         estimate D2E/DX2                !
 ! D384  D(51,52,53,55)         -4.0066         estimate D2E/DX2                !
 ! D385  D(37,53,55,56)       -132.8437         estimate D2E/DX2                !
 ! D386  D(37,53,55,60)          5.06           estimate D2E/DX2                !
 ! D387  D(52,53,55,56)          3.668          estimate D2E/DX2                !
 ! D388  D(52,53,55,60)        141.5717         estimate D2E/DX2                !
 ! D389  D(49,54,56,55)        136.5118         estimate D2E/DX2                !
 ! D390  D(49,54,56,64)         -1.8855         estimate D2E/DX2                !
 ! D391  D(51,54,56,55)         -3.3359         estimate D2E/DX2                !
 ! D392  D(51,54,56,64)       -141.7332         estimate D2E/DX2                !
 ! D393  D(53,55,56,54)         -0.0484         estimate D2E/DX2                !
 ! D394  D(53,55,56,64)        142.5788         estimate D2E/DX2                !
 ! D395  D(60,55,56,54)       -142.1205         estimate D2E/DX2                !
 ! D396  D(60,55,56,64)          0.5068         estimate D2E/DX2                !
 ! D397  D(53,55,60,57)         -1.7811         estimate D2E/DX2                !
 ! D398  D(53,55,60,66)       -143.4097         estimate D2E/DX2                !
 ! D399  D(56,55,60,57)        139.8994         estimate D2E/DX2                !
 ! D400  D(56,55,60,66)         -1.7293         estimate D2E/DX2                !
 ! D401  D(54,56,64,63)          1.4429         estimate D2E/DX2                !
 ! D402  D(54,56,64,66)        144.4902         estimate D2E/DX2                !
 ! D403  D(55,56,64,63)       -142.1214         estimate D2E/DX2                !
 ! D404  D(55,56,64,66)          0.926          estimate D2E/DX2                !
 ! D405  D(39,57,58,42)          0.2559         estimate D2E/DX2                !
 ! D406  D(39,57,58,59)       -141.2006         estimate D2E/DX2                !
 ! D407  D(60,57,58,42)        140.9114         estimate D2E/DX2                !
 ! D408  D(60,57,58,59)         -0.5452         estimate D2E/DX2                !
 ! D409  D(39,57,60,55)         -3.2849         estimate D2E/DX2                !
 ! D410  D(39,57,60,66)        133.4285         estimate D2E/DX2                !
 ! D411  D(58,57,60,55)       -139.4882         estimate D2E/DX2                !
 ! D412  D(58,57,60,66)         -2.7748         estimate D2E/DX2                !
 ! D413  D(42,58,59,43)          3.3485         estimate D2E/DX2                !
 ! D414  D(42,58,59,65)       -133.5964         estimate D2E/DX2                !
 ! D415  D(57,58,59,43)        140.4281         estimate D2E/DX2                !
 ! D416  D(57,58,59,65)          3.4831         estimate D2E/DX2                !
 ! D417  D(43,59,65,61)         -2.312          estimate D2E/DX2                !
 ! D418  D(43,59,65,66)       -145.1881         estimate D2E/DX2                !
 ! D419  D(58,59,65,61)        139.7693         estimate D2E/DX2                !
 ! D420  D(58,59,65,66)         -3.1068         estimate D2E/DX2                !
 ! D421  D(55,60,66,64)          2.2904         estimate D2E/DX2                !
 ! D422  D(55,60,66,65)        145.1043         estimate D2E/DX2                !
 ! D423  D(57,60,66,64)       -139.6699         estimate D2E/DX2                !
 ! D424  D(57,60,66,65)          3.1441         estimate D2E/DX2                !
 ! D425  D(46,61,62,48)         -0.9058         estimate D2E/DX2                !
 ! D426  D(46,61,62,63)       -139.8893         estimate D2E/DX2                !
 ! D427  D(65,61,62,48)        136.7216         estimate D2E/DX2                !
 ! D428  D(65,61,62,63)         -2.262          estimate D2E/DX2                !
 ! D429  D(46,61,65,59)          2.3468         estimate D2E/DX2                !
 ! D430  D(46,61,65,66)        145.2141         estimate D2E/DX2                !
 ! D431  D(62,61,65,59)       -139.9472         estimate D2E/DX2                !
[...]
 Alpha virt. eigenvalues --    1.21184   1.21463   1.21927   1.22579   1.22613
 Alpha virt. eigenvalues --    1.23368   1.24210   1.24613   1.24963   1.25220
 Alpha virt. eigenvalues --    1.26041   1.26422   1.26625   1.27060   1.27427
 Alpha virt. eigenvalues --    1.27857   1.28231   1.28420   1.29006   1.29505
 Alpha virt. eigenvalues --    1.30104   1.30705   1.30932   1.31690   1.31895
 Alpha virt. eigenvalues --    1.32178   1.32442   1.32951   1.33082   1.33371
 Alpha virt. eigenvalues --    1.33804   1.33967   1.34448   1.34766   1.34986
 Alpha virt. eigenvalues --    1.35257   1.35808   1.35861   1.36532   1.36864
 Alpha virt. eigenvalues --    1.37057   1.37540   1.37908   1.38146   1.38286
 Alpha virt. eigenvalues --    1.38448   1.38666   1.39152   1.39824   1.39945
 Alpha virt. eigenvalues --    1.40582   1.40631   1.40996   1.41274   1.41446
 Alpha virt. eigenvalues --    1.41748   1.41867   1.42097   1.42314   1.42649
 Alpha virt. eigenvalues --    1.42769   1.42867   1.43024   1.43412   1.43467
 Alpha virt. eigenvalues --    1.43872   1.44214   1.44716   1.44831   1.45080
 Alpha virt. eigenvalues --    1.45250   1.45309   1.45873   1.45997   1.46119
 Alpha virt. eigenvalues --    1.46647   1.47094   1.47151   1.47389   1.47558
 Alpha virt. eigenvalues --    1.47850   1.48089   1.48135   1.48771   1.48815
 Alpha virt. eigenvalues --    1.49275   1.49386   1.49509   1.49566   1.50127
 Alpha virt. eigenvalues --    1.50500   1.50646   1.51319   1.51898   1.52018
 Alpha virt. eigenvalues --    1.52189   1.52340   1.52609   1.53153   1.53344
 Alpha virt. eigenvalues --    1.53594   1.53906   1.54067   1.54500   1.55099
 Alpha virt. eigenvalues --    1.55333   1.55809   1.56143   1.56250   1.56845
 Alpha virt. eigenvalues --    1.57178   1.57345   1.58123   1.58307   1.58632
 Alpha virt. eigenvalues --    1.58709   1.59014   1.59501   1.60073   1.60358
 Alpha virt. eigenvalues --    1.60589   1.61544   1.61985   1.62280   1.62679
 Alpha virt. eigenvalues --    1.62870   1.63226   1.63620   1.63708   1.63927
 Alpha virt. eigenvalues --    1.64389   1.64707   1.64967   1.65761   1.65812
 Alpha virt. eigenvalues --    1.66459   1.67293   1.67469   1.67910   1.68046
 Alpha virt. eigenvalues --    1.68331   1.68732   1.69393   1.69551   1.69715
 Alpha virt. eigenvalues --    1.69998   1.70869   1.71201   1.71623   1.72031
 Alpha virt. eigenvalues --    1.72072   1.72310   1.72637   1.73230   1.73580
 Alpha virt. eigenvalues --    1.73798   1.74436   1.74645   1.75476   1.75551
 Alpha virt. eigenvalues --    1.75748   1.75923   1.76146   1.76889   1.77065
 Alpha virt. eigenvalues --    1.77458   1.77655   1.78253   1.78527   1.78890
 Alpha virt. eigenvalues --    1.79499   1.79527   1.80478   1.80508   1.81381
 Alpha virt. eigenvalues --    1.81996   1.82400   1.82765   1.83115   1.84722
 Alpha virt. eigenvalues --    1.84858   1.85990   1.86484   1.86759   1.87520
 Alpha virt. eigenvalues --    1.87580   1.87789   1.88057   1.88661   1.89253
 Alpha virt. eigenvalues --    1.89628   1.89813   1.90611   1.90861   1.91280
 Alpha virt. eigenvalues --    1.92085   1.92939   1.93101   1.93463   1.93916
 Alpha virt. eigenvalues --    1.94213   1.94347   1.94892   1.95694   1.96094
 Alpha virt. eigenvalues --    1.96516   1.97084   1.97577   1.98260   1.99311
 Alpha virt. eigenvalues --    1.99786   1.99988   2.00260   2.00321   2.00915
 Alpha virt. eigenvalues --    2.01196   2.01297   2.01675   2.01716   2.02165
 Alpha virt. eigenvalues --    2.02500   2.02834   2.03493   2.04110   2.04392
 Alpha virt. eigenvalues --    2.04772   2.06028   2.06491   2.06876   2.07000
 Alpha virt. eigenvalues --    2.07523   2.08127   2.08316   2.08677   2.08811
 Alpha virt. eigenvalues --    2.09584   2.09676   2.10178   2.10690   2.10836
 Alpha virt. eigenvalues --    2.11383   2.11837   2.12280   2.12621   2.13101
 Alpha virt. eigenvalues --    2.13696   2.14339   2.15405   2.15863   2.16182
 Alpha virt. eigenvalues --    2.16472   2.16755   2.17286   2.17596   2.17812
 Alpha virt. eigenvalues --    2.18415   2.18710   2.19584   2.20029   2.20425
 Alpha virt. eigenvalues --    2.20645   2.21099   2.21539   2.21755   2.22188
 Alpha virt. eigenvalues --    2.22801   2.23336   2.23443   2.23846   2.23976
 Alpha virt. eigenvalues --    2.24648   2.24846   2.25264   2.25987   2.26256
 Alpha virt. eigenvalues --    2.27034   2.27259   2.27676   2.28267   2.28480
 Alpha virt. eigenvalues --    2.29297   2.29686   2.30100   2.30409   2.30696
 Alpha virt. eigenvalues --    2.31079   2.31356   2.31843   2.32227   2.32981
 Alpha virt. eigenvalues --    2.33263   2.33462   2.33600   2.34385   2.34863
 Alpha virt. eigenvalues --    2.35257   2.36203   2.36565   2.36965   2.37437
 Alpha virt. eigenvalues --    2.37826   2.38117   2.38504   2.38720   2.39715
 Alpha virt. eigenvalues --    2.40261   2.40872   2.41068   2.41395   2.41503
 Alpha virt. eigenvalues --    2.41823   2.42270   2.42718   2.43101   2.43424
 Alpha virt. eigenvalues --    2.43805   2.44544   2.44802   2.44954   2.45191
 Alpha virt. eigenvalues --    2.46058   2.46275   2.46982   2.47199   2.47685
 Alpha virt. eigenvalues --    2.48855   2.49732   2.50329   2.50499   2.51521
 Alpha virt. eigenvalues --    2.51829   2.52544   2.52939   2.53787   2.54056
 Alpha virt. eigenvalues --    2.54338   2.54767   2.55068   2.55128   2.55730
 Alpha virt. eigenvalues --    2.55908   2.56054   2.56327   2.57071   2.57458
 Alpha virt. eigenvalues --    2.58357   2.58488   2.58986   2.59256   2.59584
 Alpha virt. eigenvalues --    2.61203   2.62251   2.62548   2.62824   2.62920
 Alpha virt. eigenvalues --    2.63172   2.64230   2.64696   2.64931   2.66307
 Alpha virt. eigenvalues --    2.66807   2.67384   2.67914   2.68729   2.69347
 Alpha virt. eigenvalues --    2.70046   2.71259   2.71585   2.72879   2.73295
 Alpha virt. eigenvalues --    2.74126   2.75582   2.76152   2.76391   2.77740
 Alpha virt. eigenvalues --    2.78740   2.79066   2.79317   2.79704   2.80527
 Alpha virt. eigenvalues --    2.81389   2.81902   2.82613   2.83519   2.83734
 Alpha virt. eigenvalues --    2.84609   2.85290   2.86046   2.87020   2.87622
 Alpha virt. eigenvalues --    2.88256   2.89659   2.90884   2.91650   2.92395
 Alpha virt. eigenvalues --    2.92715   2.93034   2.93883   2.94120   2.94539
 Alpha virt. eigenvalues --    2.94787   2.95239   2.95836   2.96104   2.96397
 Alpha virt. eigenvalues --    2.96880   2.96991   2.97568   2.97742   2.98381
 Alpha virt. eigenvalues --    2.98988   2.99218   2.99810   3.00301   3.00735
 Alpha virt. eigenvalues --    3.00941   3.01259   3.01825   3.02401   3.02781
 Alpha virt. eigenvalues --    3.03218   3.03349   3.03675   3.04323   3.04507
 Alpha virt. eigenvalues --    3.04981   3.05091   3.05638   3.05966   3.06550
 Alpha virt. eigenvalues --    3.06685   3.06939   3.07368   3.07701   3.08352
 Alpha virt. eigenvalues --    3.08673   3.08899   3.09395   3.09713   3.09970
 Alpha virt. eigenvalues --    3.10483   3.10832   3.10872   3.11281   3.11490
 Alpha virt. eigenvalues --    3.12147   3.12283   3.12654   3.12979   3.13279
 Alpha virt. eigenvalues --    3.13740   3.14087   3.14776   3.14902   3.15030
 Alpha virt. eigenvalues --    3.15176   3.15496   3.16287   3.17110   3.17457
 Alpha virt. eigenvalues --    3.17832   3.18071   3.18546   3.18889   3.19742
 Alpha virt. eigenvalues --    3.20477   3.21261   3.21491   3.21783   3.22963
 Alpha virt. eigenvalues --    3.24501   3.25073   3.28185   3.29757   3.31118
 Alpha virt. eigenvalues --    3.32950   3.36880   3.38612   3.39338   3.41146
 Alpha virt. eigenvalues --    3.43569   3.44386   3.44573   3.45424   3.46543
 Alpha virt. eigenvalues --    3.47798   3.48142   3.49347   3.50160   3.50396
 Alpha virt. eigenvalues --    3.51919   3.52078   3.52663   3.53926   3.55137
 Alpha virt. eigenvalues --    3.55689   3.55938   3.56978   3.57711   3.59205
 Alpha virt. eigenvalues --    3.61032   3.61436   3.62940   3.63436   3.64251
 Alpha virt. eigenvalues --    3.65546   3.66650   3.67401   3.68481   3.69032
 Alpha virt. eigenvalues --    3.69290   3.70821   3.70972   3.72378   3.73004
 Alpha virt. eigenvalues --    3.74583   3.75306   3.76699   3.79204   3.79587
 Alpha virt. eigenvalues --    3.80172   3.81714   3.82711   3.83229   3.83847
 Alpha virt. eigenvalues --    3.83893   3.86043   3.86697   3.87085   3.87730
 Alpha virt. eigenvalues --    3.88380   3.88957   3.89368   3.89454   3.90000
 Alpha virt. eigenvalues --    3.91594   3.92239   3.95124   4.00746   4.05418
 Alpha virt. eigenvalues --    4.18376   4.20738   4.21601   4.24029   4.25170
 Alpha virt. eigenvalues --    4.27007   4.31846   4.34197   4.34686   4.36604
 Alpha virt. eigenvalues --    4.37284   4.39451   4.41883   4.45555   4.49642
 Alpha virt. eigenvalues --    4.52730   4.55276   4.57852   4.60416   4.62398
 Alpha virt. eigenvalues --    4.62526   4.65069   4.66230   4.70332   4.75078
 Alpha virt. eigenvalues --    4.80841   4.82586   4.83792   4.91155   4.95572
 Alpha virt. eigenvalues --    4.97190   5.00212   5.01975   5.04269   9.49774
 Alpha virt. eigenvalues --    9.55329   9.57197   9.61020   9.65761   9.67241
 Alpha virt. eigenvalues --    9.68785   9.71844  22.99751  23.19623  23.22284
 Alpha virt. eigenvalues --   23.23555  23.42185  23.43144  23.45792  23.51127
 Alpha virt. eigenvalues --   23.52656  23.60534  23.62140  23.65256  23.68240
 Alpha virt. eigenvalues --   23.69105  23.69514  23.72558  23.72838  23.73505
 Alpha virt. eigenvalues --   23.75395  23.76746  23.77952  23.78168  23.80551
 Alpha virt. eigenvalues --   23.81422  23.83099  23.83454  23.85256  23.86589
 Alpha virt. eigenvalues --   23.87648  23.89406  23.90841  23.91855  23.92686
 Alpha virt. eigenvalues --   23.93663  23.94599  23.94767  23.95314  23.96214
 Alpha virt. eigenvalues --   23.96407  23.97119  23.97548  23.98164  23.98414
 Alpha virt. eigenvalues --   23.98791  24.00413  24.01279  24.02044  24.02979
 Alpha virt. eigenvalues --   24.04672  24.04760  24.06385  24.07246  24.07479
 Alpha virt. eigenvalues --   24.07911  24.08448  24.08981  24.09555  24.10408
 Alpha virt. eigenvalues --   24.10815  24.10941  24.11361  24.13280  24.13683
 Alpha virt. eigenvalues --   24.15063  24.15572  24.21697  25.49724  25.56370
 Alpha virt. eigenvalues --   25.58785  25.59575  25.65889  25.68916  25.73083
 Alpha virt. eigenvalues --   25.75586  25.78678  25.80485  25.85919  25.87357
 Alpha virt. eigenvalues --   25.89705  25.94265  26.00555  26.03806  26.15291
 Alpha virt. eigenvalues --   26.22822  26.28696  26.34116  26.40624  26.51071
 Alpha virt. eigenvalues --   26.59368  26.74491 215.44311 215.50518 215.52711
 Alpha virt. eigenvalues --  215.57116 215.62560 215.64323 215.66053 215.69468
          Condensed to atoms (all electrons):
 Mulliken charges:
               1
     1  C   -0.261330
     2  C   -0.271918
     3  C   -0.436012
     4  C   -0.270062
     5  C    0.320564
     6  C   -0.436189
     7  C    0.069797
     8  C    0.156867
     9  C    0.077423
    10  C    0.077378
    11  C    0.059696
    12  C    0.180508
    13  C    0.079933
    14  C    0.237443
    15  C    0.185029
    16  C   -0.685917
    17  C    0.081719
    18  C    0.054702
    19  C    0.090141
    20  C    0.085803
    21  C    0.017059
    22  C   -0.010827
    23  C    0.014963
    24  C    0.000895
    25  C   -0.009128
    26  C    0.005591
    27  C    0.085940
    28  C   -0.004897
    29  C    0.157756
    30  C    0.124001
    31  C   -0.674957
    32  C    0.173090
    33  C    0.019970
    34  C    0.183280
    35  C    0.001575
    36  C   -0.005293
    37  C   -0.000859
    38  C   -0.007871
    39  C   -0.002133
    40  C   -0.007337
    41  C    0.005079
    42  C    0.002942
    43  C    0.000085
    44  C   -0.001678
    45  C    0.026226
    46  C    0.008447
    47  C   -0.654546
    48  C    0.140851
    49  C    0.177207
    50  C    0.187143
    51  C    0.043470
    52  C    0.000850
    53  C    0.002387
    54  C    0.029709
    55  C    0.002256
    56  C    0.000772
    57  C    0.002438
    58  C    0.001943
    59  C    0.004378
    60  C    0.005347
    61  C   -0.002285
    62  C    0.039378
    63  C    0.030545
    64  C    0.001482
    65  C    0.004813
    66  C    0.000170
    67  Cl   0.070829
    68  Cl   0.079200
    69  Cl   0.073747
    70  Cl   0.060098
    71  Cl   0.045155
    72  Cl   0.028226
    73  Cl   0.077622
    74  Cl   0.049325
 Sum of Mulliken charges =  -0.00000
 Mulliken charges with hydrogens summed into heavy atoms:
               1
     1  C   -0.261330
     2  C   -0.271918
     3  C   -0.436012
     4  C   -0.270062
     5  C    0.320564
     6  C   -0.436189
     7  C    0.069797
     8  C    0.156867
     9  C    0.077423
    10  C    0.077378
    11  C    0.059696
    12  C    0.180508
    13  C    0.079933
    14  C    0.237443
    15  C    0.185029
    16  C   -0.685917
    17  C    0.081719
    18  C    0.054702
    19  C    0.090141
    20  C    0.085803
    21  C    0.017059
    22  C   -0.010827
    23  C    0.014963
    24  C    0.000895
    25  C   -0.009128
    26  C    0.005591
    27  C    0.085940
    28  C   -0.004897
    29  C    0.157756
    30  C    0.124001
    31  C   -0.674957
    32  C    0.173090
    33  C    0.019970
    34  C    0.183280
    35  C    0.001575
    36  C   -0.005293
    37  C   -0.000859
    38  C   -0.007871
    39  C   -0.002133
    40  C   -0.007337
    41  C    0.005079
    42  C    0.002942
    43  C    0.000085
    44  C   -0.001678
    45  C    0.026226
    46  C    0.008447
    47  C   -0.654546
    48  C    0.140851
    49  C    0.177207
    50  C    0.187143
    51  C    0.043470
    52  C    0.000850
    53  C    0.002387
    54  C    0.029709
    55  C    0.002256
    56  C    0.000772
    57  C    0.002438
    58  C    0.001943
    59  C    0.004378
    60  C    0.005347
    61  C   -0.002285
    62  C    0.039378
    63  C    0.030545
    64  C    0.001482
    65  C    0.004813
    66  C    0.000170
    67  Cl   0.070829
    68  Cl   0.079200
    69  Cl   0.073747
    70  Cl   0.060098
    71  Cl   0.045155
    72  Cl   0.028226
    73  Cl   0.077622
    74  Cl   0.049325
 Electronic spatial extent (au):  <R**2>=          36265.1867
 Charge=             -0.0000 electrons
 Dipole moment (field-independent basis, Debye):
    X=              4.2737    Y=             -3.4275    Z=             -0.1776  Tot=              5.4813
 Quadrupole moment (field-independent basis, Debye-Ang):
   XX=           -487.0958   YY=           -486.8106   ZZ=           -471.2934
   XY=             -6.6464   XZ=             -4.3791   YZ=             -3.7475
 Traceless Quadrupole moment (field-independent basis, Debye-Ang):
   XX=             -5.3625   YY=             -5.0773   ZZ=             10.4399
   XY=             -6.6464   XZ=             -4.3791   YZ=             -3.7475
 Octapole moment (field-independent basis, Debye-Ang**2):
  XXX=            -78.5452  YYY=             16.7028  ZZZ=              2.2714  XYY=            -56.9604
  XXY=             19.1578  XXZ=             -5.1523  XZZ=            -46.2518  YZZ=             16.4821
  YYZ=              8.8031  XYZ=             -6.2975
 Hexadecapole moment (field-independent basis, Debye-Ang**3):
 XXXX=         -24416.4260 YYYY=         -15850.8525 ZZZZ=         -12442.2523 XXXY=             49.7221
 XXXZ=              1.5839 YYYX=             11.9409 YYYZ=             51.7127 ZZZX=            -17.3993
 ZZZY=             17.7784 XXYY=          -6745.1913 XXZZ=          -6151.7027 YYZZ=          -4734.4056
 XXYZ=            -38.3878 YYXZ=            -39.0642 ZZXY=             10.7237
 N-N= 1.531970336300D+04 E-N=-4.521629871953D+04  KE= 6.178400156678D+03
 No NMR shielding tensors so no spin-rotation constants.
 Leave Link  601 at Thu Jul 14 22:03:30 2022, MaxMem=  1342177280 cpu:              62.7 elap:               1.6
 (Enter /home/mkliu/g16/l9999.exe)
 1\1\GINC-NODE02\FOpt\RB3LYP\6-311G(d,p)\C66Cl8\MKLIU\14-Jul-2022\0\\#P
  opt b3lyp/6-311G(d, p) empiricaldispersion=GD3\\force\\0,1\C,-1.35763
 3377,1.8815084645,-3.9471045831\C,0.2019140783,2.2312876411,-4.0034781
 41\C,0.9491488073,0.8619159924,-4.2854363575\C,-1.5132661295,0.3441579
 453,-4.285465028\C,-0.1189677893,-0.1648441239,-4.138266273\C,-2.50903
 52569,-0.2487951296,-3.1698020652\C,-1.8742839367,1.9673911217,-2.5452
 279472\C,-2.5960620499,0.8625543881,-2.1745994683\C,-1.411245401,2.908
 6309486,-1.5763799124\C,0.7541874886,2.6356086197,-2.6566728685\C,0.01
 669572,3.2424565656,-1.6352278687\C,1.9118351463,0.7005755148,-3.11610
 90654\C,1.8874263708,1.8651514256,-2.3129660938\C,2.2515005177,-0.5077
 592337,-2.5530154659\C,0.1566147162,-1.3432740998,-3.595462379\C,1.564
 6466683,-1.7418453263,-3.1410506891\C,-2.0206216508,-1.491203047,-2.43
 0500961\C,-0.838786833,-2.0901419621,-2.8379036324\C,-2.5219167076,-1.
 7719210658,-1.0980312371\C,-3.0524470328,0.6603150454,-0.842843081\C,-
 3.1208200675,-0.6891038237,-0.2982092023\C,-2.0390208286,2.8601797709,
 -0.3349005846\C,-2.9114978933,1.7650263968,0.0145804416\C,-1.378643760
 2,3.2899122266,0.8887181818\C,0.6942428569,3.4574302988,-0.4035396327\
 C,-0.0270563869,3.5815632772,0.855425604\C,2.4419039408,1.8602631947,-
 1.0041866323\C,1.9414156024,2.8442365194,-0.1215988046\C,2.8575859896,
 -0.5406545007,-1.2448297128\C,3.0095105691,0.6327686109,-0.5042196292\
 C,3.1328171438,-1.9089454962,-0.6038981187\C,1.2669689973,-2.758171514
 2,-2.0749340588\C,-0.1417983268,-3.0193319805,-2.0134757764\C,2.026303
 3922,-2.8939403738,-0.9552424931\C,-1.9511131347,-2.8605952334,-0.3928
 769223\C,-0.731023178,-3.4747698102,-0.8459846811\C,-1.9393596454,-2.9
 288426583,1.0497602743\C,-3.1608443379,-0.8149370566,1.1045522632\C,-2
 .5492913567,-1.9326023534,1.7892470638\C,-2.8797325649,1.6018917296,1.
 4431781056\C,-1.9275166161,2.5384730518,1.9978060673\C,-3.0222875371,0
 .3357207008,1.9791874294\C,-1.1198101049,2.1498016519,3.0628654092\C,0
 .8296705697,3.1274129101,1.9273715969\C,2.0523994947,2.6648328197,1.32
 00403046\C,0.2976985033,2.4525631286,3.0278105874\C,3.4953339862,0.611
 0330944,0.9453137009\C,2.717604503,1.5810958473,1.8307680255\C,3.02343
 12038,-1.8614239972,0.9111647413\C,3.2090869485,-0.7144877919,1.622553
 2754\C,1.4477132804,-3.4412847234,0.2362335376\C,0.0922099165,-3.77769
 2252,0.2925187985\C,-0.6708663173,-3.4804491731,1.4828448344\C,2.09008
 82206,-2.8449285999,1.3816533995\C,-0.0423196029,-2.9670688482,2.61363
 48751\C,1.3762023042,-2.6528601121,2.5661466976\C,-1.9428996303,-1.458
 0359059,3.0150026489\C,-2.2381723657,-0.0483060589,3.1355742628\C,-1.2
 8378365,0.831397508,3.6490305403\C,-0.6950004513,-1.9486245589,3.40612
 24481\C,1.0056926052,1.3258142284,3.5773424832\C,2.198477127,0.9052659
 465,2.9765957626\C,2.4962073131,-0.5040652617,2.8489520405\C,1.5938171
 426,-1.4549872313,3.3284380699\C,0.0318388816,0.3312820265,3.997910661
 3\C,0.319940091,-1.0236441879,3.878045419\Cl,-2.412189521,2.9640579005
 ,-4.9431498058\Cl,0.6233392576,3.5606365609,-5.1486274816\Cl,1.8104154
 64,0.7429269376,-5.878728737\Cl,2.5388119554,-2.50588038,-4.5013565537
 \Cl,4.7964498653,-2.4985426909,-1.1471511523\Cl,5.3085627755,1.0141766
 735,0.9681066852\Cl,-2.0016470038,-0.0005974445,-5.9940683636\Cl,-4.18
 9252725,-0.6130084433,-3.825552256\\Version=ES64L-G16RevA.03\State=1-A
 \HF=-6197.2440918\RMSD=5.020e-09\RMSF=3.624e-05\Dipole=-0.7991686,-0.0
 238497,2.002819\Quadrupole=-7.137063,8.5020578,-1.3649948,2.1764682,-4
 .5379585,0.3212356\PG=C01 [X(C66Cl8)]\\@


 THERE IS SOMETHING FASCINATING ABOUT SCIENCE.
 ONE GETS SUCH WHOLESALE CONJECTURE OUT OF SUCH TRIFLING INVESTMENTS.

                                                       -- MARK TWAIN
 Job cpu time:       3 days  6 hours  7 minutes 33.4 seconds.
 Elapsed time:       0 days  1 hours 37 minutes 51.7 seconds.
 File lengths (MBytes):  RWF=   1193 Int=      0 D2E=      0 Chk=    146 Scr=      1
 Normal termination of Gaussian 16 at Thu Jul 14 22:03:32 2022.
