 Entering Gaussian System, Link 0=g16
 Input=euvkbtjapvif4_addon_9.gjf
 Output=euvkbtjapvif4_addon_9.log
 Initial command:
 /home/mkliu/g16/l1.exe "/data/scratch/Gau-179116.inp" -scrdir="/data/scratch/"
 Entering Link 1 = /home/mkliu/g16/l1.exe PID=    179117.
  
 Copyright (c) 1988,1990,1992,1993,1995,1998,2003,2009,2016,
            Gaussian, Inc.  All Rights Reserved.
  
 This is part of the Gaussian(R) 16 program.  It is based on
 the Gaussian(R) 09 system (copyright 2009, Gaussian, Inc.),
 the Gaussian(R) 03 system (copyright 2003, Gaussian, Inc.),
 the Gaussian(R) 98 system (copyright 1998, Gaussian, Inc.),
 the Gaussian(R) 94 system (copyright 1995, Gaussian, Inc.),
 the Gaussian 92(TM) system (copyright 1992, Gaussian, Inc.),
 the Gaussian 90(TM) system (copyright 1990, Gaussian, Inc.),
 the Gaussian 88(TM) system (copyright 1988, Gaussian, Inc.),
 the Gaussian 86(TM) system (copyright 1986, Carnegie Mellon
 University), and the Gaussian 82(TM) system (copyright 1983,
 Carnegie Mellon University). Gaussian is a federally registered
 trademark of Gaussian, Inc.
  
 This software contains proprietary and confidential information,
 including trade secrets, belonging to Gaussian, Inc.
  
 This software is provided under written license and may be
 used, copied, transmitted, or stored only in accord with that
 written license.
  
 The following legend is applicable only to US Government
 contracts under FAR:
  
                    RESTRICTED RIGHTS LEGEND
  
 Use, reproduction and disclosure by the US Government is
 subject to restrictions as set forth in subparagraphs (a)
 and (c) of the Commercial Computer Software - Restricted
 Rights clause in FAR 52.227-19.
  
 Gaussian, Inc.
 340 Quinnipiac St., Bldg. 40, Wallingford CT 06492
  
  
 ---------------------------------------------------------------
 Warning -- This program may not be used in any manner that
 competes with the business of Gaussian, Inc. or will provide
 assistance to any competitor of Gaussian, Inc.  The licensee
 of this program is prohibited from giving any competitor of
 Gaussian, Inc. access to this program.  By using this program,
 the user acknowledges that Gaussian, Inc. is engaged in the
 business of creating and licensing software in the field of
 computational chemistry and represents and warrants to the
 licensee that it is not a competitor of Gaussian, Inc. and that
 it will not use this program in any manner prohibited above.
 ---------------------------------------------------------------
  

 Cite this work as:
 Gaussian 16, Revision A.03,
 M. J. Frisch, G. W. Trucks, H. B. Schlegel, G. E. Scuseria, 
 M. A. Robb, J. R. Cheeseman, G. Scalmani, V. Barone, 
 G. A. Petersson, H. Nakatsuji, X. Li, M. Caricato, A. V. Marenich, 
 J. Bloino, B. G. Janesko, R. Gomperts, B. Mennucci, H. P. Hratchian, 
 J. V. Ortiz, A. F. Izmaylov, J. L. Sonnenberg, D. Williams-Young, 
 F. Ding, F. Lipparini, F. Egidi, J. Goings, B. Peng, A. Petrone, 
 T. Henderson, D. Ranasinghe, V. G. Zakrzewski, J. Gao, N. Rega, 
 G. Zheng, W. Liang, M. Hada, M. Ehara, K. Toyota, R. Fukuda, 
 J. Hasegawa, M. Ishida, T. Nakajima, Y. Honda, O. Kitao, H. Nakai, 
 T. Vreven, K. Throssell, J. A. Montgomery, Jr., J. E. Peralta, 
 F. Ogliaro, M. J. Bearpark, J. J. Heyd, E. N. Brothers, K. N. Kudin, 
 V. N. Staroverov, T. A. Keith, R. Kobayashi, J. Normand, 
 K. Raghavachari, A. P. Rendell, J. C. Burant, S. S. Iyengar, 
 J. Tomasi, M. Cossi, J. M. Millam, M. Klene, C. Adamo, R. Cammi, 
 J. W. Ochterski, R. L. Martin, K. Morokuma, O. Farkas, 
 J. B. Foresman, and D. J. Fox, Gaussian, Inc., Wallingford CT, 2016.
 
 ******************************************
 Gaussian 16:  ES64L-G16RevA.03 25-Dec-2016
                15-Jul-2022 
 ******************************************
 %mem=10GB
 %chk=euvkbtjapvif4_addon_9.chk
 %nprocshared=48
 Will use up to   48 processors via shared memory.
 -------------------------------------------------
 #P opt b3lyp/6-311G(d, p) empiricaldispersion=GD3
 -------------------------------------------------
 1/18=20,19=15,26=3,38=1/1,3;
 2/9=110,12=2,17=6,18=5,40=1/2;
 3/5=4,6=6,7=101,11=2,25=1,30=1,71=1,74=-5,124=31/1,2,3;
 4//1;
 5/5=2,38=5/2;
 6/7=2,8=2,9=2,10=2,28=1/1;
 7//1,2,3,16;
 1/18=20,19=15,26=3/3(2);
 2/9=110/2;
 99//99;
 2/9=110/2;
 3/5=4,6=6,7=101,11=2,25=1,30=1,71=1,74=-5,124=31/1,2,3;
 4/5=5,16=3,69=1/1;
 5/5=2,38=5/2;
 7//1,2,3,16;
 1/18=20,19=15,26=3/3(-5);
 2/9=110/2;
 6/7=2,8=2,9=2,10=2,19=2,28=1/1;
 99/9=1/99;
 Leave Link    1 at Fri Jul 15 01:19:22 2022, MaxMem=  1342177280 cpu:               2.3 elap:               0.1
 (Enter /home/mkliu/g16/l101.exe)
 -----
 force
 -----
 Symbolic Z-matrix:
 Charge =  0 Multiplicity = 2
 C                    -1.31456   1.87245  -3.89137 
 C                     0.19989   2.24863  -4.05965 
 C                     0.91478   0.87768  -4.21782 
 C                    -1.49362   0.3561   -4.22388 
 C                    -0.12172  -0.17002  -4.07833 
 C                    -2.45334  -0.23597  -3.1354 
 C                    -1.82034   1.96044  -2.50822 
 C                    -2.54355   0.86945  -2.13766 
 C                    -1.34584   2.86675  -1.52501 
 C                     0.86954   2.88995  -2.78754 
 C                     0.00568   3.25074  -1.61334 
 C                     1.77777   0.69064  -3.00734 
 C                     1.80642   1.82916  -2.25027 
 C                     2.16504  -0.53435  -2.47192 
 C                     0.1908   -1.35255  -3.55676 
 C                     1.57766  -1.76842  -3.12348 
 C                    -1.98759  -1.47194  -2.4081 
 C                    -0.81664  -2.08433  -2.79191 
 C                    -2.52048  -1.76129  -1.08896 
 C                    -3.04213   0.65803  -0.82231 
 C                    -3.10873  -0.68562  -0.30594 
 C                    -2.00303   2.80432  -0.3 
 C                    -2.88435   1.74106   0.03543 
 C                    -1.37254   3.24478   0.90101 
 C                     0.67347   3.46978  -0.39617 
 C                    -0.03477   3.55659   0.86039 
 C                     2.37022   1.81429  -0.97095 
 C                     1.93912   2.86954  -0.09152 
 C                     2.80829  -0.57753  -1.22696 
 C                     2.93981   0.61403  -0.49935 
 C                     3.13274  -1.92712  -0.60744 
 C                     1.29027  -2.79594  -2.07503 
 C                    -0.12508  -3.02578  -1.99266 
 C                     2.03708  -2.90709  -0.95128 
 C                    -1.93576  -2.82428  -0.39275 
 C                    -0.72016  -3.44921  -0.83096 
 C                    -1.93868  -2.90446   1.03501 
 C                    -3.14621  -0.81282   1.09348 
 C                    -2.54871  -1.92006   1.77108 
 C                    -2.87642   1.58655   1.45338 
 C                    -1.93598   2.51967   2.00709 
 C                    -3.02406   0.32202   1.97051 
 C                    -1.12465   2.12298   3.049 
 C                     0.82422   3.10288   1.92031 
 C                     2.05523   2.66117   1.31889 
 C                     0.28717   2.41999   2.99279 
 C                     3.47228   0.60562   0.91986 
 C                     2.72161   1.55611   1.80994 
 C                     3.01536  -1.86634   0.88892 
 C                     3.1845   -0.71162   1.5821 
 C                     1.45134  -3.45222   0.24091 
 C                     0.09792  -3.7512    0.29617 
 C                    -0.6757   -3.45764   1.46583 
 C                     2.08325  -2.84361   1.36435 
 C                    -0.05414  -2.94187   2.58306 
 C                     1.34808  -2.62965   2.51928 
 C                    -1.95826  -1.4554    2.99976 
 C                    -2.24875  -0.05891   3.12019 
 C                    -1.2946    0.816     3.61483 
 C                    -0.71617  -1.934     3.37012 
 C                     0.99204   1.29832   3.53373 
 C                     2.18654   0.88979   2.93876 
 C                     2.4685   -0.51054   2.802 
 C                     1.55909  -1.43655   3.26605 
 C                     0.02161   0.32612   3.94303 
 C                     0.29779  -1.02388   3.82089 
 Cl                   -2.40116   2.90636  -4.86418 
 Cl                    0.39782   3.24303  -5.51554 
 Cl                    1.87226   0.67908  -5.70701 
 Cl                    2.66258  -2.39153  -4.41008 
 Cl                    4.76951  -2.42092  -1.18713 
 Cl                    5.25028   0.96291   0.80105 
 Cl                   -2.03037   0.09671  -5.90254 
 Cl                   -4.09923  -0.56965  -3.81293 
 Cl                    1.84973   4.35533  -3.21626 
 
 ITRead=  0  0  0  0  0  0  0  0  0  0  0  0  0  0  0  0  0  0  0  0
 ITRead=  0  0  0  0  0  0  0  0  0  0  0  0  0  0  0  0  0  0  0  0
 ITRead=  0  0  0  0  0  0  0  0  0  0  0  0  0  0  0  0  0  0  0  0
 ITRead=  0  0  0  0  0  0  0  0  0  0  0  0  0  0  0
 MicOpt= -1 -1 -1 -1 -1 -1 -1 -1 -1 -1 -1 -1 -1 -1 -1 -1 -1 -1 -1 -1
 MicOpt= -1 -1 -1 -1 -1 -1 -1 -1 -1 -1 -1 -1 -1 -1 -1 -1 -1 -1 -1 -1
 MicOpt= -1 -1 -1 -1 -1 -1 -1 -1 -1 -1 -1 -1 -1 -1 -1 -1 -1 -1 -1 -1
 MicOpt= -1 -1 -1 -1 -1 -1 -1 -1 -1 -1 -1 -1 -1 -1 -1
 NAtoms=     75 NQM=       75 NQMF=       0 NMMI=      0 NMMIF=      0
                NMic=       0 NMicF=      0.
                    Isotopes and Nuclear Properties:
 (Nuclear quadrupole moments (NQMom) in fm**2, nuclear magnetic moments (NMagM)
  in nuclear magnetons)

  Atom         1           2           3           4           5           6           7           8           9          10
 IAtWgt=          12          12          12          12          12          12          12          12          12          12
 AtmWgt=  12.0000000  12.0000000  12.0000000  12.0000000  12.0000000  12.0000000  12.0000000  12.0000000  12.0000000  12.0000000
 NucSpn=           0           0           0           0           0           0           0           0           0           0
 AtZEff=  -0.0000000  -0.0000000  -0.0000000  -0.0000000  -0.0000000  -0.0000000  -0.0000000  -0.0000000  -0.0000000  -0.0000000
 NQMom=    0.0000000   0.0000000   0.0000000   0.0000000   0.0000000   0.0000000   0.0000000   0.0000000   0.0000000   0.0000000
 NMagM=    0.0000000   0.0000000   0.0000000   0.0000000   0.0000000   0.0000000   0.0000000   0.0000000   0.0000000   0.0000000
 AtZNuc=   6.0000000   6.0000000   6.0000000   6.0000000   6.0000000   6.0000000   6.0000000   6.0000000   6.0000000   6.0000000

  Atom        11          12          13          14          15          16          17          18          19          20
 IAtWgt=          12          12          12          12          12          12          12          12          12          12
 AtmWgt=  12.0000000  12.0000000  12.0000000  12.0000000  12.0000000  12.0000000  12.0000000  12.0000000  12.0000000  12.0000000
 NucSpn=           0           0           0           0           0           0           0           0           0           0
 AtZEff=  -0.0000000  -0.0000000  -0.0000000  -0.0000000  -0.0000000  -0.0000000  -0.0000000  -0.0000000  -0.0000000  -0.0000000
 NQMom=    0.0000000   0.0000000   0.0000000   0.0000000   0.0000000   0.0000000   0.0000000   0.0000000   0.0000000   0.0000000
 NMagM=    0.0000000   0.0000000   0.0000000   0.0000000   0.0000000   0.0000000   0.0000000   0.0000000   0.0000000   0.0000000
 AtZNuc=   6.0000000   6.0000000   6.0000000   6.0000000   6.0000000   6.0000000   6.0000000   6.0000000   6.0000000   6.0000000

  Atom        21          22          23          24          25          26          27          28          29          30
 IAtWgt=          12          12          12          12          12          12          12          12          12          12
 AtmWgt=  12.0000000  12.0000000  12.0000000  12.0000000  12.0000000  12.0000000  12.0000000  12.0000000  12.0000000  12.0000000
 NucSpn=           0           0           0           0           0           0           0           0           0           0
 AtZEff=  -0.0000000  -0.0000000  -0.0000000  -0.0000000  -0.0000000  -0.0000000  -0.0000000  -0.0000000  -0.0000000  -0.0000000
 NQMom=    0.0000000   0.0000000   0.0000000   0.0000000   0.0000000   0.0000000   0.0000000   0.0000000   0.0000000   0.0000000
 NMagM=    0.0000000   0.0000000   0.0000000   0.0000000   0.0000000   0.0000000   0.0000000   0.0000000   0.0000000   0.0000000
 AtZNuc=   6.0000000   6.0000000   6.0000000   6.0000000   6.0000000   6.0000000   6.0000000   6.0000000   6.0000000   6.0000000

  Atom        31          32          33          34          35          36          37          38          39          40
 IAtWgt=          12          12          12          12          12          12          12          12          12          12
 AtmWgt=  12.0000000  12.0000000  12.0000000  12.0000000  12.0000000  12.0000000  12.0000000  12.0000000  12.0000000  12.0000000
 NucSpn=           0           0           0           0           0           0           0           0           0           0
 AtZEff=  -0.0000000  -0.0000000  -0.0000000  -0.0000000  -0.0000000  -0.0000000  -0.0000000  -0.0000000  -0.0000000  -0.0000000
 NQMom=    0.0000000   0.0000000   0.0000000   0.0000000   0.0000000   0.0000000   0.0000000   0.0000000   0.0000000   0.0000000
 NMagM=    0.0000000   0.0000000   0.0000000   0.0000000   0.0000000   0.0000000   0.0000000   0.0000000   0.0000000   0.0000000
 AtZNuc=   6.0000000   6.0000000   6.0000000   6.0000000   6.0000000   6.0000000   6.0000000   6.0000000   6.0000000   6.0000000

  Atom        41          42          43          44          45          46          47          48          49          50
 IAtWgt=          12          12          12          12          12          12          12          12          12          12
 AtmWgt=  12.0000000  12.0000000  12.0000000  12.0000000  12.0000000  12.0000000  12.0000000  12.0000000  12.0000000  12.0000000
 NucSpn=           0           0           0           0           0           0           0           0           0           0
 AtZEff=  -0.0000000  -0.0000000  -0.0000000  -0.0000000  -0.0000000  -0.0000000  -0.0000000  -0.0000000  -0.0000000  -0.0000000
 NQMom=    0.0000000   0.0000000   0.0000000   0.0000000   0.0000000   0.0000000   0.0000000   0.0000000   0.0000000   0.0000000
 NMagM=    0.0000000   0.0000000   0.0000000   0.0000000   0.0000000   0.0000000   0.0000000   0.0000000   0.0000000   0.0000000
 AtZNuc=   6.0000000   6.0000000   6.0000000   6.0000000   6.0000000   6.0000000   6.0000000   6.0000000   6.0000000   6.0000000

  Atom        51          52          53          54          55          56          57          58          59          60
 IAtWgt=          12          12          12          12          12          12          12          12          12          12
 AtmWgt=  12.0000000  12.0000000  12.0000000  12.0000000  12.0000000  12.0000000  12.0000000  12.0000000  12.0000000  12.0000000
 NucSpn=           0           0           0           0           0           0           0           0           0           0
 AtZEff=  -0.0000000  -0.0000000  -0.0000000  -0.0000000  -0.0000000  -0.0000000  -0.0000000  -0.0000000  -0.0000000  -0.0000000
 NQMom=    0.0000000   0.0000000   0.0000000   0.0000000   0.0000000   0.0000000   0.0000000   0.0000000   0.0000000   0.0000000
 NMagM=    0.0000000   0.0000000   0.0000000   0.0000000   0.0000000   0.0000000   0.0000000   0.0000000   0.0000000   0.0000000
 AtZNuc=   6.0000000   6.0000000   6.0000000   6.0000000   6.0000000   6.0000000   6.0000000   6.0000000   6.0000000   6.0000000

  Atom        61          62          63          64          65          66          67          68          69          70
 IAtWgt=          12          12          12          12          12          12          35          35          35          35
 AtmWgt=  12.0000000  12.0000000  12.0000000  12.0000000  12.0000000  12.0000000  34.9688527  34.9688527  34.9688527  34.9688527
 NucSpn=           0           0           0           0           0           0           3           3           3           3
 AtZEff=  -0.0000000  -0.0000000  -0.0000000  -0.0000000  -0.0000000  -0.0000000  -0.0000000  -0.0000000  -0.0000000  -0.0000000
 NQMom=    0.0000000   0.0000000   0.0000000   0.0000000   0.0000000   0.0000000  -8.1650000  -8.1650000  -8.1650000  -8.1650000
 NMagM=    0.0000000   0.0000000   0.0000000   0.0000000   0.0000000   0.0000000   0.8218740   0.8218740   0.8218740   0.8218740
 AtZNuc=   6.0000000   6.0000000   6.0000000   6.0000000   6.0000000   6.0000000  17.0000000  17.0000000  17.0000000  17.0000000

  Atom        71          72          73          74          75
 IAtWgt=          35          35          35          35          35
 AtmWgt=  34.9688527  34.9688527  34.9688527  34.9688527  34.9688527
 NucSpn=           3           3           3           3           3
 AtZEff=  -0.0000000  -0.0000000  -0.0000000  -0.0000000  -0.0000000
 NQMom=   -8.1650000  -8.1650000  -8.1650000  -8.1650000  -8.1650000
 NMagM=    0.8218740   0.8218740   0.8218740   0.8218740   0.8218740
 AtZNuc=  17.0000000  17.0000000  17.0000000  17.0000000  17.0000000
 Leave Link  101 at Fri Jul 15 01:19:23 2022, MaxMem=  1342177280 cpu:              13.5 elap:               0.3
 (Enter /home/mkliu/g16/l103.exe)

 GradGradGradGradGradGradGradGradGradGradGradGradGradGradGradGradGradGrad
 Berny optimization.
 Initialization pass.
                           ----------------------------
                           !    Initial Parameters    !
                           ! (Angstroms and Degrees)  !
 --------------------------                            --------------------------
 ! Name  Definition              Value          Derivative Info.                !
 --------------------------------------------------------------------------------
 ! R1    R(1,2)                  1.5695         estimate D2E/DX2                !
 ! R2    R(1,4)                  1.5627         estimate D2E/DX2                !
 ! R3    R(1,7)                  1.4754         estimate D2E/DX2                !
 ! R4    R(1,67)                 1.7877         estimate D2E/DX2                !
 ! R5    R(2,3)                  1.5542         estimate D2E/DX2                !
 ! R6    R(2,10)                 1.5742         estimate D2E/DX2                !
 ! R7    R(2,68)                 1.7742         estimate D2E/DX2                !
 ! R8    R(3,5)                  1.4804         estimate D2E/DX2                !
 ! R9    R(3,12)                 1.4983         estimate D2E/DX2                !
 ! R10   R(3,69)                 1.7816         estimate D2E/DX2                !
 ! R11   R(4,5)                  1.4765         estimate D2E/DX2                !
 ! R12   R(4,6)                  1.5673         estimate D2E/DX2                !
 ! R13   R(4,73)                 1.7814         estimate D2E/DX2                !
 ! R14   R(5,15)                 1.3297         estimate D2E/DX2                !
 ! R15   R(6,8)                  1.4918         estimate D2E/DX2                !
 ! R16   R(6,17)                 1.5078         estimate D2E/DX2                !
 ! R17   R(6,74)                 1.8109         estimate D2E/DX2                !
 ! R18   R(7,8)                  1.3604         estimate D2E/DX2                !
 ! R19   R(7,9)                  1.4189         estimate D2E/DX2                !
 ! R20   R(8,20)                 1.4225         estimate D2E/DX2                !
 ! R21   R(9,11)                 1.4078         estimate D2E/DX2                !
 ! R22   R(9,22)                 1.3916         estimate D2E/DX2                !
 ! R23   R(10,11)                1.5017         estimate D2E/DX2                !
 ! R24   R(10,13)                1.5138         estimate D2E/DX2                !
 ! R25   R(10,75)                1.8144         estimate D2E/DX2                !
 ! R26   R(11,25)                1.4055         estimate D2E/DX2                !
 ! R27   R(12,13)                1.3675         estimate D2E/DX2                !
 ! R28   R(12,14)                1.3919         estimate D2E/DX2                !
 ! R29   R(13,27)                1.3981         estimate D2E/DX2                !
 ! R30   R(14,16)                1.5141         estimate D2E/DX2                !
 ! R31   R(14,29)                1.402          estimate D2E/DX2                !
 ! R32   R(15,16)                1.5113         estimate D2E/DX2                !
 ! R33   R(15,18)                1.4613         estimate D2E/DX2                !
 ! R34   R(16,32)                1.4959         estimate D2E/DX2                !
 ! R35   R(16,70)                1.7946         estimate D2E/DX2                !
 ! R36   R(17,18)                1.376          estimate D2E/DX2                !
 ! R37   R(17,19)                1.4518         estimate D2E/DX2                !
 ! R38   R(18,33)                1.4154         estimate D2E/DX2                !
 ! R39   R(19,21)                1.4547         estimate D2E/DX2                !
 ! R40   R(19,35)                1.3988         estimate D2E/DX2                !
 ! R41   R(20,21)                1.441          estimate D2E/DX2                !
 ! R42   R(20,23)                1.3905         estimate D2E/DX2                !
 ! R43   R(21,38)                1.4057         estimate D2E/DX2                !
 ! R44   R(22,23)                1.4212         estimate D2E/DX2                !
 ! R45   R(22,24)                1.4262         estimate D2E/DX2                !
 ! R46   R(23,40)                1.4264         estimate D2E/DX2                !
 ! R47   R(24,26)                1.3742         estimate D2E/DX2                !
 ! R48   R(24,41)                1.4376         estimate D2E/DX2                !
 ! R49   R(25,26)                1.445          estimate D2E/DX2                !
 ! R50   R(25,28)                1.4335         estimate D2E/DX2                !
 ! R51   R(26,44)                1.4378         estimate D2E/DX2                !
 ! R52   R(27,28)                1.4397         estimate D2E/DX2                !
 ! R53   R(27,30)                1.4098         estimate D2E/DX2                !
 ! R54   R(28,45)                1.4304         estimate D2E/DX2                !
 ! R55   R(29,30)                1.4023         estimate D2E/DX2                !
 ! R56   R(29,31)                1.52           estimate D2E/DX2                !
 ! R57   R(30,47)                1.5158         estimate D2E/DX2                !
 ! R58   R(31,34)                1.5096         estimate D2E/DX2                !
 ! R59   R(31,49)                1.5022         estimate D2E/DX2                !
 ! R60   R(31,71)                1.8052         estimate D2E/DX2                !
 ! R61   R(32,33)                1.4363         estimate D2E/DX2                !
 ! R62   R(32,34)                1.3538         estimate D2E/DX2                !
 ! R63   R(33,36)                1.3722         estimate D2E/DX2                !
 ! R64   R(34,51)                1.4358         estimate D2E/DX2                !
 ! R65   R(35,36)                1.4354         estimate D2E/DX2                !
 ! R66   R(35,37)                1.43           estimate D2E/DX2                !
 ! R67   R(36,52)                1.4251         estimate D2E/DX2                !
 ! R68   R(37,39)                1.3722         estimate D2E/DX2                !
 ! R69   R(37,53)                1.4445         estimate D2E/DX2                !
 ! R70   R(38,39)                1.429          estimate D2E/DX2                !
 ! R71   R(38,42)                1.4394         estimate D2E/DX2                !
 ! R72   R(39,57)                1.4402         estimate D2E/DX2                !
 ! R73   R(40,41)                1.4359         estimate D2E/DX2                !
 ! R74   R(40,42)                1.3741         estimate D2E/DX2                !
 ! R75   R(41,43)                1.3788         estimate D2E/DX2                !
 ! R76   R(42,58)                1.438          estimate D2E/DX2                !
 ! R77   R(43,46)                1.4438         estimate D2E/DX2                !
 ! R78   R(43,59)                1.4343         estimate D2E/DX2                !
 ! R79   R(44,45)                1.4395         estimate D2E/DX2                !
 ! R80   R(44,46)                1.3802         estimate D2E/DX2                !
 ! R81   R(45,48)                1.3807         estimate D2E/DX2                !
 ! R82   R(46,61)                1.4309         estimate D2E/DX2                !
 ! R83   R(47,48)                1.5031         estimate D2E/DX2                !
 ! R84   R(47,50)                1.5022         estimate D2E/DX2                !
 ! R85   R(47,72)                1.8174         estimate D2E/DX2                !
 ! R86   R(48,62)                1.4158         estimate D2E/DX2                !
 ! R87   R(49,50)                1.3574         estimate D2E/DX2                !
 ! R88   R(49,54)                1.4318         estimate D2E/DX2                !
 ! R89   R(50,63)                1.4287         estimate D2E/DX2                !
 ! R90   R(51,52)                1.3871         estimate D2E/DX2                !
 ! R91   R(51,54)                1.4254         estimate D2E/DX2                !
 ! R92   R(52,53)                1.4328         estimate D2E/DX2                !
 ! R93   R(53,55)                1.3786         estimate D2E/DX2                !
 ! R94   R(54,56)                1.3857         estimate D2E/DX2                !
 ! R95   R(55,56)                1.438          estimate D2E/DX2                !
 ! R96   R(55,60)                1.44           estimate D2E/DX2                !
 ! R97   R(56,64)                1.4233         estimate D2E/DX2                !
 ! R98   R(57,58)                1.4315         estimate D2E/DX2                !
 ! R99   R(57,60)                1.3817         estimate D2E/DX2                !
 ! R100  R(58,59)                1.3858         estimate D2E/DX2                !
 ! R101  R(59,65)                1.4423         estimate D2E/DX2                !
 ! R102  R(60,66)                1.4351         estimate D2E/DX2                !
 ! R103  R(61,62)                1.3956         estimate D2E/DX2                !
 ! R104  R(61,65)                1.4333         estimate D2E/DX2                !
 ! R105  R(62,63)                1.435          estimate D2E/DX2                !
 ! R106  R(63,64)                1.3784         estimate D2E/DX2                !
 ! R107  R(64,66)                1.4384         estimate D2E/DX2                !
 ! R108  R(65,66)                1.3834         estimate D2E/DX2                !
 ! A1    A(2,1,4)              108.6823         estimate D2E/DX2                !
 ! A2    A(2,1,7)              114.6461         estimate D2E/DX2                !
 ! A3    A(2,1,67)             112.9252         estimate D2E/DX2                !
 ! A4    A(4,1,7)              102.5957         estimate D2E/DX2                !
 ! A5    A(4,1,67)             112.0711         estimate D2E/DX2                !
 ! A6    A(7,1,67)             105.5033         estimate D2E/DX2                !
 ! A7    A(1,2,3)              104.083          estimate D2E/DX2                !
 ! A8    A(1,2,10)             114.9278         estimate D2E/DX2                !
 ! A9    A(1,2,68)             109.2667         estimate D2E/DX2                !
 ! A10   A(3,2,10)             104.2372         estimate D2E/DX2                !
 ! A11   A(3,2,68)             111.0745         estimate D2E/DX2                !
 ! A12   A(10,2,68)            112.7891         estimate D2E/DX2                !
 ! A13   A(2,3,5)              107.0161         estimate D2E/DX2                !
 ! A14   A(2,3,12)             107.0269         estimate D2E/DX2                !
 ! A15   A(2,3,69)             115.5059         estimate D2E/DX2                !
 ! A16   A(5,3,12)             103.8159         estimate D2E/DX2                !
 ! A17   A(5,3,69)             112.0966         estimate D2E/DX2                !
 ! A18   A(12,3,69)            110.6001         estimate D2E/DX2                !
 ! A19   A(1,4,5)              102.6104         estimate D2E/DX2                !
 ! A20   A(1,4,6)              106.7956         estimate D2E/DX2                !
 ! A21   A(1,4,73)             112.1069         estimate D2E/DX2                !
 ! A22   A(5,4,6)              111.4622         estimate D2E/DX2                !
 ! A23   A(5,4,73)             108.7219         estimate D2E/DX2                !
 ! A24   A(6,4,73)             114.5154         estimate D2E/DX2                !
 ! A25   A(3,5,4)              112.8977         estimate D2E/DX2                !
 ! A26   A(3,5,15)             120.1196         estimate D2E/DX2                !
 ! A27   A(4,5,15)             125.0251         estimate D2E/DX2                !
 ! A28   A(4,6,8)              102.8025         estimate D2E/DX2                !
 ! A29   A(4,6,17)             117.0975         estimate D2E/DX2                !
 ! A30   A(4,6,74)             111.4887         estimate D2E/DX2                !
 ! A31   A(8,6,17)             107.6661         estimate D2E/DX2                !
 ! A32   A(8,6,74)             109.378          estimate D2E/DX2                !
 ! A33   A(17,6,74)            108.0693         estimate D2E/DX2                !
 ! A34   A(1,7,8)              112.9419         estimate D2E/DX2                !
 ! A35   A(1,7,9)              124.9658         estimate D2E/DX2                !
 ! A36   A(8,7,9)              120.0855         estimate D2E/DX2                !
 ! A37   A(6,8,7)              112.3289         estimate D2E/DX2                !
 ! A38   A(6,8,20)             121.9715         estimate D2E/DX2                !
 ! A39   A(7,8,20)             123.8775         estimate D2E/DX2                !
 ! A40   A(7,9,11)             116.8593         estimate D2E/DX2                !
 ! A41   A(7,9,22)             115.0507         estimate D2E/DX2                !
 ! A42   A(11,9,22)            121.3901         estimate D2E/DX2                !
 ! A43   A(2,10,11)            119.0152         estimate D2E/DX2                !
 ! A44   A(2,10,13)            105.3427         estimate D2E/DX2                !
 ! A45   A(2,10,75)            111.5867         estimate D2E/DX2                !
 ! A46   A(11,10,13)           104.2915         estimate D2E/DX2                !
 ! A47   A(11,10,75)           107.5471         estimate D2E/DX2                !
 ! A48   A(13,10,75)           108.3894         estimate D2E/DX2                !
 ! A49   A(9,11,10)            122.3968         estimate D2E/DX2                !
 ! A50   A(9,11,25)            116.3792         estimate D2E/DX2                !
 ! A51   A(10,11,25)           116.1845         estimate D2E/DX2                !
 ! A52   A(3,12,13)            110.817          estimate D2E/DX2                !
 ! A53   A(3,12,14)            125.514          estimate D2E/DX2                !
 ! A54   A(13,12,14)           120.9258         estimate D2E/DX2                !
 ! A55   A(10,13,12)           111.9588         estimate D2E/DX2                !
 ! A56   A(10,13,27)           125.5748         estimate D2E/DX2                !
 ! A57   A(12,13,27)           120.4078         estimate D2E/DX2                !
 ! A58   A(12,14,16)           116.3503         estimate D2E/DX2                !
 ! A59   A(12,14,29)           119.7601         estimate D2E/DX2                !
 ! A60   A(16,14,29)           122.3453         estimate D2E/DX2                !
 ! A61   A(5,15,16)            124.9494         estimate D2E/DX2                !
 ! A62   A(5,15,18)            119.2496         estimate D2E/DX2                !
 ! A63   A(16,15,18)           110.1687         estimate D2E/DX2                !
 ! A64   A(14,16,15)           104.7785         estimate D2E/DX2                !
 ! A65   A(14,16,32)           109.4372         estimate D2E/DX2                !
 ! A66   A(14,16,70)           110.9148         estimate D2E/DX2                !
 ! A67   A(15,16,32)           102.3368         estimate D2E/DX2                !
 ! A68   A(15,16,70)           116.4087         estimate D2E/DX2                !
 ! A69   A(32,16,70)           112.3422         estimate D2E/DX2                !
 ! A70   A(6,17,18)            119.5456         estimate D2E/DX2                !
 ! A71   A(6,17,19)            119.226          estimate D2E/DX2                !
 ! A72   A(18,17,19)           118.4947         estimate D2E/DX2                !
 ! A73   A(15,18,17)           120.6499         estimate D2E/DX2                !
 ! A74   A(15,18,33)           106.9654         estimate D2E/DX2                !
 ! A75   A(17,18,33)           123.6619         estimate D2E/DX2                !
 ! A76   A(17,19,21)           119.349          estimate D2E/DX2                !
 ! A77   A(17,19,35)           116.7604         estimate D2E/DX2                !
 ! A78   A(21,19,35)           117.5845         estimate D2E/DX2                !
 ! A79   A(8,20,21)            119.0876         estimate D2E/DX2                !
 ! A80   A(8,20,23)            114.5103         estimate D2E/DX2                !
 ! A81   A(21,20,23)           120.6938         estimate D2E/DX2                !
 ! A82   A(19,21,20)           118.5485         estimate D2E/DX2                !
 ! A83   A(19,21,38)           118.6685         estimate D2E/DX2                !
 ! A84   A(20,21,38)           116.2539         estimate D2E/DX2                !
 ! A85   A(9,22,23)            122.2898         estimate D2E/DX2                !
 ! A86   A(9,22,24)            121.2448         estimate D2E/DX2                !
 ! A87   A(23,22,24)           107.8456         estimate D2E/DX2                !
 ! A88   A(20,23,22)           120.4964         estimate D2E/DX2                !
 ! A89   A(20,23,40)           121.9691         estimate D2E/DX2                !
 ! A90   A(22,23,40)           108.1933         estimate D2E/DX2                !
 ! A91   A(22,24,26)           118.3948         estimate D2E/DX2                !
 ! A92   A(22,24,41)           108.595          estimate D2E/DX2                !
 ! A93   A(26,24,41)           121.2469         estimate D2E/DX2                !
 ! A94   A(11,25,26)           121.9754         estimate D2E/DX2                !
 ! A95   A(11,25,28)           122.5667         estimate D2E/DX2                !
 ! A96   A(26,25,28)           105.8478         estimate D2E/DX2                !
 ! A97   A(24,26,25)           119.2874         estimate D2E/DX2                !
 ! A98   A(24,26,44)           119.2232         estimate D2E/DX2                !
 ! A99   A(25,26,44)           109.2243         estimate D2E/DX2                !
 ! A100  A(13,27,28)           115.4921         estimate D2E/DX2                !
 ! A101  A(13,27,30)           118.5597         estimate D2E/DX2                !
 ! A102  A(28,27,30)           122.7292         estimate D2E/DX2                !
 ! A103  A(25,28,27)           116.1968         estimate D2E/DX2                !
 ! A104  A(25,28,45)           110.0115         estimate D2E/DX2                !
 ! A105  A(27,28,45)           118.1125         estimate D2E/DX2                !
 ! A106  A(14,29,30)           118.5291         estimate D2E/DX2                !
 ! A107  A(14,29,31)           119.1572         estimate D2E/DX2                !
 ! A108  A(30,29,31)           121.5294         estimate D2E/DX2                !
 ! A109  A(27,30,29)           120.7943         estimate D2E/DX2                !
 ! A110  A(27,30,47)           117.377          estimate D2E/DX2                !
 ! A111  A(29,30,47)           120.932          estimate D2E/DX2                !
 ! A112  A(29,31,34)           109.1843         estimate D2E/DX2                !
 ! A113  A(29,31,49)           110.6945         estimate D2E/DX2                !
 ! A114  A(29,31,71)           107.7894         estimate D2E/DX2                !
 ! A115  A(34,31,49)           101.3282         estimate D2E/DX2                !
 ! A116  A(34,31,71)           114.038          estimate D2E/DX2                !
 ! A117  A(49,31,71)           113.6898         estimate D2E/DX2                !
 ! A118  A(16,32,33)           109.8429         estimate D2E/DX2                !
 ! A119  A(16,32,34)           122.1538         estimate D2E/DX2                !
 ! A120  A(33,32,34)           118.8722         estimate D2E/DX2                !
 ! A121  A(18,33,32)           110.0389         estimate D2E/DX2                !
 ! A122  A(18,33,36)           118.1258         estimate D2E/DX2                !
 ! A123  A(32,33,36)           121.6872         estimate D2E/DX2                !
 ! A124  A(31,34,32)           122.419          estimate D2E/DX2                !
 ! A125  A(31,34,51)           110.6967         estimate D2E/DX2                !
 ! A126  A(32,34,51)           119.692          estimate D2E/DX2                !
 ! A127  A(19,35,36)           122.2041         estimate D2E/DX2                !
 ! A128  A(19,35,37)           122.5954         estimate D2E/DX2                !
 ! A129  A(36,35,37)           106.3874         estimate D2E/DX2                !
 ! A130  A(33,36,35)           119.4313         estimate D2E/DX2                !
 ! A131  A(33,36,52)           119.0796         estimate D2E/DX2                !
 ! A132  A(35,36,52)           109.692          estimate D2E/DX2                !
 ! A133  A(35,37,39)           119.7519         estimate D2E/DX2                !
 ! A134  A(35,37,53)           108.5091         estimate D2E/DX2                !
 ! A135  A(39,37,53)           120.2267         estimate D2E/DX2                !
 ! A136  A(21,38,39)           122.0737         estimate D2E/DX2                !
 ! A137  A(21,38,42)           122.2068         estimate D2E/DX2                !
 ! A138  A(39,38,42)           106.6469         estimate D2E/DX2                !
 ! A139  A(37,39,38)           119.168          estimate D2E/DX2                !
 ! A140  A(37,39,57)           120.4523         estimate D2E/DX2                !
 ! A141  A(38,39,57)           109.0235         estimate D2E/DX2                !
 ! A142  A(23,40,41)           108.4573         estimate D2E/DX2                !
 ! A143  A(23,40,42)           118.2421         estimate D2E/DX2                !
 ! A144  A(41,40,42)           121.5523         estimate D2E/DX2                !
 ! A145  A(24,41,40)           106.7259         estimate D2E/DX2                !
 ! A146  A(24,41,43)           119.7277         estimate D2E/DX2                !
 ! A147  A(40,41,43)           119.3288         estimate D2E/DX2                !
 ! A148  A(38,42,40)           120.3531         estimate D2E/DX2                !
 ! A149  A(38,42,58)           108.9067         estimate D2E/DX2                !
 ! A150  A(40,42,58)           119.1238         estimate D2E/DX2                !
 ! A151  A(41,43,46)           119.1289         estimate D2E/DX2                !
 ! A152  A(41,43,59)           119.3758         estimate D2E/DX2                !
 ! A153  A(46,43,59)           108.5825         estimate D2E/DX2                !
 ! A154  A(26,44,45)           107.4429         estimate D2E/DX2                !
 ! A155  A(26,44,46)           119.7681         estimate D2E/DX2                !
 ! A156  A(45,44,46)           120.3692         estimate D2E/DX2                !
 ! A157  A(28,45,44)           107.327          estimate D2E/DX2                !
 ! A158  A(28,45,48)           120.4268         estimate D2E/DX2                !
 ! A159  A(44,45,48)           120.646          estimate D2E/DX2                !
 ! A160  A(43,46,44)           120.832          estimate D2E/DX2                !
 ! A161  A(43,46,61)           107.8007         estimate D2E/DX2                !
 ! A162  A(44,46,61)           119.3346         estimate D2E/DX2                !
 ! A163  A(30,47,48)           112.0546         estimate D2E/DX2                !
 ! A164  A(30,47,50)           110.5069         estimate D2E/DX2                !
 ! A165  A(30,47,72)           106.3411         estimate D2E/DX2                !
 ! A166  A(48,47,50)           101.4068         estimate D2E/DX2                !
 ! A167  A(48,47,72)           113.765          estimate D2E/DX2                !
 ! A168  A(50,47,72)           112.8697         estimate D2E/DX2                !
 ! A169  A(45,48,47)           122.4496         estimate D2E/DX2                !
 ! A170  A(45,48,62)           118.5437         estimate D2E/DX2                !
 ! A171  A(47,48,62)           111.3017         estimate D2E/DX2                !
 ! A172  A(31,49,50)           122.2338         estimate D2E/DX2                !
 ! A173  A(31,49,54)           110.7336         estimate D2E/DX2                !
 ! A174  A(50,49,54)           119.4858         estimate D2E/DX2                !
 ! A175  A(47,50,49)           123.0049         estimate D2E/DX2                !
 ! A176  A(47,50,63)           110.4274         estimate D2E/DX2                !
 ! A177  A(49,50,63)           119.5586         estimate D2E/DX2                !
 ! A178  A(34,51,52)           120.8596         estimate D2E/DX2                !
 ! A179  A(34,51,54)           108.1473         estimate D2E/DX2                !
 ! A180  A(52,51,54)           119.5487         estimate D2E/DX2                !
 ! A181  A(36,52,51)           118.8764         estimate D2E/DX2                !
 ! A182  A(36,52,53)           106.9958         estimate D2E/DX2                !
 ! A183  A(51,52,53)           121.0099         estimate D2E/DX2                !
 ! A184  A(37,53,52)           107.8831         estimate D2E/DX2                !
 ! A185  A(37,53,55)           119.5126         estimate D2E/DX2                !
 ! A186  A(52,53,55)           119.6565         estimate D2E/DX2                !
 ! A187  A(49,54,51)           108.562          estimate D2E/DX2                !
 ! A188  A(49,54,56)           121.1155         estimate D2E/DX2                !
 ! A189  A(51,54,56)           119.1849         estimate D2E/DX2                !
 ! A190  A(53,55,56)           119.0084         estimate D2E/DX2                !
 ! A191  A(53,55,60)           119.8359         estimate D2E/DX2                !
 ! A192  A(56,55,60)           108.6987         estimate D2E/DX2                !
 ! A193  A(54,56,55)           121.3858         estimate D2E/DX2                !
 ! A194  A(54,56,64)           119.216          estimate D2E/DX2                !
 ! A195  A(55,56,64)           107.6564         estimate D2E/DX2                !
 ! A196  A(39,57,58)           107.6577         estimate D2E/DX2                !
 ! A197  A(39,57,60)           119.0438         estimate D2E/DX2                !
 ! A198  A(58,57,60)           119.8556         estimate D2E/DX2                !
 ! A199  A(42,58,57)           107.492          estimate D2E/DX2                !
 ! A200  A(42,58,59)           119.2961         estimate D2E/DX2                !
 ! A201  A(57,58,59)           120.4115         estimate D2E/DX2                !
 ! A202  A(43,59,58)           121.0675         estimate D2E/DX2                !
 ! A203  A(43,59,65)           106.9268         estimate D2E/DX2                !
 ! A204  A(58,59,65)           119.6772         estimate D2E/DX2                !
 ! A205  A(55,60,57)           120.6132         estimate D2E/DX2                !
 ! A206  A(55,60,66)           106.901          estimate D2E/DX2                !
 ! A207  A(57,60,66)           119.9781         estimate D2E/DX2                !
 ! A208  A(46,61,62)           119.3344         estimate D2E/DX2                !
 ! A209  A(46,61,65)           107.8259         estimate D2E/DX2                !
 ! A210  A(62,61,65)           120.1774         estimate D2E/DX2                !
 ! A211  A(48,62,61)           121.7089         estimate D2E/DX2                !
 ! A212  A(48,62,63)           108.0004         estimate D2E/DX2                !
 ! A213  A(61,62,63)           119.6342         estimate D2E/DX2                !
 ! A214  A(50,63,62)           108.4928         estimate D2E/DX2                !
 ! A215  A(50,63,64)           121.5712         estimate D2E/DX2                !
 ! A216  A(62,63,64)           119.5959         estimate D2E/DX2                !
 ! A217  A(56,64,63)           118.9694         estimate D2E/DX2                !
 ! A218  A(56,64,66)           108.2336         estimate D2E/DX2                !
 ! A219  A(63,64,66)           121.0417         estimate D2E/DX2                !
 ! A220  A(59,65,61)           108.8145         estimate D2E/DX2                !
 ! A221  A(59,65,66)           119.5761         estimate D2E/DX2                !
 ! A222  A(61,65,66)           120.1018         estimate D2E/DX2                !
 ! A223  A(60,66,64)           108.4471         estimate D2E/DX2                !
 ! A224  A(60,66,65)           120.3679         estimate D2E/DX2                !
 ! A225  A(64,66,65)           119.2814         estimate D2E/DX2                !
 ! D1    D(4,1,2,3)            -10.7106         estimate D2E/DX2                !
 ! D2    D(4,1,2,10)          -124.0516         estimate D2E/DX2                !
 ! D3    D(4,1,2,68)           108.0015         estimate D2E/DX2                !
 ! D4    D(7,1,2,3)            103.3945         estimate D2E/DX2                !
 ! D5    D(7,1,2,10)            -9.9464         estimate D2E/DX2                !
 ! D6    D(7,1,2,68)          -137.8934         estimate D2E/DX2                !
 ! D7    D(67,1,2,3)          -135.7181         estimate D2E/DX2                !
 ! D8    D(67,1,2,10)          110.9409         estimate D2E/DX2                !
 ! D9    D(67,1,2,68)          -17.006          estimate D2E/DX2                !
 ! D10   D(2,1,4,5)             19.6704         estimate D2E/DX2                !
 ! D11   D(2,1,4,6)            137.0036         estimate D2E/DX2                !
 ! D12   D(2,1,4,73)           -96.8093         estimate D2E/DX2                !
 ! D13   D(7,1,4,5)           -102.1068         estimate D2E/DX2                !
 ! D14   D(7,1,4,6)             15.2264         estimate D2E/DX2                !
 ! D15   D(7,1,4,73)           141.4135         estimate D2E/DX2                !
 ! D16   D(67,1,4,5)           145.1784         estimate D2E/DX2                !
 ! D17   D(67,1,4,6)           -97.4884         estimate D2E/DX2                !
 ! D18   D(67,1,4,73)           28.6987         estimate D2E/DX2                !
 ! D19   D(2,1,7,8)           -133.0945         estimate D2E/DX2                !
 ! D20   D(2,1,7,9)             30.6982         estimate D2E/DX2                !
 ! D21   D(4,1,7,8)            -15.4725         estimate D2E/DX2                !
 ! D22   D(4,1,7,9)            148.3202         estimate D2E/DX2                !
 ! D23   D(67,1,7,8)           102.0142         estimate D2E/DX2                !
 ! D24   D(67,1,7,9)           -94.1932         estimate D2E/DX2                !
 ! D25   D(1,2,3,5)             -2.5884         estimate D2E/DX2                !
 ! D26   D(1,2,3,12)          -113.3762         estimate D2E/DX2                !
 ! D27   D(1,2,3,69)           122.9945         estimate D2E/DX2                !
 ! D28   D(10,2,3,5)           118.2059         estimate D2E/DX2                !
 ! D29   D(10,2,3,12)            7.4182         estimate D2E/DX2                !
 ! D30   D(10,2,3,69)         -116.2111         estimate D2E/DX2                !
 ! D31   D(68,2,3,5)          -120.0562         estimate D2E/DX2                !
 ! D32   D(68,2,3,12)          129.1561         estimate D2E/DX2                !
 ! D33   D(68,2,3,69)            5.5268         estimate D2E/DX2                !
 ! D34   D(1,2,10,11)           -7.7677         estimate D2E/DX2                !
 ! D35   D(1,2,10,13)          108.649          estimate D2E/DX2                !
 ! D36   D(1,2,10,75)         -133.9404         estimate D2E/DX2                !
 ! D37   D(3,2,10,11)         -121.0183         estimate D2E/DX2                !
 ! D38   D(3,2,10,13)           -4.6016         estimate D2E/DX2                !
 ! D39   D(3,2,10,75)          112.809          estimate D2E/DX2                !
 ! D40   D(68,2,10,11)         118.3852         estimate D2E/DX2                !
 ! D41   D(68,2,10,13)        -125.1981         estimate D2E/DX2                !
 ! D42   D(68,2,10,75)          -7.7875         estimate D2E/DX2                !
 ! D43   D(2,3,5,4)             16.2888         estimate D2E/DX2                !
 ! D44   D(2,3,5,15)          -148.576          estimate D2E/DX2                !
 ! D45   D(12,3,5,4)           129.2813         estimate D2E/DX2                !
 ! D46   D(12,3,5,15)          -35.5835         estimate D2E/DX2                !
 ! D47   D(69,3,5,4)          -111.3197         estimate D2E/DX2                !
 ! D48   D(69,3,5,15)           83.8155         estimate D2E/DX2                !
 ! D49   D(2,3,12,13)           -7.9678         estimate D2E/DX2                !
 ! D50   D(2,3,12,14)          153.2614         estimate D2E/DX2                !
 ! D51   D(5,3,12,13)         -120.9525         estimate D2E/DX2                !
 ! D52   D(5,3,12,14)           40.2767         estimate D2E/DX2                !
 ! D53   D(69,3,12,13)         118.6316         estimate D2E/DX2                !
 ! D54   D(69,3,12,14)         -80.1392         estimate D2E/DX2                !
 ! D55   D(1,4,5,3)            -22.2772         estimate D2E/DX2                !
 ! D56   D(1,4,5,15)           141.7137         estimate D2E/DX2                !
 ! D57   D(6,4,5,3)           -136.2384         estimate D2E/DX2                !
 ! D58   D(6,4,5,15)            27.7526         estimate D2E/DX2                !
 ! D59   D(73,4,5,3)            96.6045         estimate D2E/DX2                !
 ! D60   D(73,4,5,15)          -99.4046         estimate D2E/DX2                !
 ! D61   D(1,4,6,8)            -10.3251         estimate D2E/DX2                !
 ! D62   D(1,4,6,17)          -128.0904         estimate D2E/DX2                !
 ! D63   D(1,4,6,74)           106.7487         estimate D2E/DX2                !
 ! D64   D(5,4,6,8)            101.0028         estimate D2E/DX2                !
 ! D65   D(5,4,6,17)           -16.7624         estimate D2E/DX2                !
 ! D66   D(5,4,6,74)          -141.9234         estimate D2E/DX2                !
 ! D67   D(73,4,6,8)          -135.0549         estimate D2E/DX2                !
 ! D68   D(73,4,6,17)          107.1799         estimate D2E/DX2                !
 ! D69   D(73,4,6,74)          -17.9811         estimate D2E/DX2                !
 ! D70   D(3,5,15,16)           -2.6932         estimate D2E/DX2                !
 ! D71   D(3,5,15,18)          148.1755         estimate D2E/DX2                !
 ! D72   D(4,5,15,16)         -165.6127         estimate D2E/DX2                !
 ! D73   D(4,5,15,18)          -14.744          estimate D2E/DX2                !
 ! D74   D(4,6,8,7)              1.0594         estimate D2E/DX2                !
 ! D75   D(4,6,8,20)          -164.117          estimate D2E/DX2                !
 ! D76   D(17,6,8,7)           125.2959         estimate D2E/DX2                !
 ! D77   D(17,6,8,20)          -39.8805         estimate D2E/DX2                !
 ! D78   D(74,6,8,7)          -117.5048         estimate D2E/DX2                !
 ! D79   D(74,6,8,20)           77.3188         estimate D2E/DX2                !
 ! D80   D(4,6,17,18)           -5.1922         estimate D2E/DX2                !
 ! D81   D(4,6,17,19)          155.8057         estimate D2E/DX2                !
 ! D82   D(8,6,17,18)         -120.2919         estimate D2E/DX2                !
 ! D83   D(8,6,17,19)           40.706          estimate D2E/DX2                !
 ! D84   D(74,6,17,18)         121.6611         estimate D2E/DX2                !
 ! D85   D(74,6,17,19)         -77.341          estimate D2E/DX2                !
 ! D86   D(1,7,8,6)              9.5607         estimate D2E/DX2                !
 ! D87   D(1,7,8,20)           174.4066         estimate D2E/DX2                !
 ! D88   D(9,7,8,6)           -155.1112         estimate D2E/DX2                !
 ! D89   D(9,7,8,20)             9.7347         estimate D2E/DX2                !
 ! D90   D(1,7,9,11)           -30.3968         estimate D2E/DX2                !
 ! D91   D(1,7,9,22)           177.8191         estimate D2E/DX2                !
 ! D92   D(8,7,9,11)           132.3223         estimate D2E/DX2                !
 ! D93   D(8,7,9,22)           -19.4617         estimate D2E/DX2                !
 ! D94   D(6,8,20,21)           17.7879         estimate D2E/DX2                !
 ! D95   D(6,8,20,23)          171.3757         estimate D2E/DX2                !
 ! D96   D(7,8,20,21)         -145.6501         estimate D2E/DX2                !
 ! D97   D(7,8,20,23)            7.9377         estimate D2E/DX2                !
 ! D98   D(7,9,11,10)            8.5128         estimate D2E/DX2                !
 ! D99   D(7,9,11,25)         -145.3893         estimate D2E/DX2                !
 ! D100  D(22,9,11,10)         158.3963         estimate D2E/DX2                !
 ! D101  D(22,9,11,25)           4.4942         estimate D2E/DX2                !
 ! D102  D(7,9,22,23)           12.4243         estimate D2E/DX2                !
 ! D103  D(7,9,22,24)          156.2665         estimate D2E/DX2                !
 ! D104  D(11,9,22,23)        -137.9648         estimate D2E/DX2                !
 ! D105  D(11,9,22,24)           5.8774         estimate D2E/DX2                !
 ! D106  D(2,10,11,9)            9.2911         estimate D2E/DX2                !
 ! D107  D(2,10,11,25)         163.2402         estimate D2E/DX2                !
 ! D108  D(13,10,11,9)        -107.6788         estimate D2E/DX2                !
 ! D109  D(13,10,11,25)         46.2704         estimate D2E/DX2                !
 ! D110  D(75,10,11,9)         137.3613         estimate D2E/DX2                !
 ! D111  D(75,10,11,25)        -68.6895         estimate D2E/DX2                !
 ! D112  D(2,10,13,12)          -0.0618         estimate D2E/DX2                !
 ! D113  D(2,10,13,27)        -163.6715         estimate D2E/DX2                !
 ! D114  D(11,10,13,12)        126.0188         estimate D2E/DX2                !
 ! D115  D(11,10,13,27)        -37.5909         estimate D2E/DX2                !
 ! D116  D(75,10,13,12)       -119.6161         estimate D2E/DX2                !
 ! D117  D(75,10,13,27)         76.7741         estimate D2E/DX2                !
 ! D118  D(9,11,25,26)         -11.7614         estimate D2E/DX2                !
 ! D119  D(9,11,25,28)         129.5648         estimate D2E/DX2                !
 ! D120  D(10,11,25,26)       -167.3104         estimate D2E/DX2                !
 ! D121  D(10,11,25,28)        -25.9842         estimate D2E/DX2                !
 ! D122  D(3,12,13,10)           5.0516         estimate D2E/DX2                !
 ! D123  D(3,12,13,27)         169.6182         estimate D2E/DX2                !
 ! D124  D(14,12,13,10)       -157.1703         estimate D2E/DX2                !
 ! D125  D(14,12,13,27)          7.3963         estimate D2E/DX2                !
 ! D126  D(3,12,14,16)          -4.4537         estimate D2E/DX2                !
 ! D127  D(3,12,14,29)        -170.6174         estimate D2E/DX2                !
 ! D128  D(13,12,14,16)        155.0208         estimate D2E/DX2                !
 ! D129  D(13,12,14,29)        -11.1429         estimate D2E/DX2                !
 ! D130  D(10,13,27,28)          3.8495         estimate D2E/DX2                !
 ! D131  D(10,13,27,30)        164.1533         estimate D2E/DX2                !
 ! D132  D(12,13,27,28)       -158.4856         estimate D2E/DX2                !
 ! D133  D(12,13,27,30)          1.8182         estimate D2E/DX2                !
 ! D134  D(12,14,16,15)        -33.6793         estimate D2E/DX2                !
 ! D135  D(12,14,16,32)       -142.7915         estimate D2E/DX2                !
 ! D136  D(12,14,16,70)         92.7087         estimate D2E/DX2                !
 ! D137  D(29,14,16,15)        132.0953         estimate D2E/DX2                !
 ! D138  D(29,14,16,32)         22.9831         estimate D2E/DX2                !
 ! D139  D(29,14,16,70)       -101.5167         estimate D2E/DX2                !
 ! D140  D(12,14,29,30)          5.4859         estimate D2E/DX2                !
 ! D141  D(12,14,29,31)        175.5013         estimate D2E/DX2                !
 ! D142  D(16,14,29,30)       -159.82           estimate D2E/DX2                !
 ! D143  D(16,14,29,31)         10.1954         estimate D2E/DX2                !
 ! D144  D(5,15,16,14)          39.5619         estimate D2E/DX2                !
 ! D145  D(5,15,16,32)         153.7662         estimate D2E/DX2                !
 ! D146  D(5,15,16,70)         -83.3409         estimate D2E/DX2                !
 ! D147  D(18,15,16,14)       -113.5346         estimate D2E/DX2                !
 ! D148  D(18,15,16,32)          0.6698         estimate D2E/DX2                !
 ! D149  D(18,15,16,70)        123.5626         estimate D2E/DX2                !
 ! D150  D(5,15,18,17)         -11.526          estimate D2E/DX2                !
 ! D151  D(5,15,18,33)        -160.2187         estimate D2E/DX2                !
 ! D152  D(16,15,18,17)        143.318          estimate D2E/DX2                !
 ! D153  D(16,15,18,33)         -5.3748         estimate D2E/DX2                !
 ! D154  D(14,16,32,33)        115.0159         estimate D2E/DX2                !
 ! D155  D(14,16,32,34)        -31.4107         estimate D2E/DX2                !
 ! D156  D(15,16,32,33)          4.2792         estimate D2E/DX2                !
 ! D157  D(15,16,32,34)       -142.1474         estimate D2E/DX2                !
 ! D158  D(70,16,32,33)       -121.3208         estimate D2E/DX2                !
 ! D159  D(70,16,32,34)         92.2526         estimate D2E/DX2                !
 ! D160  D(6,17,18,15)          20.4231         estimate D2E/DX2                !
 ! D161  D(6,17,18,33)         163.7577         estimate D2E/DX2                !
 ! D162  D(19,17,18,15)       -140.7131         estimate D2E/DX2                !
 ! D163  D(19,17,18,33)          2.6215         estimate D2E/DX2                !
 ! D164  D(6,17,19,21)         -20.8879         estimate D2E/DX2                !
 ! D165  D(6,17,19,35)        -172.3513         estimate D2E/DX2                !
 ! D166  D(18,17,19,21)        140.3097         estimate D2E/DX2                !
 ! D167  D(18,17,19,35)        -11.1537         estimate D2E/DX2                !
 ! D168  D(15,18,33,32)          8.1452         estimate D2E/DX2                !
 ! D169  D(15,18,33,36)        154.1374         estimate D2E/DX2                !
 ! D170  D(17,18,33,32)       -139.3689         estimate D2E/DX2                !
 ! D171  D(17,18,33,36)          6.6233         estimate D2E/DX2                !
 ! D172  D(17,19,21,20)         -5.1141         estimate D2E/DX2                !
 ! D173  D(17,19,21,38)       -155.7367         estimate D2E/DX2                !
 ! D174  D(35,19,21,20)        146.1182         estimate D2E/DX2                !
 ! D175  D(35,19,21,38)         -4.5044         estimate D2E/DX2                !
 ! D176  D(17,19,35,36)         11.0856         estimate D2E/DX2                !
 ! D177  D(17,19,35,37)        154.0712         estimate D2E/DX2                !
 ! D178  D(21,19,35,36)       -140.8925         estimate D2E/DX2                !
 ! D179  D(21,19,35,37)          2.0931         estimate D2E/DX2                !
 ! D180  D(8,20,21,19)           7.0062         estimate D2E/DX2                !
 ! D181  D(8,20,21,38)         158.3253         estimate D2E/DX2                !
 ! D182  D(23,20,21,19)       -144.9153         estimate D2E/DX2                !
 ! D183  D(23,20,21,38)          6.4038         estimate D2E/DX2                !
 ! D184  D(8,20,23,22)         -14.9893         estimate D2E/DX2                !
 ! D185  D(8,20,23,40)        -157.6176         estimate D2E/DX2                !
 ! D186  D(21,20,23,22)        138.1353         estimate D2E/DX2                !
 ! D187  D(21,20,23,40)         -4.4931         estimate D2E/DX2                !
 ! D188  D(19,21,38,39)          4.1692         estimate D2E/DX2                !
 ! D189  D(19,21,38,42)        146.757          estimate D2E/DX2                !
 ! D190  D(20,21,38,39)       -147.1142         estimate D2E/DX2                !
 ! D191  D(20,21,38,42)         -4.5263         estimate D2E/DX2                !
 ! D192  D(9,22,23,20)           5.045          estimate D2E/DX2                !
 ! D193  D(9,22,23,40)         152.2238         estimate D2E/DX2                !
 ! D194  D(24,22,23,20)       -142.9541         estimate D2E/DX2                !
 ! D195  D(24,22,23,40)          4.2247         estimate D2E/DX2                !
 ! D196  D(9,22,24,26)          -9.1169         estimate D2E/DX2                !
 ! D197  D(9,22,24,41)        -152.6327         estimate D2E/DX2                !
 ! D198  D(23,22,24,26)        139.2835         estimate D2E/DX2                !
 ! D199  D(23,22,24,41)         -4.2323         estimate D2E/DX2                !
 ! D200  D(20,23,40,41)        143.9642         estimate D2E/DX2                !
 ! D201  D(20,23,40,42)          0.3077         estimate D2E/DX2                !
 ! D202  D(22,23,40,41)         -2.632          estimate D2E/DX2                !
 ! D203  D(22,23,40,42)       -146.2886         estimate D2E/DX2                !
 ! D204  D(22,24,26,25)          1.9455         estimate D2E/DX2                !
 ! D205  D(22,24,26,44)       -136.3294         estimate D2E/DX2                !
 ! D206  D(41,24,26,25)        140.708          estimate D2E/DX2                !
 ! D207  D(41,24,26,44)          2.4332         estimate D2E/DX2                !
 ! D208  D(22,24,41,40)          2.5899         estimate D2E/DX2                !
 ! D209  D(22,24,41,43)        142.1043         estimate D2E/DX2                !
 ! D210  D(26,24,41,40)       -139.6893         estimate D2E/DX2                !
 ! D211  D(26,24,41,43)         -0.1748         estimate D2E/DX2                !
 ! D212  D(11,25,26,24)          8.6979         estimate D2E/DX2                !
 ! D213  D(11,25,26,44)        150.735          estimate D2E/DX2                !
 ! D214  D(28,25,26,24)       -138.1105         estimate D2E/DX2                !
 ! D215  D(28,25,26,44)          3.9265         estimate D2E/DX2                !
 ! D216  D(11,25,28,27)        -12.397          estimate D2E/DX2                !
 ! D217  D(11,25,28,45)       -149.9643         estimate D2E/DX2                !
 ! D218  D(26,25,28,27)        134.1661         estimate D2E/DX2                !
 ! D219  D(26,25,28,45)         -3.4012         estimate D2E/DX2                !
 ! D220  D(24,26,44,45)        139.0509         estimate D2E/DX2                !
 ! D221  D(24,26,44,46)         -3.1545         estimate D2E/DX2                !
 ! D222  D(25,26,44,45)         -3.0142         estimate D2E/DX2                !
 ! D223  D(25,26,44,46)       -145.2197         estimate D2E/DX2                !
 ! D224  D(13,27,28,25)         23.1079         estimate D2E/DX2                !
 ! D225  D(13,27,28,45)        157.1536         estimate D2E/DX2                !
 ! D226  D(30,27,28,25)       -136.2891         estimate D2E/DX2                !
 ! D227  D(30,27,28,45)         -2.2434         estimate D2E/DX2                !
 ! D228  D(13,27,30,29)         -7.3351         estimate D2E/DX2                !
 ! D229  D(13,27,30,47)       -176.5955         estimate D2E/DX2                !
 ! D230  D(28,27,30,29)        151.4642         estimate D2E/DX2                !
 ! D231  D(28,27,30,47)        -17.7962         estimate D2E/DX2                !
 ! D232  D(25,28,45,44)          1.611          estimate D2E/DX2                !
 ! D233  D(25,28,45,48)        144.9788         estimate D2E/DX2                !
 ! D234  D(27,28,45,44)       -135.0435         estimate D2E/DX2                !
 ! D235  D(27,28,45,48)          8.3243         estimate D2E/DX2                !
 ! D236  D(14,29,30,27)          3.658          estimate D2E/DX2                !
 ! D237  D(14,29,30,47)        172.5353         estimate D2E/DX2                !
 ! D238  D(31,29,30,27)       -166.1098         estimate D2E/DX2                !
 ! D239  D(31,29,30,47)          2.7674         estimate D2E/DX2                !
 ! D240  D(14,29,31,34)        -35.0336         estimate D2E/DX2                !
 ! D241  D(14,29,31,49)       -145.751          estimate D2E/DX2                !
 ! D242  D(14,29,31,71)         89.3402         estimate D2E/DX2                !
 ! D243  D(30,29,31,34)        134.6715         estimate D2E/DX2                !
 ! D244  D(30,29,31,49)         23.9542         estimate D2E/DX2                !
 ! D245  D(30,29,31,71)       -100.9547         estimate D2E/DX2                !
 ! D246  D(27,30,47,48)         29.7223         estimate D2E/DX2                !
 ! D247  D(27,30,47,50)        142.016          estimate D2E/DX2                !
 ! D248  D(27,30,47,72)        -95.16           estimate D2E/DX2                !
 ! D249  D(29,30,47,48)       -139.5225         estimate D2E/DX2                !
 ! D250  D(29,30,47,50)        -27.2288         estimate D2E/DX2                !
 ! D251  D(29,30,47,72)         95.5952         estimate D2E/DX2                !
 ! D252  D(29,31,34,32)         27.8212         estimate D2E/DX2                !
 ! D253  D(29,31,34,51)       -122.3142         estimate D2E/DX2                !
 ! D254  D(49,31,34,32)        144.6483         estimate D2E/DX2                !
 ! D255  D(49,31,34,51)         -5.4871         estimate D2E/DX2                !
 ! D256  D(71,31,34,32)        -92.8019         estimate D2E/DX2                !
 ! D257  D(71,31,34,51)        117.0627         estimate D2E/DX2                !
 ! D258  D(29,31,49,50)        -26.3523         estimate D2E/DX2                !
 ! D259  D(29,31,49,54)        123.0627         estimate D2E/DX2                !
 ! D260  D(34,31,49,50)       -142.0695         estimate D2E/DX2                !
 ! D261  D(34,31,49,54)          7.3455         estimate D2E/DX2                !
 ! D262  D(71,31,49,50)         95.1404         estimate D2E/DX2                !
 ! D263  D(71,31,49,54)       -115.4445         estimate D2E/DX2                !
 ! D264  D(16,32,33,18)         -7.9864         estimate D2E/DX2                !
 ! D265  D(16,32,33,36)       -152.5589         estimate D2E/DX2                !
 ! D266  D(34,32,33,18)        139.6939         estimate D2E/DX2                !
 ! D267  D(34,32,33,36)         -4.8786         estimate D2E/DX2                !
 ! D268  D(16,32,34,31)          5.8103         estimate D2E/DX2                !
 ! D269  D(16,32,34,51)        153.3835         estimate D2E/DX2                !
 ! D270  D(33,32,34,31)       -137.7478         estimate D2E/DX2                !
 ! D271  D(33,32,34,51)          9.8254         estimate D2E/DX2                !
 ! D272  D(18,33,36,35)         -6.8397         estimate D2E/DX2                !
 ! D273  D(18,33,36,52)       -145.9929         estimate D2E/DX2                !
 ! D274  D(32,33,36,35)        135.0267         estimate D2E/DX2                !
 ! D275  D(32,33,36,52)         -4.1265         estimate D2E/DX2                !
 ! D276  D(31,34,51,52)        144.9848         estimate D2E/DX2                !
 ! D277  D(31,34,51,54)          1.8149         estimate D2E/DX2                !
 ! D278  D(32,34,51,52)         -6.0761         estimate D2E/DX2                !
 ! D279  D(32,34,51,54)       -149.2461         estimate D2E/DX2                !
 ! D280  D(19,35,36,33)         -2.0794         estimate D2E/DX2                !
 ! D281  D(19,35,36,52)        140.5406         estimate D2E/DX2                !
 ! D282  D(37,35,36,33)       -150.1636         estimate D2E/DX2                !
 ! D283  D(37,35,36,52)         -7.5436         estimate D2E/DX2                !
 ! D284  D(19,35,37,39)          0.8903         estimate D2E/DX2                !
 ! D285  D(19,35,37,53)       -142.5119         estimate D2E/DX2                !
 ! D286  D(36,35,37,39)        148.8194         estimate D2E/DX2                !
 ! D287  D(36,35,37,53)          5.4172         estimate D2E/DX2                !
 ! D288  D(33,36,52,51)          7.876          estimate D2E/DX2                !
 ! D289  D(33,36,52,53)        149.4832         estimate D2E/DX2                !
 ! D290  D(35,36,52,51)       -134.8941         estimate D2E/DX2                !
 ! D291  D(35,36,52,53)          6.7131         estimate D2E/DX2                !
 ! D292  D(35,37,39,38)         -1.3982         estimate D2E/DX2                !
 ! D293  D(35,37,39,57)       -140.9662         estimate D2E/DX2                !
 ! D294  D(53,37,39,38)        137.734          estimate D2E/DX2                !
 ! D295  D(53,37,39,57)         -1.834          estimate D2E/DX2                !
 ! D296  D(35,37,53,52)         -1.4106         estimate D2E/DX2                !
 ! D297  D(35,37,53,55)        139.858          estimate D2E/DX2                !
 ! D298  D(39,37,53,52)       -144.6086         estimate D2E/DX2                !
 ! D299  D(39,37,53,55)         -3.3399         estimate D2E/DX2                !
 ! D300  D(21,38,39,37)         -1.1783         estimate D2E/DX2                !
 ! D301  D(21,38,39,57)        142.5668         estimate D2E/DX2                !
 ! D302  D(42,38,39,37)       -148.7293         estimate D2E/DX2                !
 ! D303  D(42,38,39,57)         -4.9842         estimate D2E/DX2                !
 ! D304  D(21,38,42,40)          0.5856         estimate D2E/DX2                !
 ! D305  D(21,38,42,58)       -142.2349         estimate D2E/DX2                !
 ! D306  D(39,38,42,40)        148.0833         estimate D2E/DX2                !
 ! D307  D(39,38,42,58)          5.2629         estimate D2E/DX2                !
 ! D308  D(37,39,57,58)        146.0579         estimate D2E/DX2                !
 ! D309  D(37,39,57,60)          5.3122         estimate D2E/DX2                !
 ! D310  D(38,39,57,58)          2.8578         estimate D2E/DX2                !
 ! D311  D(38,39,57,60)       -137.888          estimate D2E/DX2                !
 ! D312  D(23,40,41,24)          0.024          estimate D2E/DX2                !
 ! D313  D(23,40,41,43)       -139.6827         estimate D2E/DX2                !
 ! D314  D(42,40,41,24)        142.2428         estimate D2E/DX2                !
 ! D315  D(42,40,41,43)          2.5361         estimate D2E/DX2                !
 ! D316  D(23,40,42,38)          1.6509         estimate D2E/DX2                !
 ! D317  D(23,40,42,58)        140.7727         estimate D2E/DX2                !
 ! D318  D(41,40,42,38)       -137.075          estimate D2E/DX2                !
 ! D319  D(41,40,42,58)          2.0468         estimate D2E/DX2                !
 ! D320  D(24,41,43,46)         -1.3703         estimate D2E/DX2                !
 ! D321  D(24,41,43,59)       -138.4519         estimate D2E/DX2                !
 ! D322  D(40,41,43,46)        133.1335         estimate D2E/DX2                !
 ! D323  D(40,41,43,59)         -3.948          estimate D2E/DX2                !
 ! D324  D(38,42,58,57)         -3.5564         estimate D2E/DX2                !
 ! D325  D(38,42,58,59)        138.202          estimate D2E/DX2                !
 ! D326  D(40,42,58,57)       -146.9045         estimate D2E/DX2                !
 ! D327  D(40,42,58,59)         -5.146          estimate D2E/DX2                !
 ! D328  D(41,43,46,44)          0.6221         estimate D2E/DX2                !
 ! D329  D(41,43,46,61)       -141.6451         estimate D2E/DX2                !
 ! D330  D(59,43,46,44)        141.8636         estimate D2E/DX2                !
 ! D331  D(59,43,46,61)         -0.4035         estimate D2E/DX2                !
 ! D332  D(41,43,59,58)          0.8204         estimate D2E/DX2                !
 ! D333  D(41,43,59,65)        142.7777         estimate D2E/DX2                !
 ! D334  D(46,43,59,58)       -140.3099         estimate D2E/DX2                !
 ! D335  D(46,43,59,65)          1.6475         estimate D2E/DX2                !
 ! D336  D(26,44,45,28)          0.8688         estimate D2E/DX2                !
 ! D337  D(26,44,45,48)       -142.4027         estimate D2E/DX2                !
 ! D338  D(46,44,45,28)        142.803          estimate D2E/DX2                !
 ! D339  D(46,44,45,48)         -0.4685         estimate D2E/DX2                !
 ! D340  D(26,44,46,43)          1.6397         estimate D2E/DX2                !
 ! D341  D(26,44,46,61)        139.697          estimate D2E/DX2                !
 ! D342  D(45,44,46,43)       -135.7013         estimate D2E/DX2                !
 ! D343  D(45,44,46,61)          2.356          estimate D2E/DX2                !
 ! D344  D(28,45,48,47)          6.5035         estimate D2E/DX2                !
 ! D345  D(28,45,48,62)       -140.2081         estimate D2E/DX2                !
 ! D346  D(44,45,48,47)        145.0457         estimate D2E/DX2                !
 ! D347  D(44,45,48,62)         -1.6659         estimate D2E/DX2                !
 ! D348  D(43,46,61,62)        140.8344         estimate D2E/DX2                !
 ! D349  D(43,46,61,65)         -1.0159         estimate D2E/DX2                !
 ! D350  D(44,46,61,62)         -2.096          estimate D2E/DX2                !
 ! D351  D(44,46,61,65)       -143.9463         estimate D2E/DX2                !
 ! D352  D(30,47,48,45)        -25.0709         estimate D2E/DX2                !
 ! D353  D(30,47,48,62)        123.7645         estimate D2E/DX2                !
 ! D354  D(50,47,48,45)       -142.9323         estimate D2E/DX2                !
 ! D355  D(50,47,48,62)          5.9032         estimate D2E/DX2                !
 ! D356  D(72,47,48,45)         95.5986         estimate D2E/DX2                !
 ! D357  D(72,47,48,62)       -115.566          estimate D2E/DX2                !
 ! D358  D(30,47,50,49)         25.6635         estimate D2E/DX2                !
 ! D359  D(30,47,50,63)       -124.7518         estimate D2E/DX2                !
 ! D360  D(48,47,50,49)        144.6389         estimate D2E/DX2                !
 ! D361  D(48,47,50,63)         -5.7764         estimate D2E/DX2                !
 ! D362  D(72,47,50,49)        -93.269          estimate D2E/DX2                !
 ! D363  D(72,47,50,63)        116.3157         estimate D2E/DX2                !
 ! D364  D(45,48,62,61)          1.928          estimate D2E/DX2                !
 ! D365  D(45,48,62,63)        146.2082         estimate D2E/DX2                !
 ! D366  D(47,48,62,61)       -148.2623         estimate D2E/DX2                !
 ! D367  D(47,48,62,63)         -3.9821         estimate D2E/DX2                !
 ! D368  D(31,49,50,47)          1.371          estimate D2E/DX2                !
 ! D369  D(31,49,50,63)        149.2379         estimate D2E/DX2                !
 ! D370  D(54,49,50,47)       -145.4902         estimate D2E/DX2                !
 ! D371  D(54,49,50,63)          2.3767         estimate D2E/DX2                !
 ! D372  D(31,49,54,51)         -6.7602         estimate D2E/DX2                !
 ! D373  D(31,49,54,56)       -150.2279         estimate D2E/DX2                !
 ! D374  D(50,49,54,51)        143.6072         estimate D2E/DX2                !
 ! D375  D(50,49,54,56)          0.1394         estimate D2E/DX2                !
 ! D376  D(47,50,63,62)          3.7993         estimate D2E/DX2                !
 ! D377  D(47,50,63,64)        148.5618         estimate D2E/DX2                !
 ! D378  D(49,50,63,62)       -147.7772         estimate D2E/DX2                !
 ! D379  D(49,50,63,64)         -3.0146         estimate D2E/DX2                !
 ! D380  D(34,51,52,36)         -2.9619         estimate D2E/DX2                !
 ! D381  D(34,51,52,53)       -139.0965         estimate D2E/DX2                !
 ! D382  D(54,51,52,36)        136.1344         estimate D2E/DX2                !
 ! D383  D(54,51,52,53)         -0.0003         estimate D2E/DX2                !
 ! D384  D(34,51,54,49)          2.9941         estimate D2E/DX2                !
 ! D385  D(34,51,54,56)        147.2804         estimate D2E/DX2                !
 ! D386  D(52,51,54,49)       -140.7415         estimate D2E/DX2                !
 ! D387  D(52,51,54,56)          3.5447         estimate D2E/DX2                !
 ! D388  D(36,52,53,37)         -3.2142         estimate D2E/DX2                !
 ! D389  D(36,52,53,55)       -144.4173         estimate D2E/DX2                !
 ! D390  D(51,52,53,37)        137.4016         estimate D2E/DX2                !
 ! D391  D(51,52,53,55)         -3.8015         estimate D2E/DX2                !
 ! D392  D(37,53,55,56)       -132.8202         estimate D2E/DX2                !
 ! D393  D(37,53,55,60)          4.9642         estimate D2E/DX2                !
 ! D394  D(52,53,55,56)          3.9288         estimate D2E/DX2                !
 ! D395  D(52,53,55,60)        141.7132         estimate D2E/DX2                !
 ! D396  D(49,54,56,55)        136.329          estimate D2E/DX2                !
 ! D397  D(49,54,56,64)         -2.1106         estimate D2E/DX2                !
 ! D398  D(51,54,56,55)         -3.403          estimate D2E/DX2                !
 ! D399  D(51,54,56,64)       -141.8426         estimate D2E/DX2                !
 ! D400  D(53,55,56,54)         -0.3682         estimate D2E/DX2                !
 ! D401  D(53,55,56,64)        142.2129         estimate D2E/DX2                !
 ! D402  D(60,55,56,54)       -142.3915         estimate D2E/DX2                !
 ! D403  D(60,55,56,64)          0.1896         estimate D2E/DX2                !
 ! D404  D(53,55,60,57)         -1.4608         estimate D2E/DX2                !
 ! D405  D(53,55,60,66)       -143.3283         estimate D2E/DX2                !
 ! D406  D(56,55,60,57)        140.1957         estimate D2E/DX2                !
 ! D407  D(56,55,60,66)         -1.6717         estimate D2E/DX2                !
 ! D408  D(54,56,64,63)          1.4971         estimate D2E/DX2                !
 ! D409  D(54,56,64,66)        144.9096         estimate D2E/DX2                !
 ! D410  D(55,56,64,63)       -142.0375         estimate D2E/DX2                !
 ! D411  D(55,56,64,66)          1.3749         estimate D2E/DX2                !
 ! D412  D(39,57,58,42)          0.4407         estimate D2E/DX2                !
 ! D413  D(39,57,58,59)       -140.8085         estimate D2E/DX2                !
 ! D414  D(60,57,58,42)        140.8094         estimate D2E/DX2                !
 ! D415  D(60,57,58,59)         -0.4398         estimate D2E/DX2                !
 ! D416  D(39,57,60,55)         -3.6656         estimate D2E/DX2                !
 ! D417  D(39,57,60,66)        133.3294         estimate D2E/DX2                !
 ! D418  D(58,57,60,55)       -139.6211         estimate D2E/DX2                !
 ! D419  D(58,57,60,66)         -2.626          estimate D2E/DX2                !
 ! D420  D(42,58,59,43)          3.7603         estimate D2E/DX2                !
 ! D421  D(42,58,59,65)       -133.5086         estimate D2E/DX2                !
 ! D422  D(57,58,59,43)        140.5608         estimate D2E/DX2                !
 ! D423  D(57,58,59,65)          3.2919         estimate D2E/DX2                !
 ! D424  D(43,59,65,61)         -2.2876         estimate D2E/DX2                !
 ! D425  D(43,59,65,66)       -145.6661         estimate D2E/DX2                !
[...]
              Bcc     0.1514    20.319     7.250     6.778 -0.2704  0.9599 -0.0733
 
              Baa    -0.0051    -0.679    -0.242    -0.227  0.5681 -0.5657  0.5978
    15 C(13)  Bbb     0.0007     0.100     0.036     0.033 -0.6895  0.0694  0.7210
              Bcc     0.0043     0.579     0.207     0.193  0.4493  0.8217  0.3506
 
              Baa    -0.0019    -0.253    -0.090    -0.084 -0.4604  0.8873 -0.0250
    16 C(13)  Bbb    -0.0006    -0.085    -0.030    -0.028  0.8602  0.4390 -0.2593
              Bcc     0.0025     0.337     0.120     0.113  0.2191  0.1409  0.9655
 
              Baa    -0.0071    -0.955    -0.341    -0.319  0.4099  0.4560  0.7900
    17 C(13)  Bbb     0.0024     0.317     0.113     0.106  0.7374  0.3440 -0.5812
              Bcc     0.0048     0.638     0.228     0.213 -0.5368  0.8208 -0.1953
 
              Baa    -0.0081    -1.081    -0.386    -0.361  0.5512  0.7504 -0.3648
    18 C(13)  Bbb    -0.0072    -0.965    -0.344    -0.322 -0.6123  0.6608  0.4341
              Bcc     0.0152     2.046     0.730     0.682  0.5668 -0.0159  0.8237
 
              Baa    -0.0113    -1.521    -0.543    -0.507 -0.4193  0.7164 -0.5577
    19 C(13)  Bbb    -0.0110    -1.478    -0.528    -0.493  0.8672  0.1345 -0.4794
              Bcc     0.0224     2.999     1.070     1.000  0.2685  0.6846  0.6776
 
              Baa    -0.0363    -4.867    -1.737    -1.624  0.7525 -0.4901  0.4400
    20 C(13)  Bbb    -0.0346    -4.649    -1.659    -1.551 -0.4732  0.0624  0.8788
              Bcc     0.0709     9.516     3.395     3.174  0.4582  0.8694  0.1849
 
              Baa    -0.0203    -2.723    -0.972    -0.908  0.3468  0.8454  0.4063
    21 C(13)  Bbb     0.0092     1.233     0.440     0.411  0.6209 -0.5316  0.5760
              Bcc     0.0111     1.491     0.532     0.497 -0.7030 -0.0525  0.7093
 
              Baa    -0.0616    -8.269    -2.951    -2.758  0.8652 -0.3014  0.4007
    22 C(13)  Bbb    -0.0593    -7.953    -2.838    -2.653 -0.1432  0.6174  0.7735
              Bcc     0.1209    16.222     5.788     5.411  0.4805  0.7266 -0.4911
 
              Baa    -0.0297    -3.987    -1.423    -1.330  0.4825  0.8650 -0.1377
    23 C(13)  Bbb     0.0125     1.679     0.599     0.560  0.8635 -0.4434  0.2402
              Bcc     0.0172     2.308     0.824     0.770 -0.1467  0.2348  0.9609
 
              Baa    -0.0385    -5.171    -1.845    -1.725 -0.2911 -0.5318  0.7952
    24 C(13)  Bbb     0.0179     2.405     0.858     0.802 -0.6910  0.6918  0.2097
              Bcc     0.0206     2.766     0.987     0.923  0.6617  0.4884  0.5689
 
              Baa    -0.1087   -14.591    -5.207    -4.867 -0.3265  0.1840  0.9271
    25 C(13)  Bbb     0.0421     5.651     2.016     1.885  0.7566 -0.5370  0.3730
              Bcc     0.0666     8.940     3.190     2.982  0.5665  0.8233  0.0362
 
              Baa    -0.0359    -4.818    -1.719    -1.607 -0.6676  0.7153  0.2064
    26 C(13)  Bbb    -0.0340    -4.559    -1.627    -1.521  0.7377  0.5984  0.3126
              Bcc     0.0699     9.377     3.346     3.128 -0.1002 -0.3610  0.9272
 
              Baa    -0.0825   -11.073    -3.951    -3.694 -0.1360  0.7718  0.6212
    27 C(13)  Bbb     0.0326     4.378     1.562     1.460  0.9480  0.2834 -0.1446
              Bcc     0.0499     6.695     2.389     2.233  0.2877 -0.5692  0.7702
 
              Baa    -0.2673   -35.863   -12.797   -11.963 -0.3686  0.6975 -0.6146
    28 C(13)  Bbb    -0.2612   -35.049   -12.506   -11.691  0.9044  0.4220 -0.0635
              Bcc     0.5284    70.912    25.303    23.654 -0.2150  0.5792  0.7863
 
              Baa    -0.0603    -8.097    -2.889    -2.701 -0.1940  0.9639  0.1822
    29 C(13)  Bbb     0.0268     3.590     1.281     1.198  0.7339  0.2659 -0.6251
              Bcc     0.0336     4.506     1.608     1.503  0.6510 -0.0125  0.7590
 
              Baa    -0.0697    -9.359    -3.339    -3.122 -0.5201 -0.3026  0.7987
    30 C(13)  Bbb    -0.0673    -9.028    -3.222    -3.012  0.8512 -0.1071  0.5137
              Bcc     0.1370    18.387     6.561     6.133 -0.0699  0.9471  0.3133
 
              Baa    -0.0011    -0.144    -0.051    -0.048  0.0649  0.8359  0.5450
    31 C(13)  Bbb    -0.0005    -0.073    -0.026    -0.024  0.9589 -0.2035  0.1980
              Bcc     0.0016     0.217     0.077     0.072 -0.2764 -0.5098  0.8147
 
              Baa    -0.0018    -0.237    -0.084    -0.079 -0.5014  0.6890 -0.5233
    32 C(13)  Bbb    -0.0007    -0.093    -0.033    -0.031  0.7393  0.6554  0.1546
              Bcc     0.0025     0.330     0.118     0.110 -0.4495  0.3094  0.8380
 
              Baa    -0.0041    -0.547    -0.195    -0.182  0.4395 -0.1619  0.8835
    33 C(13)  Bbb     0.0017     0.226     0.081     0.076  0.4053  0.9136 -0.0342
              Bcc     0.0024     0.321     0.114     0.107  0.8016 -0.3731 -0.4671
 
              Baa    -0.0018    -0.246    -0.088    -0.082  0.0897  0.8964 -0.4341
    34 C(13)  Bbb     0.0003     0.040     0.014     0.013  0.4601  0.3493  0.8163
              Bcc     0.0015     0.206     0.074     0.069  0.8834 -0.2729 -0.3811
 
              Baa    -0.0114    -1.529    -0.546    -0.510  0.1026  0.5288  0.8425
    35 C(13)  Bbb     0.0048     0.642     0.229     0.214  0.1012  0.8371 -0.5377
              Bcc     0.0066     0.888     0.317     0.296  0.9896 -0.1404 -0.0324
 
              Baa    -0.0035    -0.468    -0.167    -0.156  0.3370  0.9213 -0.1943
    36 C(13)  Bbb    -0.0029    -0.389    -0.139    -0.130  0.9129 -0.3702 -0.1719
              Bcc     0.0064     0.857     0.306     0.286  0.2303  0.1195  0.9658
 
              Baa    -0.0257    -3.453    -1.232    -1.152 -0.3599  0.7475 -0.5583
    37 C(13)  Bbb    -0.0248    -3.331    -1.188    -1.111  0.9061  0.4227 -0.0181
              Bcc     0.0506     6.784     2.421     2.263 -0.2225  0.5124  0.8294
 
              Baa    -0.0160    -2.146    -0.766    -0.716  0.8344 -0.2446  0.4940
    38 C(13)  Bbb    -0.0147    -1.973    -0.704    -0.658 -0.5506 -0.3260  0.7685
              Bcc     0.0307     4.120     1.470     1.374  0.0269  0.9132  0.4066
 
              Baa    -0.0188    -2.526    -0.901    -0.842 -0.2677  0.7435  0.6129
    39 C(13)  Bbb     0.0085     1.135     0.405     0.379  0.9632  0.2223  0.1510
              Bcc     0.0104     1.391     0.496     0.464  0.0240 -0.6308  0.7756
 
              Baa    -0.0064    -0.864    -0.308    -0.288  0.9274  0.0488  0.3709
    40 C(13)  Bbb    -0.0060    -0.805    -0.287    -0.269 -0.3741  0.1156  0.9201
              Bcc     0.0124     1.669     0.596     0.557 -0.0020  0.9921 -0.1255
 
              Baa    -0.0039    -0.525    -0.187    -0.175 -0.1631 -0.6929  0.7023
    41 C(13)  Bbb     0.0018     0.242     0.086     0.081  0.8298 -0.4814 -0.2823
              Bcc     0.0021     0.283     0.101     0.094  0.5337  0.5367  0.6535
 
              Baa    -0.0137    -1.843    -0.658    -0.615 -0.0681  0.9932  0.0946
    42 C(13)  Bbb     0.0065     0.871     0.311     0.291  0.9973  0.0652  0.0329
              Bcc     0.0072     0.972     0.347     0.324 -0.0265 -0.0966  0.9950
 
              Baa    -0.0084    -1.126    -0.402    -0.376  0.4852 -0.4693  0.7378
    43 C(13)  Bbb     0.0039     0.519     0.185     0.173  0.5901  0.7984  0.1197
              Bcc     0.0045     0.607     0.217     0.203 -0.6452  0.3773  0.6643
 
              Baa    -0.0288    -3.859    -1.377    -1.287  0.2901  0.9545 -0.0690
    44 C(13)  Bbb    -0.0261    -3.501    -1.249    -1.168  0.8901 -0.2956 -0.3468
              Bcc     0.0548     7.359     2.626     2.455  0.3514 -0.0392  0.9354
 
              Baa    -0.0857   -11.500    -4.104    -3.836  0.1057  0.4599  0.8816
    45 C(13)  Bbb     0.0311     4.177     1.491     1.393  0.0325  0.8845 -0.4653
              Bcc     0.0546     7.323     2.613     2.443  0.9939 -0.0778 -0.0785
 
              Baa    -0.0210    -2.821    -1.007    -0.941  0.5901 -0.0154  0.8072
    46 C(13)  Bbb     0.0089     1.196     0.427     0.399 -0.1847  0.9707  0.1535
              Bcc     0.0121     1.625     0.580     0.542  0.7859  0.2396 -0.5700
 
              Baa    -0.0071    -0.957    -0.342    -0.319 -0.0073  0.5928  0.8053
    47 C(13)  Bbb     0.0014     0.184     0.066     0.061  0.9216 -0.3086  0.2355
              Bcc     0.0058     0.773     0.276     0.258  0.3881  0.7439 -0.5441
 
              Baa    -0.0982   -13.176    -4.702    -4.395 -0.3294 -0.5838  0.7421
    48 C(13)  Bbb    -0.0931   -12.491    -4.457    -4.167  0.8576 -0.5138 -0.0236
              Bcc     0.1913    25.667     9.159     8.562  0.3951  0.6286  0.6699
 
              Baa    -0.0021    -0.281    -0.100    -0.094  0.9007 -0.3886  0.1942
    49 C(13)  Bbb    -0.0006    -0.083    -0.030    -0.028  0.1256  0.6609  0.7399
              Bcc     0.0027     0.365     0.130     0.122 -0.4159 -0.6421  0.6440
 
              Baa    -0.0054    -0.719    -0.257    -0.240  0.4738  0.1640  0.8653
    50 C(13)  Bbb    -0.0043    -0.582    -0.208    -0.194 -0.5597  0.8146  0.1521
              Bcc     0.0097     1.301     0.464     0.434  0.6799  0.5563 -0.4777
 
              Baa    -0.0016    -0.209    -0.075    -0.070  0.3679  0.8105 -0.4558
    51 C(13)  Bbb     0.0004     0.049     0.017     0.016  0.9295 -0.3341  0.1562
              Bcc     0.0012     0.160     0.057     0.053  0.0257  0.4812  0.8763
 
              Baa    -0.0025    -0.334    -0.119    -0.111  0.8259 -0.5272  0.1997
    52 C(13)  Bbb    -0.0022    -0.300    -0.107    -0.100  0.4302  0.8184  0.3810
              Bcc     0.0047     0.634     0.226     0.211 -0.3643 -0.2288  0.9027
 
              Baa    -0.0098    -1.312    -0.468    -0.437 -0.4923  0.2264  0.8404
    53 C(13)  Bbb     0.0039     0.529     0.189     0.176 -0.5997  0.6116 -0.5161
              Bcc     0.0058     0.783     0.279     0.261  0.6308  0.7581  0.1653
 
              Baa    -0.0027    -0.363    -0.130    -0.121  0.8659 -0.3045  0.3968
    54 C(13)  Bbb    -0.0015    -0.203    -0.072    -0.068 -0.1524  0.5951  0.7891
              Bcc     0.0042     0.566     0.202     0.189  0.4764  0.7437 -0.4689
 
              Baa    -0.0096    -1.286    -0.459    -0.429 -0.3846  0.6936 -0.6091
    55 C(13)  Bbb    -0.0088    -1.182    -0.422    -0.394  0.4840  0.7134  0.5068
              Bcc     0.0184     2.468     0.881     0.823  0.7861 -0.0999 -0.6100
 
              Baa    -0.0007    -0.090    -0.032    -0.030  0.7994 -0.0827  0.5951
    56 C(13)  Bbb    -0.0001    -0.009    -0.003    -0.003  0.4512  0.7367 -0.5037
              Bcc     0.0007     0.098     0.035     0.033 -0.3967  0.6712  0.6262
 
              Baa    -0.0100    -1.342    -0.479    -0.448  0.5476  0.7111 -0.4409
    57 C(13)  Bbb    -0.0093    -1.250    -0.446    -0.417  0.5749  0.0631  0.8158
              Bcc     0.0193     2.592     0.925     0.864 -0.6080  0.7002  0.3743
 
              Baa    -0.0122    -1.639    -0.585    -0.547 -0.5827  0.8126 -0.0117
    58 C(13)  Bbb     0.0056     0.757     0.270     0.253  0.7968  0.5685 -0.2047
              Bcc     0.0066     0.882     0.315     0.294  0.1597  0.1286  0.9788
 
              Baa    -0.0072    -0.968    -0.346    -0.323  0.6801  0.5440 -0.4915
    59 C(13)  Bbb    -0.0069    -0.930    -0.332    -0.310  0.2286  0.4796  0.8472
              Bcc     0.0142     1.899     0.678     0.633  0.6966 -0.6885  0.2018
 
              Baa    -0.0146    -1.955    -0.698    -0.652  0.8700 -0.3574 -0.3398
    60 C(13)  Bbb     0.0065     0.877     0.313     0.293  0.0829  0.7852 -0.6136
              Bcc     0.0080     1.078     0.385     0.360  0.4861  0.5057  0.7127
 
              Baa    -0.0493    -6.618    -2.361    -2.207  0.2921  0.8637 -0.4108
    61 C(13)  Bbb    -0.0465    -6.239    -2.226    -2.081 -0.5053  0.5040  0.7004
              Bcc     0.0958    12.857     4.588     4.288  0.8120  0.0030  0.5836
 
              Baa    -0.0419    -5.621    -2.006    -1.875  0.6690  0.4202  0.6131
    62 C(13)  Bbb     0.0162     2.170     0.774     0.724 -0.3409 -0.5595  0.7555
              Bcc     0.0257     3.451     1.231     1.151 -0.6604  0.7145  0.2311
 
              Baa    -0.0146    -1.964    -0.701    -0.655 -0.2677  0.7078 -0.6538
    63 C(13)  Bbb    -0.0124    -1.664    -0.594    -0.555 -0.4926  0.4826  0.7242
              Bcc     0.0270     3.629     1.295     1.210  0.8280  0.5159  0.2195
 
              Baa    -0.0148    -1.987    -0.709    -0.663  0.9593  0.2810  0.0275
    64 C(13)  Bbb     0.0064     0.863     0.308     0.288  0.1040 -0.4421  0.8909
              Bcc     0.0084     1.124     0.401     0.375 -0.2625  0.8518  0.4533
 
              Baa    -0.0206    -2.764    -0.986    -0.922  0.9173 -0.2284  0.3262
    65 C(13)  Bbb     0.0084     1.124     0.401     0.375  0.3167  0.9150 -0.2500
              Bcc     0.0122     1.640     0.585     0.547 -0.2414  0.3327  0.9116
 
              Baa    -0.0217    -2.918    -1.041    -0.973  0.1049  0.8223 -0.5592
    66 C(13)  Bbb    -0.0204    -2.736    -0.976    -0.913  0.1031  0.5503  0.8286
              Bcc     0.0421     5.654     2.018     1.886  0.9891 -0.1445 -0.0270
 
              Baa    -0.0177    -0.927    -0.331    -0.309  0.1671 -0.4827  0.8597
    67 Cl(35) Bbb    -0.0149    -0.780    -0.278    -0.260  0.1664  0.8733  0.4580
              Bcc     0.0326     1.707     0.609     0.569  0.9718 -0.0665 -0.2262
 
              Baa    -0.0016    -0.084    -0.030    -0.028 -0.3828  0.3132  0.8691
    68 Cl(35) Bbb    -0.0001    -0.004    -0.002    -0.001 -0.1403  0.9102 -0.3898
              Bcc     0.0017     0.088     0.031     0.029  0.9131  0.2711  0.3045
 
              Baa    -0.0274    -1.432    -0.511    -0.478  0.9093 -0.2619  0.3233
    69 Cl(35) Bbb     0.0109     0.573     0.204     0.191 -0.3076  0.1000  0.9462
              Bcc     0.0164     0.860     0.307     0.287  0.2802  0.9599 -0.0104
 
              Baa    -0.0540    -2.826    -1.009    -0.943 -0.1200  0.8531  0.5078
    70 Cl(35) Bbb    -0.0455    -2.380    -0.849    -0.794  0.8798  0.3284 -0.3437
              Bcc     0.0995     5.206     1.858     1.737  0.4600 -0.4055  0.7899
 
              Baa    -0.0325    -1.701    -0.607    -0.567  0.3705  0.8108 -0.4531
    71 Cl(35) Bbb     0.0142     0.745     0.266     0.249  0.2091  0.4025  0.8912
              Bcc     0.0183     0.956     0.341     0.319  0.9050 -0.4250 -0.0204
 
              Baa    -0.1151    -6.025    -2.150    -2.010 -0.6035 -0.0215  0.7970
    72 Cl(35) Bbb    -0.0992    -5.193    -1.853    -1.732  0.7371 -0.3962  0.5475
              Bcc     0.2143    11.218     4.003     3.742  0.3040  0.9179  0.2550
 
              Baa    -0.0039    -0.203    -0.072    -0.068  0.7202 -0.5799 -0.3808
    73 Cl(35) Bbb    -0.0020    -0.105    -0.037    -0.035 -0.1705 -0.6800  0.7131
              Bcc     0.0059     0.308     0.110     0.103  0.6725  0.4486  0.5886
 
              Baa    -0.0223    -1.170    -0.417    -0.390  0.5782  0.4585  0.6749
    74 Cl(35) Bbb     0.0096     0.502     0.179     0.167 -0.6471 -0.2461  0.7216
              Bcc     0.0128     0.668     0.238     0.223 -0.4969  0.8539 -0.1544
 
              Baa    -0.1207    -6.319    -2.255    -2.108  0.8796 -0.1393  0.4549
    75 Cl(35) Bbb    -0.1101    -5.763    -2.056    -1.922  0.3446  0.8457 -0.4075
              Bcc     0.2308    12.082     4.311     4.030 -0.3280  0.5152  0.7919
 

 ---------------------------------------------------------------------------------

 No NMR shielding tensors so no spin-rotation constants.
 Leave Link  601 at Fri Jul 15 03:57:23 2022, MaxMem=  1342177280 cpu:             129.6 elap:               3.0
 (Enter /home/mkliu/g16/l9999.exe)
 1\1\GINC-NODE03\FOpt\UB3LYP\6-311G(d,p)\C66Cl9(2)\MKLIU\15-Jul-2022\0\
 \#P opt b3lyp/6-311G(d, p) empiricaldispersion=GD3\\force\\0,2\C,-1.33
 14445916,1.8797386754,-3.9212394261\C,0.2125761352,2.2734695661,-4.108
 8857833\C,0.9438931744,0.8636886477,-4.2618399104\C,-1.5086645597,0.34
 96418755,-4.2863448484\C,-0.1223122398,-0.1718797135,-4.1467828603\C,-
 2.5019185234,-0.2533735119,-3.1687856055\C,-1.791154631,1.9203584159,-
 2.5102893202\C,-2.5493903229,0.8397005202,-2.1567706129\C,-1.341209213
 9,2.8644782412,-1.5439221967\C,0.9108168935,2.9299487528,-2.7917580879
 \C,0.0185954937,3.2786018272,-1.6075036308\C,1.8251072065,0.7188582956
 ,-3.0504278538\C,1.8651269937,1.8636898991,-2.2985223001\C,2.204006051
 3,-0.5180191861,-2.5114414688\C,0.1492006113,-1.3557456096,-3.60553801
 86\C,1.5519685854,-1.7502637325,-3.1317749167\C,-2.0254399676,-1.50596
 3717,-2.4359553232\C,-0.845631472,-2.1052298703,-2.8444842129\C,-2.525
 1623603,-1.7856245798,-1.0987504183\C,-3.0325110748,0.643625429,-0.832
 6136693\C,-3.1203293844,-0.7040555628,-0.2941791353\C,-2.0209657549,2.
 8363425717,-0.3117551432\C,-2.9033596059,1.7487267818,0.0241501661\C,-
 1.3954903163,3.2852475189,0.8998661915\C,0.6788274229,3.4960601817,-0.
 3900474444\C,-0.0389357443,3.5788976954,0.8597777768\C,2.415669995,1.8
 561501837,-0.9996213846\C,1.9641725158,2.8904971604,-0.1033309486\C,2.
 8237377873,-0.5523822497,-1.2465110523\C,2.9708074162,0.6422891038,-0.
 5016233682\C,3.1200678329,-1.9177174602,-0.6080559166\C,1.2562563372,-
 2.7752202471,-2.0749277866\C,-0.1503301231,-3.0351761263,-2.0163421985
 \C,2.0198008295,-2.9117315664,-0.9576847982\C,-1.95614805,-2.873882676
 4,-0.3923660769\C,-0.7370771702,-3.4896229376,-0.846322486\C,-1.943059
 9157,-2.9397578342,1.0511024376\C,-3.1661097899,-0.8292339742,1.109314
 9657\C,-2.5537791685,-1.945664173,1.7932147375\C,-2.8925635729,1.59039
 757,1.4534084062\C,-1.9444760916,2.5313325607,2.0100974719\C,-3.030984
 4472,0.3223708252,1.9855131973\C,-1.1307243781,2.1405546142,3.06595556
 33\C,0.8216464141,3.1252435855,1.9311086146\C,2.0554493997,2.679973335
 ,1.3202658641\C,0.2906250166,2.4459986239,3.0243071643\C,3.4779465914,
 0.6121552846,0.9388683616\C,2.7156627043,1.5820735172,1.8312082202\C,3
 .0132073305,-1.8671811451,0.9052420242\C,3.1956578847,-0.7167020981,1.
 6123929872\C,1.4442886497,-3.4560194824,0.2350608822\C,0.0875593262,-3
 .7910536777,0.2919515837\C,-0.673059925,-3.4908109524,1.4828167702\C,2
 .0859548192,-2.8543866741,1.3785659656\C,-0.0437126243,-2.9760555881,2
 .6122036986\C,1.3734207877,-2.6607648108,2.5635129967\C,-1.9469540348,
 -1.4693033638,3.0186631715\C,-2.2445962979,-0.0607673209,3.1395225472\
 C,-1.2886389585,0.8221910314,3.6494492912\C,-0.6964414889,-1.956226709
 6,3.406617505\C,1.0006535176,1.3189010055,3.5755470602\C,2.1930158782,
 0.9019688237,2.9704152406\C,2.4883830215,-0.508410898,2.8415054889\C,1
 .5904643853,-1.4612485774,3.3235683918\C,0.0292636019,0.3246539849,3.9
 943946058\C,0.3169379256,-1.0320523128,3.8762216842\Cl,-2.5013179483,2
 .9702325307,-4.7905697287\Cl,0.4098586307,3.2903214711,-5.5573430559\C
 l,1.9438215043,0.6608540457,-5.7722767422\Cl,2.5717371505,-2.505626798
 7,-4.4633125278\Cl,4.78890865,-2.4851193993,-1.1496855326\Cl,5.2960073
 926,1.0006995028,0.9321078524\Cl,-2.0079894251,0.0499533789,-5.9979755
 275\Cl,-4.1913125838,-0.5817490675,-3.8122963428\Cl,1.8820480901,4.454
 8599665,-3.1748140505\\Version=ES64L-G16RevA.03\State=2-A\HF=-6657.453
 376\S2=0.784267\S2-1=0.\S2A=0.751115\RMSD=4.322e-09\RMSF=2.268e-05\Dip
 ole=-0.9409668,-0.3637161,2.1862887\Quadrupole=-6.6109235,5.9561527,0.
 6547708,1.0081257,-3.7900379,1.3489609\PG=C01 [X(C66Cl9)]\\@


 THE CHYMISTS ARE A STRANGE CLASS OF MORTALS IMPELLED
 BY AN ALMOST INSANE IMPULSE TO SEEK THEIR PLEASURE
 AMONG SMOKE AND VAPOR, SOOT AND FLAME, POISONS AND
 POVERTY; YET AMONG ALL THESE EVILS I SEEM TO LIVE
 SO SWEETLY, THAT I MAY DIE IF I WOULD CHANGE PLACES
 WITH THE PERSIAN KING.
   --  JOHANN JOACHIM BECHER, 1635-1682
 ACTA LABORATORII CHYMICA MONACENSIS, 1669
 Job cpu time:       5 days  5 hours 44 minutes  9.4 seconds.
 Elapsed time:       0 days  2 hours 37 minutes 25.9 seconds.
 File lengths (MBytes):  RWF=   2194 Int=      0 D2E=      0 Chk=    198 Scr=      1
 Normal termination of Gaussian 16 at Fri Jul 15 03:57:26 2022.
