 Entering Gaussian System, Link 0=g16
 Input=euvkbx1kp30u8_addon_10.gjf
 Output=euvkbx1kp30u8_addon_10.log
 Initial command:
 /home/mkliu/g16/l1.exe "/data/scratch/Gau-164463.inp" -scrdir="/data/scratch/"
 Entering Link 1 = /home/mkliu/g16/l1.exe PID=    164464.
  
 Copyright (c) 1988,1990,1992,1993,1995,1998,2003,2009,2016,
            Gaussian, Inc.  All Rights Reserved.
  
 This is part of the Gaussian(R) 16 program.  It is based on
 the Gaussian(R) 09 system (copyright 2009, Gaussian, Inc.),
 the Gaussian(R) 03 system (copyright 2003, Gaussian, Inc.),
 the Gaussian(R) 98 system (copyright 1998, Gaussian, Inc.),
 the Gaussian(R) 94 system (copyright 1995, Gaussian, Inc.),
 the Gaussian 92(TM) system (copyright 1992, Gaussian, Inc.),
 the Gaussian 90(TM) system (copyright 1990, Gaussian, Inc.),
 the Gaussian 88(TM) system (copyright 1988, Gaussian, Inc.),
 the Gaussian 86(TM) system (copyright 1986, Carnegie Mellon
 University), and the Gaussian 82(TM) system (copyright 1983,
 Carnegie Mellon University). Gaussian is a federally registered
 trademark of Gaussian, Inc.
  
 This software contains proprietary and confidential information,
 including trade secrets, belonging to Gaussian, Inc.
  
 This software is provided under written license and may be
 used, copied, transmitted, or stored only in accord with that
 written license.
  
 The following legend is applicable only to US Government
 contracts under FAR:
  
                    RESTRICTED RIGHTS LEGEND
  
 Use, reproduction and disclosure by the US Government is
 subject to restrictions as set forth in subparagraphs (a)
 and (c) of the Commercial Computer Software - Restricted
 Rights clause in FAR 52.227-19.
  
 Gaussian, Inc.
 340 Quinnipiac St., Bldg. 40, Wallingford CT 06492
  
  
 ---------------------------------------------------------------
 Warning -- This program may not be used in any manner that
 competes with the business of Gaussian, Inc. or will provide
 assistance to any competitor of Gaussian, Inc.  The licensee
 of this program is prohibited from giving any competitor of
 Gaussian, Inc. access to this program.  By using this program,
 the user acknowledges that Gaussian, Inc. is engaged in the
 business of creating and licensing software in the field of
 computational chemistry and represents and warrants to the
 licensee that it is not a competitor of Gaussian, Inc. and that
 it will not use this program in any manner prohibited above.
 ---------------------------------------------------------------
  

 Cite this work as:
 Gaussian 16, Revision A.03,
 M. J. Frisch, G. W. Trucks, H. B. Schlegel, G. E. Scuseria, 
 M. A. Robb, J. R. Cheeseman, G. Scalmani, V. Barone, 
 G. A. Petersson, H. Nakatsuji, X. Li, M. Caricato, A. V. Marenich, 
 J. Bloino, B. G. Janesko, R. Gomperts, B. Mennucci, H. P. Hratchian, 
 J. V. Ortiz, A. F. Izmaylov, J. L. Sonnenberg, D. Williams-Young, 
 F. Ding, F. Lipparini, F. Egidi, J. Goings, B. Peng, A. Petrone, 
 T. Henderson, D. Ranasinghe, V. G. Zakrzewski, J. Gao, N. Rega, 
 G. Zheng, W. Liang, M. Hada, M. Ehara, K. Toyota, R. Fukuda, 
 J. Hasegawa, M. Ishida, T. Nakajima, Y. Honda, O. Kitao, H. Nakai, 
 T. Vreven, K. Throssell, J. A. Montgomery, Jr., J. E. Peralta, 
 F. Ogliaro, M. J. Bearpark, J. J. Heyd, E. N. Brothers, K. N. Kudin, 
 V. N. Staroverov, T. A. Keith, R. Kobayashi, J. Normand, 
 K. Raghavachari, A. P. Rendell, J. C. Burant, S. S. Iyengar, 
 J. Tomasi, M. Cossi, J. M. Millam, M. Klene, C. Adamo, R. Cammi, 
 J. W. Ochterski, R. L. Martin, K. Morokuma, O. Farkas, 
 J. B. Foresman, and D. J. Fox, Gaussian, Inc., Wallingford CT, 2016.
 
 ******************************************
 Gaussian 16:  ES64L-G16RevA.03 25-Dec-2016
                14-Jul-2022 
 ******************************************
 %mem=10GB
 %chk=euvkbx1kp30u8_addon_10.chk
 %nprocshared=48
 Will use up to   48 processors via shared memory.
 -------------------------------------------------
 #P opt b3lyp/6-311G(d, p) empiricaldispersion=GD3
 -------------------------------------------------
 1/18=20,19=15,26=3,38=1/1,3;
 2/9=110,12=2,17=6,18=5,40=1/2;
 3/5=4,6=6,7=101,11=2,25=1,30=1,71=1,74=-5,124=31/1,2,3;
 4//1;
 5/5=2,38=5/2;
 6/7=2,8=2,9=2,10=2,28=1/1;
 7//1,2,3,16;
 1/18=20,19=15,26=3/3(2);
 2/9=110/2;
 99//99;
 2/9=110/2;
 3/5=4,6=6,7=101,11=2,25=1,30=1,71=1,74=-5,124=31/1,2,3;
 4/5=5,16=3,69=1/1;
 5/5=2,38=5/2;
 7//1,2,3,16;
 1/18=20,19=15,26=3/3(-5);
 2/9=110/2;
 6/7=2,8=2,9=2,10=2,19=2,28=1/1;
 99/9=1/99;
 Leave Link    1 at Thu Jul 14 21:37:47 2022, MaxMem=  1342177280 cpu:               2.2 elap:               0.1
 (Enter /home/mkliu/g16/l101.exe)
 -----
 force
 -----
 Symbolic Z-matrix:
 Charge =  0 Multiplicity = 1
 C                    -1.32229   1.86306  -3.88885 
 C                     0.18605   2.23747  -4.07494 
 C                     0.90826   0.87396  -4.2176 
 C                    -1.50134   0.34829  -4.22985 
 C                    -0.12904  -0.17602  -4.08295 
 C                    -2.46539  -0.24369  -3.14069 
 C                    -1.80327   1.9468   -2.49793 
 C                    -2.5399    0.85708  -2.13721 
 C                    -1.32481   2.84458  -1.5165 
 C                     0.85436   2.89814  -2.8105 
 C                     0.0403    3.2395   -1.58677 
 C                     1.76254   0.7056   -2.99636 
 C                     1.80469   1.85374  -2.2486 
 C                     2.13944  -0.51509  -2.45482 
 C                     0.18128  -1.35649  -3.55758 
 C                     1.56563  -1.76045  -3.10987 
 C                    -2.00054  -1.48303  -2.41598 
 C                    -0.83057  -2.09366  -2.79687 
 C                    -2.53256  -1.77463  -1.09139 
 C                    -3.03403   0.64617  -0.82377 
 C                    -3.11442  -0.70154  -0.30655 
 C                    -1.98042   2.77994  -0.30395 
 C                    -2.87617   1.72149   0.03582 
 C                    -1.35587   3.21361   0.89391 
 C                     0.70638   3.45019  -0.40128 
 C                    -0.01114   3.49843   0.83897 
 C                     2.38159   1.83917  -0.98663 
 C                     2.13734   3.0529   -0.11384 
 C                     2.77821  -0.54218  -1.2138 
 C                     2.91343   0.65043  -0.47925 
 C                     3.11047  -1.89915  -0.60286 
 C                     1.27638  -2.79146  -2.06838 
 C                    -0.1375   -3.03428  -1.99471 
 C                     2.02367  -2.88726  -0.94403 
 C                    -1.9466   -2.83664  -0.39525 
 C                    -0.72934  -3.45644  -0.83187 
 C                    -1.94797  -2.91477   1.03452 
 C                    -3.15346  -0.82596   1.09101 
 C                    -2.55931  -1.93525   1.77169 
 C                    -2.87713   1.56503   1.44836 
 C                    -1.92529   2.49416   1.99553 
 C                    -3.03331   0.30406   1.97078 
 C                    -1.12287   2.09663   3.03892 
 C                     0.83089   3.06521   1.90717 
 C                     2.07117   2.66737   1.33264 
 C                     0.28297   2.39195   2.98326 
 C                     3.47221   0.61934   0.93534 
 C                     2.71055   1.57084   1.81504 
 C                     3.0021   -1.84764   0.89174 
 C                     3.1819   -0.69967   1.59263 
 C                     1.43958  -3.43676   0.24352 
 C                     0.09064  -3.7507    0.29724 
 C                    -0.68375  -3.46331   1.46528 
 C                     2.06795  -2.82342   1.36365 
 C                    -0.06502  -2.94343   2.58178 
 C                     1.33473  -2.62197   2.51752 
 C                    -1.97115  -1.46989   3.00134 
 C                    -2.26501  -0.07685   3.12368 
 C                    -1.30965   0.79504   3.62068 
 C                    -0.72873  -1.94527   3.37183 
 C                     0.97866   1.27873   3.53023 
 C                     2.16816   0.88369   2.94604 
 C                     2.4581   -0.50577   2.81162 
 C                     1.54656  -1.43594   3.26888 
 C                     0.00096   0.31044   3.95164 
 C                     0.2845   -1.03435   3.82579 
 Cl                   -2.42994   2.90097  -4.83462 
 Cl                    0.36029   3.21039  -5.55083 
 Cl                    1.87528   0.6653   -5.69781 
 Cl                    2.67314  -2.36382  -4.38216 
 Cl                    4.74858  -2.37242  -1.19831 
 Cl                    5.23222   1.00278   0.80513 
 Cl                   -2.04349   0.0991   -5.90736 
 Cl                   -4.11123  -0.57192  -3.81922 
 Cl                    3.4128    4.284    -0.41298 
 Cl                    1.80804   4.3538   -3.27101 
 
 ITRead=  0  0  0  0  0  0  0  0  0  0  0  0  0  0  0  0  0  0  0  0
 ITRead=  0  0  0  0  0  0  0  0  0  0  0  0  0  0  0  0  0  0  0  0
 ITRead=  0  0  0  0  0  0  0  0  0  0  0  0  0  0  0  0  0  0  0  0
 ITRead=  0  0  0  0  0  0  0  0  0  0  0  0  0  0  0  0
 MicOpt= -1 -1 -1 -1 -1 -1 -1 -1 -1 -1 -1 -1 -1 -1 -1 -1 -1 -1 -1 -1
 MicOpt= -1 -1 -1 -1 -1 -1 -1 -1 -1 -1 -1 -1 -1 -1 -1 -1 -1 -1 -1 -1
 MicOpt= -1 -1 -1 -1 -1 -1 -1 -1 -1 -1 -1 -1 -1 -1 -1 -1 -1 -1 -1 -1
 MicOpt= -1 -1 -1 -1 -1 -1 -1 -1 -1 -1 -1 -1 -1 -1 -1 -1
 NAtoms=     76 NQM=       76 NQMF=       0 NMMI=      0 NMMIF=      0
                NMic=       0 NMicF=      0.
                    Isotopes and Nuclear Properties:
 (Nuclear quadrupole moments (NQMom) in fm**2, nuclear magnetic moments (NMagM)
  in nuclear magnetons)

  Atom         1           2           3           4           5           6           7           8           9          10
 IAtWgt=          12          12          12          12          12          12          12          12          12          12
 AtmWgt=  12.0000000  12.0000000  12.0000000  12.0000000  12.0000000  12.0000000  12.0000000  12.0000000  12.0000000  12.0000000
 NucSpn=           0           0           0           0           0           0           0           0           0           0
 AtZEff=  -0.0000000  -0.0000000  -0.0000000  -0.0000000  -0.0000000  -0.0000000  -0.0000000  -0.0000000  -0.0000000  -0.0000000
 NQMom=    0.0000000   0.0000000   0.0000000   0.0000000   0.0000000   0.0000000   0.0000000   0.0000000   0.0000000   0.0000000
 NMagM=    0.0000000   0.0000000   0.0000000   0.0000000   0.0000000   0.0000000   0.0000000   0.0000000   0.0000000   0.0000000
 AtZNuc=   6.0000000   6.0000000   6.0000000   6.0000000   6.0000000   6.0000000   6.0000000   6.0000000   6.0000000   6.0000000

  Atom        11          12          13          14          15          16          17          18          19          20
 IAtWgt=          12          12          12          12          12          12          12          12          12          12
 AtmWgt=  12.0000000  12.0000000  12.0000000  12.0000000  12.0000000  12.0000000  12.0000000  12.0000000  12.0000000  12.0000000
 NucSpn=           0           0           0           0           0           0           0           0           0           0
 AtZEff=  -0.0000000  -0.0000000  -0.0000000  -0.0000000  -0.0000000  -0.0000000  -0.0000000  -0.0000000  -0.0000000  -0.0000000
 NQMom=    0.0000000   0.0000000   0.0000000   0.0000000   0.0000000   0.0000000   0.0000000   0.0000000   0.0000000   0.0000000
 NMagM=    0.0000000   0.0000000   0.0000000   0.0000000   0.0000000   0.0000000   0.0000000   0.0000000   0.0000000   0.0000000
 AtZNuc=   6.0000000   6.0000000   6.0000000   6.0000000   6.0000000   6.0000000   6.0000000   6.0000000   6.0000000   6.0000000

  Atom        21          22          23          24          25          26          27          28          29          30
 IAtWgt=          12          12          12          12          12          12          12          12          12          12
 AtmWgt=  12.0000000  12.0000000  12.0000000  12.0000000  12.0000000  12.0000000  12.0000000  12.0000000  12.0000000  12.0000000
 NucSpn=           0           0           0           0           0           0           0           0           0           0
 AtZEff=  -0.0000000  -0.0000000  -0.0000000  -0.0000000  -0.0000000  -0.0000000  -0.0000000  -0.0000000  -0.0000000  -0.0000000
 NQMom=    0.0000000   0.0000000   0.0000000   0.0000000   0.0000000   0.0000000   0.0000000   0.0000000   0.0000000   0.0000000
 NMagM=    0.0000000   0.0000000   0.0000000   0.0000000   0.0000000   0.0000000   0.0000000   0.0000000   0.0000000   0.0000000
 AtZNuc=   6.0000000   6.0000000   6.0000000   6.0000000   6.0000000   6.0000000   6.0000000   6.0000000   6.0000000   6.0000000

  Atom        31          32          33          34          35          36          37          38          39          40
 IAtWgt=          12          12          12          12          12          12          12          12          12          12
 AtmWgt=  12.0000000  12.0000000  12.0000000  12.0000000  12.0000000  12.0000000  12.0000000  12.0000000  12.0000000  12.0000000
 NucSpn=           0           0           0           0           0           0           0           0           0           0
 AtZEff=  -0.0000000  -0.0000000  -0.0000000  -0.0000000  -0.0000000  -0.0000000  -0.0000000  -0.0000000  -0.0000000  -0.0000000
 NQMom=    0.0000000   0.0000000   0.0000000   0.0000000   0.0000000   0.0000000   0.0000000   0.0000000   0.0000000   0.0000000
 NMagM=    0.0000000   0.0000000   0.0000000   0.0000000   0.0000000   0.0000000   0.0000000   0.0000000   0.0000000   0.0000000
 AtZNuc=   6.0000000   6.0000000   6.0000000   6.0000000   6.0000000   6.0000000   6.0000000   6.0000000   6.0000000   6.0000000

  Atom        41          42          43          44          45          46          47          48          49          50
 IAtWgt=          12          12          12          12          12          12          12          12          12          12
 AtmWgt=  12.0000000  12.0000000  12.0000000  12.0000000  12.0000000  12.0000000  12.0000000  12.0000000  12.0000000  12.0000000
 NucSpn=           0           0           0           0           0           0           0           0           0           0
 AtZEff=  -0.0000000  -0.0000000  -0.0000000  -0.0000000  -0.0000000  -0.0000000  -0.0000000  -0.0000000  -0.0000000  -0.0000000
 NQMom=    0.0000000   0.0000000   0.0000000   0.0000000   0.0000000   0.0000000   0.0000000   0.0000000   0.0000000   0.0000000
 NMagM=    0.0000000   0.0000000   0.0000000   0.0000000   0.0000000   0.0000000   0.0000000   0.0000000   0.0000000   0.0000000
 AtZNuc=   6.0000000   6.0000000   6.0000000   6.0000000   6.0000000   6.0000000   6.0000000   6.0000000   6.0000000   6.0000000

  Atom        51          52          53          54          55          56          57          58          59          60
 IAtWgt=          12          12          12          12          12          12          12          12          12          12
 AtmWgt=  12.0000000  12.0000000  12.0000000  12.0000000  12.0000000  12.0000000  12.0000000  12.0000000  12.0000000  12.0000000
 NucSpn=           0           0           0           0           0           0           0           0           0           0
 AtZEff=  -0.0000000  -0.0000000  -0.0000000  -0.0000000  -0.0000000  -0.0000000  -0.0000000  -0.0000000  -0.0000000  -0.0000000
 NQMom=    0.0000000   0.0000000   0.0000000   0.0000000   0.0000000   0.0000000   0.0000000   0.0000000   0.0000000   0.0000000
 NMagM=    0.0000000   0.0000000   0.0000000   0.0000000   0.0000000   0.0000000   0.0000000   0.0000000   0.0000000   0.0000000
 AtZNuc=   6.0000000   6.0000000   6.0000000   6.0000000   6.0000000   6.0000000   6.0000000   6.0000000   6.0000000   6.0000000

  Atom        61          62          63          64          65          66          67          68          69          70
 IAtWgt=          12          12          12          12          12          12          35          35          35          35
 AtmWgt=  12.0000000  12.0000000  12.0000000  12.0000000  12.0000000  12.0000000  34.9688527  34.9688527  34.9688527  34.9688527
 NucSpn=           0           0           0           0           0           0           3           3           3           3
 AtZEff=  -0.0000000  -0.0000000  -0.0000000  -0.0000000  -0.0000000  -0.0000000  -0.0000000  -0.0000000  -0.0000000  -0.0000000
 NQMom=    0.0000000   0.0000000   0.0000000   0.0000000   0.0000000   0.0000000  -8.1650000  -8.1650000  -8.1650000  -8.1650000
 NMagM=    0.0000000   0.0000000   0.0000000   0.0000000   0.0000000   0.0000000   0.8218740   0.8218740   0.8218740   0.8218740
 AtZNuc=   6.0000000   6.0000000   6.0000000   6.0000000   6.0000000   6.0000000  17.0000000  17.0000000  17.0000000  17.0000000

  Atom        71          72          73          74          75          76
 IAtWgt=          35          35          35          35          35          35
 AtmWgt=  34.9688527  34.9688527  34.9688527  34.9688527  34.9688527  34.9688527
 NucSpn=           3           3           3           3           3           3
 AtZEff=  -0.0000000  -0.0000000  -0.0000000  -0.0000000  -0.0000000  -0.0000000
 NQMom=   -8.1650000  -8.1650000  -8.1650000  -8.1650000  -8.1650000  -8.1650000
 NMagM=    0.8218740   0.8218740   0.8218740   0.8218740   0.8218740   0.8218740
 AtZNuc=  17.0000000  17.0000000  17.0000000  17.0000000  17.0000000  17.0000000
 Leave Link  101 at Thu Jul 14 21:37:47 2022, MaxMem=  1342177280 cpu:              12.9 elap:               0.3
 (Enter /home/mkliu/g16/l103.exe)

 GradGradGradGradGradGradGradGradGradGradGradGradGradGradGradGradGradGrad
 Berny optimization.
 Initialization pass.
                           ----------------------------
                           !    Initial Parameters    !
                           ! (Angstroms and Degrees)  !
 --------------------------                            --------------------------
 ! Name  Definition              Value          Derivative Info.                !
 --------------------------------------------------------------------------------
 ! R1    R(1,2)                  1.5652         estimate D2E/DX2                !
 ! R2    R(1,4)                  1.563          estimate D2E/DX2                !
 ! R3    R(1,7)                  1.4741         estimate D2E/DX2                !
 ! R4    R(1,67)                 1.7885         estimate D2E/DX2                !
 ! R5    R(2,3)                  1.5496         estimate D2E/DX2                !
 ! R6    R(2,10)                 1.5754         estimate D2E/DX2                !
 ! R7    R(2,68)                 1.7763         estimate D2E/DX2                !
 ! R8    R(3,5)                  1.4821         estimate D2E/DX2                !
 ! R9    R(3,12)                 1.4999         estimate D2E/DX2                !
 ! R10   R(3,69)                 1.7804         estimate D2E/DX2                !
 ! R11   R(4,5)                  1.4764         estimate D2E/DX2                !
 ! R12   R(4,6)                  1.5704         estimate D2E/DX2                !
 ! R13   R(4,73)                 1.7805         estimate D2E/DX2                !
 ! R14   R(5,15)                 1.3288         estimate D2E/DX2                !
 ! R15   R(6,8)                  1.4914         estimate D2E/DX2                !
 ! R16   R(6,17)                 1.5091         estimate D2E/DX2                !
 ! R17   R(6,74)                 1.8102         estimate D2E/DX2                !
 ! R18   R(7,8)                  1.3639         estimate D2E/DX2                !
 ! R19   R(7,9)                  1.4136         estimate D2E/DX2                !
 ! R20   R(8,20)                 1.4191         estimate D2E/DX2                !
 ! R21   R(9,11)                 1.4228         estimate D2E/DX2                !
 ! R22   R(9,22)                 1.38           estimate D2E/DX2                !
 ! R23   R(10,11)                1.5089         estimate D2E/DX2                !
 ! R24   R(10,13)                1.5198         estimate D2E/DX2                !
 ! R25   R(10,76)                1.8001         estimate D2E/DX2                !
 ! R26   R(11,25)                1.376          estimate D2E/DX2                !
 ! R27   R(12,13)                1.3708         estimate D2E/DX2                !
 ! R28   R(12,14)                1.3876         estimate D2E/DX2                !
 ! R29   R(13,27)                1.3877         estimate D2E/DX2                !
 ! R30   R(14,16)                1.5196         estimate D2E/DX2                !
 ! R31   R(14,29)                1.396          estimate D2E/DX2                !
 ! R32   R(15,16)                1.51           estimate D2E/DX2                !
 ! R33   R(15,18)                1.4649         estimate D2E/DX2                !
 ! R34   R(16,32)                1.4938         estimate D2E/DX2                !
 ! R35   R(16,70)                1.7915         estimate D2E/DX2                !
 ! R36   R(17,18)                1.3736         estimate D2E/DX2                !
 ! R37   R(17,19)                1.4569         estimate D2E/DX2                !
 ! R38   R(18,33)                1.4172         estimate D2E/DX2                !
 ! R39   R(19,21)                1.4512         estimate D2E/DX2                !
 ! R40   R(19,35)                1.3985         estimate D2E/DX2                !
 ! R41   R(20,21)                1.4458         estimate D2E/DX2                !
 ! R42   R(20,23)                1.3857         estimate D2E/DX2                !
 ! R43   R(21,38)                1.4036         estimate D2E/DX2                !
 ! R44   R(22,23)                1.4276         estimate D2E/DX2                !
 ! R45   R(22,24)                1.4188         estimate D2E/DX2                !
 ! R46   R(23,40)                1.4212         estimate D2E/DX2                !
 ! R47   R(24,26)                1.3757         estimate D2E/DX2                !
 ! R48   R(24,41)                1.4337         estimate D2E/DX2                !
 ! R49   R(25,26)                1.4337         estimate D2E/DX2                !
 ! R50   R(25,28)                1.5127         estimate D2E/DX2                !
 ! R51   R(26,44)                1.4275         estimate D2E/DX2                !
 ! R52   R(27,28)                1.5148         estimate D2E/DX2                !
 ! R53   R(27,30)                1.3976         estimate D2E/DX2                !
 ! R54   R(28,45)                1.4984         estimate D2E/DX2                !
 ! R55   R(28,75)                1.7978         estimate D2E/DX2                !
 ! R56   R(29,30)                1.4072         estimate D2E/DX2                !
 ! R57   R(29,31)                1.5248         estimate D2E/DX2                !
 ! R58   R(30,47)                1.5213         estimate D2E/DX2                !
 ! R59   R(31,34)                1.5079         estimate D2E/DX2                !
 ! R60   R(31,49)                1.4994         estimate D2E/DX2                !
 ! R61   R(31,71)                1.8061         estimate D2E/DX2                !
 ! R62   R(32,33)                1.4365         estimate D2E/DX2                !
 ! R63   R(32,34)                1.3534         estimate D2E/DX2                !
 ! R64   R(33,36)                1.3714         estimate D2E/DX2                !
 ! R65   R(34,51)                1.433          estimate D2E/DX2                !
 ! R66   R(35,36)                1.4341         estimate D2E/DX2                !
 ! R67   R(35,37)                1.4319         estimate D2E/DX2                !
 ! R68   R(36,52)                1.4261         estimate D2E/DX2                !
 ! R69   R(37,39)                1.3699         estimate D2E/DX2                !
 ! R70   R(37,53)                1.4438         estimate D2E/DX2                !
 ! R71   R(38,39)                1.4307         estimate D2E/DX2                !
 ! R72   R(38,42)                1.4371         estimate D2E/DX2                !
 ! R73   R(39,57)                1.4403         estimate D2E/DX2                !
 ! R74   R(40,41)                1.4383         estimate D2E/DX2                !
 ! R75   R(40,42)                1.3738         estimate D2E/DX2                !
 ! R76   R(41,43)                1.375          estimate D2E/DX2                !
 ! R77   R(42,58)                1.4369         estimate D2E/DX2                !
 ! R78   R(43,46)                1.4376         estimate D2E/DX2                !
 ! R79   R(43,59)                1.4379         estimate D2E/DX2                !
 ! R80   R(44,45)                1.4236         estimate D2E/DX2                !
 ! R81   R(44,46)                1.3826         estimate D2E/DX2                !
 ! R82   R(45,48)                1.3579         estimate D2E/DX2                !
 ! R83   R(46,61)                1.4221         estimate D2E/DX2                !
 ! R84   R(47,48)                1.5031         estimate D2E/DX2                !
 ! R85   R(47,50)                1.502          estimate D2E/DX2                !
 ! R86   R(47,72)                1.806          estimate D2E/DX2                !
 ! R87   R(48,62)                1.4302         estimate D2E/DX2                !
 ! R88   R(49,50)                1.357          estimate D2E/DX2                !
 ! R89   R(49,54)                1.4309         estimate D2E/DX2                !
 ! R90   R(50,63)                1.4309         estimate D2E/DX2                !
 ! R91   R(51,52)                1.386          estimate D2E/DX2                !
 ! R92   R(51,54)                1.4233         estimate D2E/DX2                !
 ! R93   R(52,53)                1.4306         estimate D2E/DX2                !
 ! R94   R(53,55)                1.3783         estimate D2E/DX2                !
 ! R95   R(54,56)                1.3819         estimate D2E/DX2                !
 ! R96   R(55,56)                1.4376         estimate D2E/DX2                !
 ! R97   R(55,60)                1.4356         estimate D2E/DX2                !
 ! R98   R(56,64)                1.4199         estimate D2E/DX2                !
 ! R99   R(57,58)                1.429          estimate D2E/DX2                !
 ! R100  R(57,60)                1.3809         estimate D2E/DX2                !
 ! R101  R(58,59)                1.3856         estimate D2E/DX2                !
 ! R102  R(59,65)                1.436          estimate D2E/DX2                !
 ! R103  R(60,66)                1.4361         estimate D2E/DX2                !
 ! R104  R(61,62)                1.3828         estimate D2E/DX2                !
 ! R105  R(61,65)                1.4391         estimate D2E/DX2                !
 ! R106  R(62,63)                1.4257         estimate D2E/DX2                !
 ! R107  R(63,64)                1.3803         estimate D2E/DX2                !
 ! R108  R(64,66)                1.4367         estimate D2E/DX2                !
 ! R109  R(65,66)                1.3801         estimate D2E/DX2                !
 ! A1    A(2,1,4)              108.4386         estimate D2E/DX2                !
 ! A2    A(2,1,7)              114.3948         estimate D2E/DX2                !
 ! A3    A(2,1,67)             113.2742         estimate D2E/DX2                !
 ! A4    A(4,1,7)              102.9167         estimate D2E/DX2                !
 ! A5    A(4,1,67)             112.093          estimate D2E/DX2                !
 ! A6    A(7,1,67)             105.3036         estimate D2E/DX2                !
 ! A7    A(1,2,3)              104.4538         estimate D2E/DX2                !
 ! A8    A(1,2,10)             114.437          estimate D2E/DX2                !
 ! A9    A(1,2,68)             108.9251         estimate D2E/DX2                !
 ! A10   A(3,2,10)             104.1931         estimate D2E/DX2                !
 ! A11   A(3,2,68)             111.0846         estimate D2E/DX2                !
 ! A12   A(10,2,68)            113.3015         estimate D2E/DX2                !
 ! A13   A(2,3,5)              106.7873         estimate D2E/DX2                !
 ! A14   A(2,3,12)             106.8143         estimate D2E/DX2                !
 ! A15   A(2,3,69)             115.6473         estimate D2E/DX2                !
 ! A16   A(5,3,12)             104.1904         estimate D2E/DX2                !
 ! A17   A(5,3,69)             111.88           estimate D2E/DX2                !
 ! A18   A(12,3,69)            110.7591         estimate D2E/DX2                !
 ! A19   A(1,4,5)              102.4738         estimate D2E/DX2                !
 ! A20   A(1,4,6)              106.5201         estimate D2E/DX2                !
 ! A21   A(1,4,73)             112.0914         estimate D2E/DX2                !
 ! A22   A(5,4,6)              111.5757         estimate D2E/DX2                !
 ! A23   A(5,4,73)             109.0914         estimate D2E/DX2                !
 ! A24   A(6,4,73)             114.4418         estimate D2E/DX2                !
 ! A25   A(3,5,4)              112.9494         estimate D2E/DX2                !
 ! A26   A(3,5,15)             120.1203         estimate D2E/DX2                !
 ! A27   A(4,5,15)             124.8821         estimate D2E/DX2                !
 ! A28   A(4,6,8)              102.6562         estimate D2E/DX2                !
 ! A29   A(4,6,17)             116.9726         estimate D2E/DX2                !
 ! A30   A(4,6,74)             111.5017         estimate D2E/DX2                !
 ! A31   A(8,6,17)             107.363          estimate D2E/DX2                !
 ! A32   A(8,6,74)             109.9141         estimate D2E/DX2                !
 ! A33   A(17,6,74)            108.1296         estimate D2E/DX2                !
 ! A34   A(1,7,8)              112.3579         estimate D2E/DX2                !
 ! A35   A(1,7,9)              125.5034         estimate D2E/DX2                !
 ! A36   A(8,7,9)              120.4394         estimate D2E/DX2                !
 ! A37   A(6,8,7)              112.6297         estimate D2E/DX2                !
 ! A38   A(6,8,20)             122.0369         estimate D2E/DX2                !
 ! A39   A(7,8,20)             123.4768         estimate D2E/DX2                !
 ! A40   A(7,9,11)             117.8232         estimate D2E/DX2                !
 ! A41   A(7,9,22)             114.804          estimate D2E/DX2                !
 ! A42   A(11,9,22)            120.8115         estimate D2E/DX2                !
 ! A43   A(2,10,11)            121.1267         estimate D2E/DX2                !
 ! A44   A(2,10,13)            105.8919         estimate D2E/DX2                !
 ! A45   A(2,10,76)            111.0099         estimate D2E/DX2                !
 ! A46   A(11,10,13)           101.1266         estimate D2E/DX2                !
 ! A47   A(11,10,76)           108.0809         estimate D2E/DX2                !
 ! A48   A(13,10,76)           108.6032         estimate D2E/DX2                !
 ! A49   A(9,11,10)            119.6623         estimate D2E/DX2                !
 ! A50   A(9,11,25)            117.6703         estimate D2E/DX2                !
 ! A51   A(10,11,25)           118.1772         estimate D2E/DX2                !
 ! A52   A(3,12,13)            111.571          estimate D2E/DX2                !
 ! A53   A(3,12,14)            124.8359         estimate D2E/DX2                !
 ! A54   A(13,12,14)           121.0361         estimate D2E/DX2                !
 ! A55   A(10,13,12)           110.7738         estimate D2E/DX2                !
 ! A56   A(10,13,27)           127.1154         estimate D2E/DX2                !
 ! A57   A(12,13,27)           120.0045         estimate D2E/DX2                !
 ! A58   A(12,14,16)           116.7535         estimate D2E/DX2                !
 ! A59   A(12,14,29)           119.2287         estimate D2E/DX2                !
 ! A60   A(16,14,29)           122.6882         estimate D2E/DX2                !
 ! A61   A(5,15,16)            124.679          estimate D2E/DX2                !
 ! A62   A(5,15,18)            119.4086         estimate D2E/DX2                !
 ! A63   A(16,15,18)           110.1612         estimate D2E/DX2                !
 ! A64   A(14,16,15)           104.7588         estimate D2E/DX2                !
 ! A65   A(14,16,32)           109.768          estimate D2E/DX2                !
 ! A66   A(14,16,70)           110.4087         estimate D2E/DX2                !
 ! A67   A(15,16,32)           102.348          estimate D2E/DX2                !
 ! A68   A(15,16,70)           116.5069         estimate D2E/DX2                !
 ! A69   A(32,16,70)           112.4829         estimate D2E/DX2                !
 ! A70   A(6,17,18)            119.6234         estimate D2E/DX2                !
 ! A71   A(6,17,19)            119.2425         estimate D2E/DX2                !
 ! A72   A(18,17,19)           118.3054         estimate D2E/DX2                !
 ! A73   A(15,18,17)           120.572          estimate D2E/DX2                !
 ! A74   A(15,18,33)           106.8649         estimate D2E/DX2                !
 ! A75   A(17,18,33)           123.685          estimate D2E/DX2                !
 ! A76   A(17,19,21)           119.3481         estimate D2E/DX2                !
 ! A77   A(17,19,35)           116.843          estimate D2E/DX2                !
 ! A78   A(21,19,35)           117.4069         estimate D2E/DX2                !
 ! A79   A(8,20,21)            119.2761         estimate D2E/DX2                !
 ! A80   A(8,20,23)            114.7813         estimate D2E/DX2                !
 ! A81   A(21,20,23)           120.5163         estimate D2E/DX2                !
 ! A82   A(19,21,20)           118.2619         estimate D2E/DX2                !
 ! A83   A(19,21,38)           118.9527         estimate D2E/DX2                !
 ! A84   A(20,21,38)           116.1275         estimate D2E/DX2                !
 ! A85   A(9,22,23)            122.8161         estimate D2E/DX2                !
 ! A86   A(9,22,24)            121.2253         estimate D2E/DX2                !
 ! A87   A(23,22,24)           107.5705         estimate D2E/DX2                !
 ! A88   A(20,23,22)           119.9461         estimate D2E/DX2                !
 ! A89   A(20,23,40)           122.077          estimate D2E/DX2                !
 ! A90   A(22,23,40)           108.578          estimate D2E/DX2                !
 ! A91   A(22,24,26)           117.3784         estimate D2E/DX2                !
 ! A92   A(22,24,41)           108.6938         estimate D2E/DX2                !
 ! A93   A(26,24,41)           121.5223         estimate D2E/DX2                !
 ! A94   A(11,25,26)           120.5437         estimate D2E/DX2                !
 ! A95   A(11,25,28)           125.5502         estimate D2E/DX2                !
 ! A96   A(26,25,28)           108.536          estimate D2E/DX2                !
 ! A97   A(24,26,25)           121.1183         estimate D2E/DX2                !
 ! A98   A(24,26,44)           118.9394         estimate D2E/DX2                !
 ! A99   A(25,26,44)           109.9943         estimate D2E/DX2                !
 ! A100  A(13,27,28)           116.6507         estimate D2E/DX2                !
 ! A101  A(13,27,30)           119.8197         estimate D2E/DX2                !
 ! A102  A(28,27,30)           122.2549         estimate D2E/DX2                !
 ! A103  A(25,28,27)           104.6844         estimate D2E/DX2                !
 ! A104  A(25,28,45)           102.0776         estimate D2E/DX2                !
 ! A105  A(25,28,75)           117.3665         estimate D2E/DX2                !
 ! A106  A(27,28,45)           110.9265         estimate D2E/DX2                !
 ! A107  A(27,28,75)           109.7817         estimate D2E/DX2                !
 ! A108  A(45,28,75)           111.6012         estimate D2E/DX2                !
 ! A109  A(14,29,30)           119.443          estimate D2E/DX2                !
 ! A110  A(14,29,31)           118.2395         estimate D2E/DX2                !
 ! A111  A(30,29,31)           121.6107         estimate D2E/DX2                !
 ! A112  A(27,30,29)           119.6549         estimate D2E/DX2                !
 ! A113  A(27,30,47)           119.6516         estimate D2E/DX2                !
 ! A114  A(29,30,47)           120.223          estimate D2E/DX2                !
 ! A115  A(29,31,34)           109.5996         estimate D2E/DX2                !
 ! A116  A(29,31,49)           110.6745         estimate D2E/DX2                !
 ! A117  A(29,31,71)           107.3819         estimate D2E/DX2                !
 ! A118  A(34,31,49)           101.3001         estimate D2E/DX2                !
 ! A119  A(34,31,71)           114.0408         estimate D2E/DX2                !
 ! A120  A(49,31,71)           113.778          estimate D2E/DX2                !
 ! A121  A(16,32,33)           110.0613         estimate D2E/DX2                !
 ! A122  A(16,32,34)           121.4093         estimate D2E/DX2                !
 ! A123  A(33,32,34)           119.2677         estimate D2E/DX2                !
 ! A124  A(18,33,32)           109.8843         estimate D2E/DX2                !
 ! A125  A(18,33,36)           118.2418         estimate D2E/DX2                !
 ! A126  A(32,33,36)           121.3523         estimate D2E/DX2                !
 ! A127  A(31,34,32)           122.6504         estimate D2E/DX2                !
 ! A128  A(31,34,51)           110.9491         estimate D2E/DX2                !
 ! A129  A(32,34,51)           119.3768         estimate D2E/DX2                !
 ! A130  A(19,35,36)           122.1613         estimate D2E/DX2                !
 ! A131  A(19,35,37)           122.552          estimate D2E/DX2                !
 ! A132  A(36,35,37)           106.334          estimate D2E/DX2                !
 ! A133  A(33,36,35)           119.435          estimate D2E/DX2                !
 ! A134  A(33,36,52)           119.1249         estimate D2E/DX2                !
 ! A135  A(35,36,52)           109.6441         estimate D2E/DX2                !
 ! A136  A(35,37,39)           119.916          estimate D2E/DX2                !
 ! A137  A(35,37,53)           108.5296         estimate D2E/DX2                !
 ! A138  A(39,37,53)           120.1226         estimate D2E/DX2                !
 ! A139  A(21,38,39)           122.0653         estimate D2E/DX2                !
 ! A140  A(21,38,42)           122.5133         estimate D2E/DX2                !
 ! A141  A(39,38,42)           106.4809         estimate D2E/DX2                !
 ! A142  A(37,39,38)           118.9283         estimate D2E/DX2                !
 ! A143  A(37,39,57)           120.5438         estimate D2E/DX2                !
 ! A144  A(38,39,57)           108.9808         estimate D2E/DX2                !
 ! A145  A(23,40,41)           107.8519         estimate D2E/DX2                !
 ! A146  A(23,40,42)           118.6255         estimate D2E/DX2                !
 ! A147  A(41,40,42)           121.5673         estimate D2E/DX2                !
 ! A148  A(24,41,40)           107.1394         estimate D2E/DX2                !
 ! A149  A(24,41,43)           119.7611         estimate D2E/DX2                !
 ! A150  A(40,41,43)           119.2179         estimate D2E/DX2                !
 ! A151  A(38,42,40)           119.8963         estimate D2E/DX2                !
 ! A152  A(38,42,58)           109.1136         estimate D2E/DX2                !
 ! A153  A(40,42,58)           119.1866         estimate D2E/DX2                !
 ! A154  A(41,43,46)           118.811          estimate D2E/DX2                !
 ! A155  A(41,43,59)           119.5334         estimate D2E/DX2                !
 ! A156  A(46,43,59)           109.1867         estimate D2E/DX2                !
 ! A157  A(26,44,45)           107.2608         estimate D2E/DX2                !
 ! A158  A(26,44,46)           119.7655         estimate D2E/DX2                !
 ! A159  A(45,44,46)           121.5536         estimate D2E/DX2                !
 ! A160  A(28,45,44)           110.8639         estimate D2E/DX2                !
 ! A161  A(28,45,48)           121.9993         estimate D2E/DX2                !
 ! A162  A(44,45,48)           119.5063         estimate D2E/DX2                !
 ! A163  A(43,46,44)           121.1793         estimate D2E/DX2                !
 ! A164  A(43,46,61)           107.6192         estimate D2E/DX2                !
 ! A165  A(44,46,61)           119.1231         estimate D2E/DX2                !
 ! A166  A(30,47,48)           110.1908         estimate D2E/DX2                !
 ! A167  A(30,47,50)           110.724          estimate D2E/DX2                !
 ! A168  A(30,47,72)           106.6532         estimate D2E/DX2                !
 ! A169  A(48,47,50)           101.6449         estimate D2E/DX2                !
 ! A170  A(48,47,72)           113.6793         estimate D2E/DX2                !
 ! A171  A(50,47,72)           113.9756         estimate D2E/DX2                !
 ! A172  A(45,48,47)           122.8101         estimate D2E/DX2                !
 ! A173  A(45,48,62)           119.363          estimate D2E/DX2                !
 ! A174  A(47,48,62)           110.5388         estimate D2E/DX2                !
 ! A175  A(31,49,50)           122.2989         estimate D2E/DX2                !
 ! A176  A(31,49,54)           110.6404         estimate D2E/DX2                !
 ! A177  A(50,49,54)           119.5417         estimate D2E/DX2                !
 ! A178  A(47,50,49)           122.8525         estimate D2E/DX2                !
 ! A179  A(47,50,63)           110.5831         estimate D2E/DX2                !
 ! A180  A(49,50,63)           119.1849         estimate D2E/DX2                !
 ! A181  A(34,51,52)           121.0428         estimate D2E/DX2                !
 ! A182  A(34,51,54)           107.8799         estimate D2E/DX2                !
 ! A183  A(52,51,54)           119.7875         estimate D2E/DX2                !
 ! A184  A(36,52,51)           118.8266         estimate D2E/DX2                !
 ! A185  A(36,52,53)           107.082          estimate D2E/DX2                !
 ! A186  A(51,52,53)           120.8612         estimate D2E/DX2                !
 ! A187  A(37,53,52)           107.86           estimate D2E/DX2                !
 ! A188  A(37,53,55)           119.4356         estimate D2E/DX2                !
 ! A189  A(52,53,55)           119.6149         estimate D2E/DX2                !
 ! A190  A(49,54,51)           108.8161         estimate D2E/DX2                !
 ! A191  A(49,54,56)           121.4907         estimate D2E/DX2                !
 ! A192  A(51,54,56)           119.0595         estimate D2E/DX2                !
 ! A193  A(53,55,56)           119.0273         estimate D2E/DX2                !
 ! A194  A(53,55,60)           120.0334         estimate D2E/DX2                !
 ! A195  A(56,55,60)           108.6181         estimate D2E/DX2                !
 ! A196  A(54,56,55)           121.4221         estimate D2E/DX2                !
 ! A197  A(54,56,64)           118.9774         estimate D2E/DX2                !
 ! A198  A(55,56,64)           107.9619         estimate D2E/DX2                !
 ! A199  A(39,57,58)           107.7031         estimate D2E/DX2                !
 ! A200  A(39,57,60)           119.0277         estimate D2E/DX2                !
 ! A201  A(58,57,60)           119.8456         estimate D2E/DX2                !
 ! A202  A(42,58,57)           107.4401         estimate D2E/DX2                !
 ! A203  A(42,58,59)           119.3188         estimate D2E/DX2                !
 ! A204  A(57,58,59)           120.1551         estimate D2E/DX2                !
 ! A205  A(43,59,58)           120.9336         estimate D2E/DX2                !
 ! A206  A(43,59,65)           106.2706         estimate D2E/DX2                !
 ! A207  A(58,59,65)           119.9745         estimate D2E/DX2                !
 ! A208  A(55,60,57)           120.5082         estimate D2E/DX2                !
 ! A209  A(55,60,66)           106.7854         estimate D2E/DX2                !
 ! A210  A(57,60,66)           120.0816         estimate D2E/DX2                !
 ! A211  A(46,61,62)           118.8117         estimate D2E/DX2                !
 ! A212  A(46,61,65)           107.8769         estimate D2E/DX2                !
 ! A213  A(62,61,65)           121.0568         estimate D2E/DX2                !
 ! A214  A(48,62,61)           121.5362         estimate D2E/DX2                !
 ! A215  A(48,62,63)           108.4544         estimate D2E/DX2                !
 ! A216  A(61,62,63)           119.5483         estimate D2E/DX2                !
 ! A217  A(50,63,62)           108.3758         estimate D2E/DX2                !
 ! A218  A(50,63,64)           121.6653         estimate D2E/DX2                !
 ! A219  A(62,63,64)           119.4204         estimate D2E/DX2                !
 ! A220  A(56,64,63)           119.0863         estimate D2E/DX2                !
 ! A221  A(56,64,66)           107.9116         estimate D2E/DX2                !
 ! A222  A(63,64,66)           121.3427         estimate D2E/DX2                !
 ! A223  A(59,65,61)           108.9962         estimate D2E/DX2                !
 ! A224  A(59,65,66)           119.6911         estimate D2E/DX2                !
 ! A225  A(61,65,66)           119.2969         estimate D2E/DX2                !
 ! A226  A(60,66,64)           108.6585         estimate D2E/DX2                !
 ! A227  A(60,66,65)           120.1274         estimate D2E/DX2                !
 ! A228  A(64,66,65)           119.221          estimate D2E/DX2                !
 ! D1    D(4,1,2,3)            -12.0356         estimate D2E/DX2                !
 ! D2    D(4,1,2,10)          -125.3169         estimate D2E/DX2                !
 ! D3    D(4,1,2,68)           106.7225         estimate D2E/DX2                !
 ! D4    D(7,1,2,3)            102.1649         estimate D2E/DX2                !
 ! D5    D(7,1,2,10)           -11.1164         estimate D2E/DX2                !
 ! D6    D(7,1,2,68)          -139.077          estimate D2E/DX2                !
 ! D7    D(67,1,2,3)          -137.1347         estimate D2E/DX2                !
 ! D8    D(67,1,2,10)          109.584          estimate D2E/DX2                !
 ! D9    D(67,1,2,68)          -18.3766         estimate D2E/DX2                !
 ! D10   D(2,1,4,5)             20.5615         estimate D2E/DX2                !
 ! D11   D(2,1,4,6)            137.8485         estimate D2E/DX2                !
 ! D12   D(2,1,4,73)           -96.2664         estimate D2E/DX2                !
 ! D13   D(7,1,4,5)           -100.9814         estimate D2E/DX2                !
 ! D14   D(7,1,4,6)             16.3057         estimate D2E/DX2                !
 ! D15   D(7,1,4,73)           142.1908         estimate D2E/DX2                !
 ! D16   D(67,1,4,5)           146.3541         estimate D2E/DX2                !
 ! D17   D(67,1,4,6)           -96.3589         estimate D2E/DX2                !
 ! D18   D(67,1,4,73)           29.5262         estimate D2E/DX2                !
 ! D19   D(2,1,7,8)           -134.0791         estimate D2E/DX2                !
 ! D20   D(2,1,7,9)             31.0124         estimate D2E/DX2                !
 ! D21   D(4,1,7,8)            -16.6716         estimate D2E/DX2                !
 ! D22   D(4,1,7,9)            148.4199         estimate D2E/DX2                !
 ! D23   D(67,1,7,8)           100.8973         estimate D2E/DX2                !
 ! D24   D(67,1,7,9)           -94.0111         estimate D2E/DX2                !
 ! D25   D(1,2,3,5)             -1.3682         estimate D2E/DX2                !
 ! D26   D(1,2,3,12)          -112.3858         estimate D2E/DX2                !
 ! D27   D(1,2,3,69)           123.8463         estimate D2E/DX2                !
 ! D28   D(10,2,3,5)           119.02           estimate D2E/DX2                !
 ! D29   D(10,2,3,12)            8.0024         estimate D2E/DX2                !
 ! D30   D(10,2,3,69)         -115.7655         estimate D2E/DX2                !
 ! D31   D(68,2,3,5)          -118.6487         estimate D2E/DX2                !
 ! D32   D(68,2,3,12)          130.3337         estimate D2E/DX2                !
 ! D33   D(68,2,3,69)            6.5658         estimate D2E/DX2                !
 ! D34   D(1,2,10,11)           -5.2573         estimate D2E/DX2                !
 ! D35   D(1,2,10,13)          108.7165         estimate D2E/DX2                !
 ! D36   D(1,2,10,76)         -133.5956         estimate D2E/DX2                !
 ! D37   D(3,2,10,11)         -118.6927         estimate D2E/DX2                !
 ! D38   D(3,2,10,13)           -4.719          estimate D2E/DX2                !
 ! D39   D(3,2,10,76)          112.969          estimate D2E/DX2                !
 ! D40   D(68,2,10,11)         120.4463         estimate D2E/DX2                !
 ! D41   D(68,2,10,13)        -125.5799         estimate D2E/DX2                !
 ! D42   D(68,2,10,76)          -7.892          estimate D2E/DX2                !
 ! D43   D(2,3,5,4)             15.589          estimate D2E/DX2                !
 ! D44   D(2,3,5,15)          -148.9153         estimate D2E/DX2                !
 ! D45   D(12,3,5,4)           128.4153         estimate D2E/DX2                !
 ! D46   D(12,3,5,15)          -36.0891         estimate D2E/DX2                !
 ! D47   D(69,3,5,4)          -111.8806         estimate D2E/DX2                !
 ! D48   D(69,3,5,15)           83.615          estimate D2E/DX2                !
 ! D49   D(2,3,12,13)           -9.0005         estimate D2E/DX2                !
 ! D50   D(2,3,12,14)          152.9137         estimate D2E/DX2                !
 ! D51   D(5,3,12,13)         -121.8074         estimate D2E/DX2                !
 ! D52   D(5,3,12,14)           40.1068         estimate D2E/DX2                !
 ! D53   D(69,3,12,13)         117.7333         estimate D2E/DX2                !
 ! D54   D(69,3,12,14)         -80.3525         estimate D2E/DX2                !
 ! D55   D(1,4,5,3)            -22.4161         estimate D2E/DX2                !
 ! D56   D(1,4,5,15)           141.222          estimate D2E/DX2                !
 ! D57   D(6,4,5,3)           -136.0346         estimate D2E/DX2                !
 ! D58   D(6,4,5,15)            27.6034         estimate D2E/DX2                !
 ! D59   D(73,4,5,3)            96.5414         estimate D2E/DX2                !
 ! D60   D(73,4,5,15)          -99.8205         estimate D2E/DX2                !
 ! D61   D(1,4,6,8)            -10.8494         estimate D2E/DX2                !
 ! D62   D(1,4,6,17)          -128.0734         estimate D2E/DX2                !
 ! D63   D(1,4,6,74)           106.7746         estimate D2E/DX2                !
 ! D64   D(5,4,6,8)            100.2234         estimate D2E/DX2                !
 ! D65   D(5,4,6,17)           -17.0006         estimate D2E/DX2                !
 ! D66   D(5,4,6,74)          -142.1526         estimate D2E/DX2                !
 ! D67   D(73,4,6,8)          -135.3            estimate D2E/DX2                !
 ! D68   D(73,4,6,17)          107.476          estimate D2E/DX2                !
 ! D69   D(73,4,6,74)          -17.676          estimate D2E/DX2                !
 ! D70   D(3,5,15,16)           -2.3436         estimate D2E/DX2                !
 ! D71   D(3,5,15,18)          148.2444         estimate D2E/DX2                !
 ! D72   D(4,5,15,16)         -164.8918         estimate D2E/DX2                !
 ! D73   D(4,5,15,18)          -14.3039         estimate D2E/DX2                !
 ! D74   D(4,6,8,7)              0.8708         estimate D2E/DX2                !
 ! D75   D(4,6,8,20)          -164.1083         estimate D2E/DX2                !
 ! D76   D(17,6,8,7)           124.7377         estimate D2E/DX2                !
 ! D77   D(17,6,8,20)          -40.2415         estimate D2E/DX2                !
 ! D78   D(74,6,8,7)          -117.8732         estimate D2E/DX2                !
 ! D79   D(74,6,8,20)           77.1476         estimate D2E/DX2                !
 ! D80   D(4,6,17,18)           -4.9673         estimate D2E/DX2                !
 ! D81   D(4,6,17,19)          155.6771         estimate D2E/DX2                !
 ! D82   D(8,6,17,18)         -119.5941         estimate D2E/DX2                !
 ! D83   D(8,6,17,19)           41.0504         estimate D2E/DX2                !
 ! D84   D(74,6,17,18)         121.8582         estimate D2E/DX2                !
 ! D85   D(74,6,17,19)         -77.4973         estimate D2E/DX2                !
 ! D86   D(1,7,8,6)             10.4487         estimate D2E/DX2                !
 ! D87   D(1,7,8,20)           175.1771         estimate D2E/DX2                !
 ! D88   D(9,7,8,6)           -155.492          estimate D2E/DX2                !
 ! D89   D(9,7,8,20)             9.2364         estimate D2E/DX2                !
 ! D90   D(1,7,9,11)           -31.3363         estimate D2E/DX2                !
 ! D91   D(1,7,9,22)           176.787          estimate D2E/DX2                !
 ! D92   D(8,7,9,11)           132.6437         estimate D2E/DX2                !
 ! D93   D(8,7,9,22)           -19.233          estimate D2E/DX2                !
 ! D94   D(6,8,20,21)           17.8253         estimate D2E/DX2                !
 ! D95   D(6,8,20,23)          171.9838         estimate D2E/DX2                !
 ! D96   D(7,8,20,21)         -145.5086         estimate D2E/DX2                !
 ! D97   D(7,8,20,23)            8.6499         estimate D2E/DX2                !
 ! D98   D(7,9,11,10)           10.6965         estimate D2E/DX2                !
 ! D99   D(7,9,11,25)         -145.1159         estimate D2E/DX2                !
 ! D100  D(22,9,11,10)         160.8153         estimate D2E/DX2                !
 ! D101  D(22,9,11,25)           5.0028         estimate D2E/DX2                !
 ! D102  D(7,9,22,23)           12.3016         estimate D2E/DX2                !
 ! D103  D(7,9,22,24)          156.4933         estimate D2E/DX2                !
 ! D104  D(11,9,22,23)        -138.6607         estimate D2E/DX2                !
 ! D105  D(11,9,22,24)           5.531          estimate D2E/DX2                !
 ! D106  D(2,10,11,9)            6.1341         estimate D2E/DX2                !
 ! D107  D(2,10,11,25)         161.8255         estimate D2E/DX2                !
 ! D108  D(13,10,11,9)        -110.2746         estimate D2E/DX2                !
 ! D109  D(13,10,11,25)         45.4168         estimate D2E/DX2                !
 ! D110  D(76,10,11,9)         135.7575         estimate D2E/DX2                !
 ! D111  D(76,10,11,25)        -68.551          estimate D2E/DX2                !
 ! D112  D(2,10,13,12)          -0.551          estimate D2E/DX2                !
 ! D113  D(2,10,13,27)        -163.8392         estimate D2E/DX2                !
 ! D114  D(11,10,13,12)        126.589          estimate D2E/DX2                !
 ! D115  D(11,10,13,27)        -36.6993         estimate D2E/DX2                !
 ! D116  D(76,10,13,12)       -119.8364         estimate D2E/DX2                !
 ! D117  D(76,10,13,27)         76.8754         estimate D2E/DX2                !
 ! D118  D(9,11,25,26)         -10.6697         estimate D2E/DX2                !
 ! D119  D(9,11,25,28)         140.4177         estimate D2E/DX2                !
 ! D120  D(10,11,25,26)       -166.8476         estimate D2E/DX2                !
 ! D121  D(10,11,25,28)        -15.7601         estimate D2E/DX2                !
 ! D122  D(3,12,13,10)           5.9923         estimate D2E/DX2                !
 ! D123  D(3,12,13,27)         170.6378         estimate D2E/DX2                !
 ! D124  D(14,12,13,10)       -156.7074         estimate D2E/DX2                !
 ! D125  D(14,12,13,27)          7.9381         estimate D2E/DX2                !
 ! D126  D(3,12,14,16)          -3.9243         estimate D2E/DX2                !
 ! D127  D(3,12,14,29)        -171.1181         estimate D2E/DX2                !
 ! D128  D(13,12,14,16)        156.3856         estimate D2E/DX2                !
 ! D129  D(13,12,14,29)        -10.8082         estimate D2E/DX2                !
 ! D130  D(10,13,27,28)         -5.7596         estimate D2E/DX2                !
 ! D131  D(10,13,27,30)        161.6385         estimate D2E/DX2                !
 ! D132  D(12,13,27,28)       -167.672          estimate D2E/DX2                !
 ! D133  D(12,13,27,30)         -0.2739         estimate D2E/DX2                !
 ! D134  D(12,14,16,15)        -34.1311         estimate D2E/DX2                !
 ! D135  D(12,14,16,32)       -143.3799         estimate D2E/DX2                !
 ! D136  D(12,14,16,70)         92.0588         estimate D2E/DX2                !
 ! D137  D(29,14,16,15)        132.5817         estimate D2E/DX2                !
 ! D138  D(29,14,16,32)         23.3329         estimate D2E/DX2                !
 ! D139  D(29,14,16,70)       -101.2285         estimate D2E/DX2                !
 ! D140  D(12,14,29,30)          6.0166         estimate D2E/DX2                !
 ! D141  D(12,14,29,31)        176.5422         estimate D2E/DX2                !
 ! D142  D(16,14,29,30)       -160.3816         estimate D2E/DX2                !
 ! D143  D(16,14,29,31)         10.1439         estimate D2E/DX2                !
 ! D144  D(5,15,16,14)          39.4154         estimate D2E/DX2                !
 ! D145  D(5,15,16,32)         153.9791         estimate D2E/DX2                !
 ! D146  D(5,15,16,70)         -82.8851         estimate D2E/DX2                !
 ! D147  D(18,15,16,14)       -113.4728         estimate D2E/DX2                !
 ! D148  D(18,15,16,32)          1.0909         estimate D2E/DX2                !
 ! D149  D(18,15,16,70)        124.2267         estimate D2E/DX2                !
 ! D150  D(5,15,18,17)         -11.8943         estimate D2E/DX2                !
 ! D151  D(5,15,18,33)        -160.3469         estimate D2E/DX2                !
 ! D152  D(16,15,18,17)        142.6251         estimate D2E/DX2                !
 ! D153  D(16,15,18,33)         -5.8275         estimate D2E/DX2                !
 ! D154  D(14,16,32,33)        114.8918         estimate D2E/DX2                !
 ! D155  D(14,16,32,34)        -31.4978         estimate D2E/DX2                !
 ! D156  D(15,16,32,33)          4.0501         estimate D2E/DX2                !
 ! D157  D(15,16,32,34)       -142.3395         estimate D2E/DX2                !
 ! D158  D(70,16,32,33)       -121.7568         estimate D2E/DX2                !
 ! D159  D(70,16,32,34)         91.8536         estimate D2E/DX2                !
 ! D160  D(6,17,18,15)          20.4463         estimate D2E/DX2                !
 ! D161  D(6,17,18,33)         163.4521         estimate D2E/DX2                !
 ! D162  D(19,17,18,15)       -140.3781         estimate D2E/DX2                !
 ! D163  D(19,17,18,33)          2.6278         estimate D2E/DX2                !
 ! D164  D(6,17,19,21)         -20.9106         estimate D2E/DX2                !
 ! D165  D(6,17,19,35)        -172.1231         estimate D2E/DX2                !
 ! D166  D(18,17,19,21)        139.9884         estimate D2E/DX2                !
 ! D167  D(18,17,19,35)        -11.2242         estimate D2E/DX2                !
 ! D168  D(15,18,33,32)          8.4194         estimate D2E/DX2                !
 ! D169  D(15,18,33,36)        153.7372         estimate D2E/DX2                !
 ! D170  D(17,18,33,32)       -138.8037         estimate D2E/DX2                !
 ! D171  D(17,18,33,36)          6.5142         estimate D2E/DX2                !
 ! D172  D(17,19,21,20)         -5.516          estimate D2E/DX2                !
 ! D173  D(17,19,21,38)       -155.8347         estimate D2E/DX2                !
 ! D174  D(35,19,21,20)        145.5373         estimate D2E/DX2                !
 ! D175  D(35,19,21,38)         -4.7814         estimate D2E/DX2                !
 ! D176  D(17,19,35,36)         11.3241         estimate D2E/DX2                !
 ! D177  D(17,19,35,37)        154.0282         estimate D2E/DX2                !
 ! D178  D(21,19,35,36)       -140.4579         estimate D2E/DX2                !
 ! D179  D(21,19,35,37)          2.2462         estimate D2E/DX2                !
 ! D180  D(8,20,21,19)           7.4393         estimate D2E/DX2                !
 ! D181  D(8,20,21,38)         158.5838         estimate D2E/DX2                !
 ! D182  D(23,20,21,19)       -145.214          estimate D2E/DX2                !
 ! D183  D(23,20,21,38)          5.9305         estimate D2E/DX2                !
 ! D184  D(8,20,23,22)         -15.4744         estimate D2E/DX2                !
 ! D185  D(8,20,23,40)        -158.1289         estimate D2E/DX2                !
 ! D186  D(21,20,23,22)        138.3361         estimate D2E/DX2                !
 ! D187  D(21,20,23,40)         -4.3184         estimate D2E/DX2                !
 ! D188  D(19,21,38,39)          4.2135         estimate D2E/DX2                !
 ! D189  D(19,21,38,42)        146.9906         estimate D2E/DX2                !
 ! D190  D(20,21,38,39)       -146.7225         estimate D2E/DX2                !
 ! D191  D(20,21,38,42)         -3.9454         estimate D2E/DX2                !
 ! D192  D(9,22,23,20)           5.2688         estimate D2E/DX2                !
 ! D193  D(9,22,23,40)         152.4306         estimate D2E/DX2                !
 ! D194  D(24,22,23,20)       -143.0763         estimate D2E/DX2                !
 ! D195  D(24,22,23,40)          4.0855         estimate D2E/DX2                !
 ! D196  D(9,22,24,26)         -10.0948         estimate D2E/DX2                !
 ! D197  D(9,22,24,41)        -152.9203         estimate D2E/DX2                !
 ! D198  D(23,22,24,26)        138.8564         estimate D2E/DX2                !
 ! D199  D(23,22,24,41)         -3.9691         estimate D2E/DX2                !
 ! D200  D(20,23,40,41)        143.686          estimate D2E/DX2                !
 ! D201  D(20,23,40,42)          0.3313         estimate D2E/DX2                !
 ! D202  D(22,23,40,41)         -2.6356         estimate D2E/DX2                !
 ! D203  D(22,23,40,42)       -145.9903         estimate D2E/DX2                !
 ! D204  D(22,24,26,25)          4.3517         estimate D2E/DX2                !
 ! D205  D(22,24,26,44)       -137.8504         estimate D2E/DX2                !
 ! D206  D(41,24,26,25)        142.1728         estimate D2E/DX2                !
 ! D207  D(41,24,26,44)         -0.0294         estimate D2E/DX2                !
 ! D208  D(22,24,41,40)          2.3525         estimate D2E/DX2                !
 ! D209  D(22,24,41,43)        142.2392         estimate D2E/DX2                !
 ! D210  D(26,24,41,40)       -138.6383         estimate D2E/DX2                !
 ! D211  D(26,24,41,43)          1.2484         estimate D2E/DX2                !
 ! D212  D(11,25,26,24)          6.1146         estimate D2E/DX2                !
 ! D213  D(11,25,26,44)        151.3121         estimate D2E/DX2                !
 ! D214  D(28,25,26,24)       -149.3737         estimate D2E/DX2                !
 ! D215  D(28,25,26,44)         -4.1762         estimate D2E/DX2                !
 ! D216  D(11,25,28,27)        -28.9898         estimate D2E/DX2                !
 ! D217  D(11,25,28,45)       -144.6898         estimate D2E/DX2                !
 ! D218  D(11,25,28,75)         92.9883         estimate D2E/DX2                !
 ! D219  D(26,25,28,27)        124.9592         estimate D2E/DX2                !
 ! D220  D(26,25,28,45)          9.2592         estimate D2E/DX2                !
 ! D221  D(26,25,28,75)       -113.0627         estimate D2E/DX2                !
 ! D222  D(24,26,44,45)        142.8726         estimate D2E/DX2                !
 ! D223  D(24,26,44,46)         -1.1218         estimate D2E/DX2                !
 ! D224  D(25,26,44,45)         -3.1864         estimate D2E/DX2                !
 ! D225  D(25,26,44,46)       -147.1808         estimate D2E/DX2                !
 ! D226  D(13,27,28,25)         37.8633         estimate D2E/DX2                !
 ! D227  D(13,27,28,45)        147.2403         estimate D2E/DX2                !
 ! D228  D(13,27,28,75)        -88.9532         estimate D2E/DX2                !
 ! D229  D(30,27,28,25)       -129.2027         estimate D2E/DX2                !
 ! D230  D(30,27,28,45)        -19.8257         estimate D2E/DX2                !
 ! D231  D(30,27,28,75)        103.9808         estimate D2E/DX2                !
 ! D232  D(13,27,30,29)         -4.3248         estimate D2E/DX2                !
 ! D233  D(13,27,30,47)       -176.475          estimate D2E/DX2                !
 ! D234  D(28,27,30,29)        162.3441         estimate D2E/DX2                !
 ! D235  D(28,27,30,47)         -9.8062         estimate D2E/DX2                !
 ! D236  D(25,28,45,44)        -11.499          estimate D2E/DX2                !
 ! D237  D(25,28,45,48)        137.7808         estimate D2E/DX2                !
 ! D238  D(27,28,45,44)       -122.5598         estimate D2E/DX2                !
 ! D239  D(27,28,45,48)         26.72           estimate D2E/DX2                !
 ! D240  D(75,28,45,44)        114.6806         estimate D2E/DX2                !
 ! D241  D(75,28,45,48)        -96.0396         estimate D2E/DX2                !
 ! D242  D(14,29,30,27)          1.4082         estimate D2E/DX2                !
 ! D243  D(14,29,30,47)        173.513          estimate D2E/DX2                !
 ! D244  D(31,29,30,27)       -168.7877         estimate D2E/DX2                !
 ! D245  D(31,29,30,47)          3.3171         estimate D2E/DX2                !
 ! D246  D(14,29,31,34)        -35.3516         estimate D2E/DX2                !
 ! D247  D(14,29,31,49)       -146.2483         estimate D2E/DX2                !
 ! D248  D(14,29,31,71)         89.0229         estimate D2E/DX2                !
 ! D249  D(30,29,31,34)        134.9581         estimate D2E/DX2                !
 ! D250  D(30,29,31,49)         24.0614         estimate D2E/DX2                !
 ! D251  D(30,29,31,71)       -100.6674         estimate D2E/DX2                !
 ! D252  D(27,30,47,48)         32.2887         estimate D2E/DX2                !
 ! D253  D(27,30,47,50)        143.9473         estimate D2E/DX2                !
 ! D254  D(27,30,47,72)        -91.5356         estimate D2E/DX2                !
 ! D255  D(29,30,47,48)       -139.8164         estimate D2E/DX2                !
 ! D256  D(29,30,47,50)        -28.1578         estimate D2E/DX2                !
 ! D257  D(29,30,47,72)         96.3594         estimate D2E/DX2                !
 ! D258  D(29,31,34,32)         28.4898         estimate D2E/DX2                !
 ! D259  D(29,31,34,51)       -121.8725         estimate D2E/DX2                !
 ! D260  D(49,31,34,32)        145.4475         estimate D2E/DX2                !
 ! D261  D(49,31,34,51)         -4.9148         estimate D2E/DX2                !
 ! D262  D(71,31,34,32)        -91.9128         estimate D2E/DX2                !
 ! D263  D(71,31,34,51)        117.7249         estimate D2E/DX2                !
 ! D264  D(29,31,49,50)        -26.8325         estimate D2E/DX2                !
 ! D265  D(29,31,49,54)        122.6459         estimate D2E/DX2                !
 ! D266  D(34,31,49,50)       -143.0019         estimate D2E/DX2                !
 ! D267  D(34,31,49,54)          6.4765         estimate D2E/DX2                !
 ! D268  D(71,31,49,50)         94.1771         estimate D2E/DX2                !
 ! D269  D(71,31,49,54)       -116.3445         estimate D2E/DX2                !
 ! D270  D(16,32,33,18)         -8.0181         estimate D2E/DX2                !
 ! D271  D(16,32,33,36)       -152.0739         estimate D2E/DX2                !
 ! D272  D(34,32,33,18)        139.1918         estimate D2E/DX2                !
 ! D273  D(34,32,33,36)         -4.864          estimate D2E/DX2                !
 ! D274  D(16,32,34,31)          5.5353         estimate D2E/DX2                !
 ! D275  D(16,32,34,51)        153.5316         estimate D2E/DX2                !
 ! D276  D(33,32,34,31)       -137.8775         estimate D2E/DX2                !
 ! D277  D(33,32,34,51)         10.1188         estimate D2E/DX2                !
 ! D278  D(18,33,36,35)         -6.5888         estimate D2E/DX2                !
 ! D279  D(18,33,36,52)       -145.7252         estimate D2E/DX2                !
 ! D280  D(32,33,36,35)        134.6122         estimate D2E/DX2                !
 ! D281  D(32,33,36,52)         -4.5243         estimate D2E/DX2                !
 ! D282  D(31,34,51,52)        145.1584         estimate D2E/DX2                !
 ! D283  D(31,34,51,54)          1.7006         estimate D2E/DX2                !
 ! D284  D(32,34,51,52)         -6.2991         estimate D2E/DX2                !
 ! D285  D(32,34,51,54)       -149.7569         estimate D2E/DX2                !
 ! D286  D(19,35,36,33)         -2.4142         estimate D2E/DX2                !
 ! D287  D(19,35,36,52)        140.2233         estimate D2E/DX2                !
 ! D288  D(37,35,36,33)       -150.2585         estimate D2E/DX2                !
 ! D289  D(37,35,36,52)         -7.621          estimate D2E/DX2                !
 ! D290  D(19,35,37,39)          1.1051         estimate D2E/DX2                !
 ! D291  D(19,35,37,53)       -142.3617         estimate D2E/DX2                !
 ! D292  D(36,35,37,39)        148.7932         estimate D2E/DX2                !
 ! D293  D(36,35,37,53)          5.3265         estimate D2E/DX2                !
 ! D294  D(33,36,52,51)          8.3085         estimate D2E/DX2                !
 ! D295  D(33,36,52,53)        149.7214         estimate D2E/DX2                !
 ! D296  D(35,36,52,51)       -134.4614         estimate D2E/DX2                !
 ! D297  D(35,36,52,53)          6.9515         estimate D2E/DX2                !
 ! D298  D(35,37,39,38)         -1.8505         estimate D2E/DX2                !
 ! D299  D(35,37,39,57)       -141.1047         estimate D2E/DX2                !
 ! D300  D(53,37,39,38)        137.415          estimate D2E/DX2                !
 ! D301  D(53,37,39,57)         -1.8392         estimate D2E/DX2                !
 ! D302  D(35,37,53,52)         -1.1725         estimate D2E/DX2                !
 ! D303  D(35,37,53,55)        139.9027         estimate D2E/DX2                !
 ! D304  D(39,37,53,52)       -144.5506         estimate D2E/DX2                !
 ! D305  D(39,37,53,55)         -3.4755         estimate D2E/DX2                !
 ! D306  D(21,38,39,37)         -0.837          estimate D2E/DX2                !
 ! D307  D(21,38,39,57)        142.6891         estimate D2E/DX2                !
 ! D308  D(42,38,39,37)       -148.6988         estimate D2E/DX2                !
 ! D309  D(42,38,39,57)         -5.1727         estimate D2E/DX2                !
 ! D310  D(21,38,42,40)          0.1848         estimate D2E/DX2                !
 ! D311  D(21,38,42,58)       -142.4301         estimate D2E/DX2                !
 ! D312  D(39,38,42,40)        147.8682         estimate D2E/DX2                !
 ! D313  D(39,38,42,58)          5.2533         estimate D2E/DX2                !
 ! D314  D(37,39,57,58)        146.0232         estimate D2E/DX2                !
 ! D315  D(37,39,57,60)          5.2553         estimate D2E/DX2                !
 ! D316  D(38,39,57,58)          3.188          estimate D2E/DX2                !
 ! D317  D(38,39,57,60)       -137.5799         estimate D2E/DX2                !
 ! D318  D(23,40,41,24)          0.1839         estimate D2E/DX2                !
 ! D319  D(23,40,41,43)       -139.9604         estimate D2E/DX2                !
 ! D320  D(42,40,41,24)        142.2397         estimate D2E/DX2                !
 ! D321  D(42,40,41,43)          2.0954         estimate D2E/DX2                !
 ! D322  D(23,40,42,38)          1.7438         estimate D2E/DX2                !
 ! D323  D(23,40,42,58)        140.6626         estimate D2E/DX2                !
 ! D324  D(41,40,42,38)       -136.4365         estimate D2E/DX2                !
 ! D325  D(41,40,42,58)          2.4823         estimate D2E/DX2                !
 ! D326  D(24,41,43,46)         -1.2733         estimate D2E/DX2                !
 ! D327  D(24,41,43,59)       -139.2342         estimate D2E/DX2                !
 ! D328  D(40,41,43,46)        133.8614         estimate D2E/DX2                !
 ! D329  D(40,41,43,59)         -4.0996         estimate D2E/DX2                !
 ! D330  D(38,42,58,57)         -3.3512         estimate D2E/DX2                !
 ! D331  D(38,42,58,59)        137.9397         estimate D2E/DX2                !
 ! D332  D(40,42,58,57)       -146.2718         estimate D2E/DX2                !
 ! D333  D(40,42,58,59)         -4.9809         estimate D2E/DX2                !
 ! D334  D(41,43,46,44)          0.1274         estimate D2E/DX2                !
 ! D335  D(41,43,46,61)       -141.9684         estimate D2E/DX2                !
 ! D336  D(59,43,46,44)        142.0375         estimate D2E/DX2                !
 ! D337  D(59,43,46,61)         -0.0583         estimate D2E/DX2                !
 ! D338  D(41,43,59,58)          1.5806         estimate D2E/DX2                !
 ! D339  D(41,43,59,65)        142.9944         estimate D2E/DX2                !
 ! D340  D(46,43,59,58)       -140.0116         estimate D2E/DX2                !
 ! D341  D(46,43,59,65)          1.4022         estimate D2E/DX2                !
 ! D342  D(26,44,45,28)          9.5155         estimate D2E/DX2                !
 ! D343  D(26,44,45,48)       -140.6308         estimate D2E/DX2                !
 ! D344  D(46,44,45,28)        152.7285         estimate D2E/DX2                !
 ! D345  D(46,44,45,48)          2.5822         estimate D2E/DX2                !
 ! D346  D(26,44,46,43)          1.0874         estimate D2E/DX2                !
 ! D347  D(26,44,46,61)        139.0001         estimate D2E/DX2                !
 ! D348  D(45,44,46,43)       -137.7049         estimate D2E/DX2                !
 ! D349  D(45,44,46,61)          0.2079         estimate D2E/DX2                !
 ! D350  D(28,45,48,47)         -3.2768         estimate D2E/DX2                !
 ! D351  D(28,45,48,62)       -150.5958         estimate D2E/DX2                !
 ! D352  D(44,45,48,47)        143.4599         estimate D2E/DX2                !
 ! D353  D(44,45,48,62)         -3.8591         estimate D2E/DX2                !
 ! D354  D(43,46,61,62)        141.4365         estimate D2E/DX2                !
 ! D355  D(43,46,61,65)         -1.318          estimate D2E/DX2                !
 ! D356  D(44,46,61,62)         -1.5741         estimate D2E/DX2                !
 ! D357  D(44,46,61,65)       -144.3286         estimate D2E/DX2                !
 ! D358  D(30,47,48,45)        -26.3577         estimate D2E/DX2                !
 ! D359  D(30,47,48,62)        123.4744         estimate D2E/DX2                !
 ! D360  D(50,47,48,45)       -143.7931         estimate D2E/DX2                !
 ! D361  D(50,47,48,62)          6.039          estimate D2E/DX2                !
 ! D362  D(72,47,48,45)         93.2911         estimate D2E/DX2                !
 ! D363  D(72,47,48,62)       -116.8768         estimate D2E/DX2                !
 ! D364  D(30,47,50,49)         26.4235         estimate D2E/DX2                !
 ! D365  D(30,47,50,63)       -123.1808         estimate D2E/DX2                !
 ! D366  D(48,47,50,49)        143.4725         estimate D2E/DX2                !
 ! D367  D(48,47,50,63)         -6.1318         estimate D2E/DX2                !
 ! D368  D(72,47,50,49)        -93.8147         estimate D2E/DX2                !
 ! D369  D(72,47,50,63)        116.581          estimate D2E/DX2                !
 ! D370  D(45,48,62,61)          2.5216         estimate D2E/DX2                !
 ! D371  D(45,48,62,63)        147.0861         estimate D2E/DX2                !
 ! D372  D(47,48,62,61)       -148.4904         estimate D2E/DX2                !
 ! D373  D(47,48,62,63)         -3.9259         estimate D2E/DX2                !
 ! D374  D(31,49,50,47)          1.45           estimate D2E/DX2                !
 ! D375  D(31,49,50,63)        148.5928         estimate D2E/DX2                !
 ! D376  D(54,49,50,47)       -145.4377         estimate D2E/DX2                !
 ! D377  D(54,49,50,63)          1.7051         estimate D2E/DX2                !
 ! D378  D(31,49,54,51)         -5.9225         estimate D2E/DX2                !
 ! D379  D(31,49,54,56)       -150.0669         estimate D2E/DX2                !
 ! D380  D(50,49,54,51)        144.5112         estimate D2E/DX2                !
 ! D381  D(50,49,54,56)          0.3669         estimate D2E/DX2                !
 ! D382  D(47,50,63,62)          4.1691         estimate D2E/DX2                !
 ! D383  D(47,50,63,64)        148.5617         estimate D2E/DX2                !
 ! D384  D(49,50,63,62)       -146.6968         estimate D2E/DX2                !
 ! D385  D(49,50,63,64)         -2.3041         estimate D2E/DX2                !
 ! D386  D(34,51,52,36)         -3.0678         estimate D2E/DX2                !
 ! D387  D(34,51,52,53)       -139.0784         estimate D2E/DX2                !
 ! D388  D(54,51,52,36)        136.1697         estimate D2E/DX2                !
 ! D389  D(54,51,52,53)          0.1591         estimate D2E/DX2                !
 ! D390  D(34,51,54,49)          2.5574         estimate D2E/DX2                !
 ! D391  D(34,51,54,56)        147.7088         estimate D2E/DX2                !
 ! D392  D(52,51,54,49)       -141.4411         estimate D2E/DX2                !
 ! D393  D(52,51,54,56)          3.7102         estimate D2E/DX2                !
 ! D394  D(36,52,53,37)         -3.4994         estimate D2E/DX2                !
 ! D395  D(36,52,53,55)       -144.4925         estimate D2E/DX2                !
 ! D396  D(51,52,53,37)        136.9661         estimate D2E/DX2                !
 ! D397  D(51,52,53,55)         -4.0269         estimate D2E/DX2                !
 ! D398  D(37,53,55,56)       -132.633          estimate D2E/DX2                !
 ! D399  D(37,53,55,60)          5.3179         estimate D2E/DX2                !
 ! D400  D(52,53,55,56)          3.9043         estimate D2E/DX2                !
 ! D401  D(52,53,55,60)        141.8552         estimate D2E/DX2                !
 ! D402  D(49,54,56,55)        136.8099         estimate D2E/DX2                !
 ! D403  D(49,54,56,64)         -1.9041         estimate D2E/DX2                !
 ! D404  D(51,54,56,55)         -3.8229         estimate D2E/DX2                !
 ! D405  D(51,54,56,64)       -142.5369         estimate D2E/DX2                !
 ! D406  D(53,55,56,54)         -0.0095         estimate D2E/DX2                !
 ! D407  D(53,55,56,64)        142.6327         estimate D2E/DX2                !
 ! D408  D(60,55,56,54)       -142.2854         estimate D2E/DX2                !
 ! D409  D(60,55,56,64)          0.3568         estimate D2E/DX2                !
 ! D410  D(53,55,60,57)         -1.8833         estimate D2E/DX2                !
 ! D411  D(53,55,60,66)       -143.6414         estimate D2E/DX2                !
 ! D412  D(56,55,60,57)        139.9481         estimate D2E/DX2                !
 ! D413  D(56,55,60,66)         -1.81           estimate D2E/DX2                !
 ! D414  D(54,56,64,63)          1.3131         estimate D2E/DX2                !
 ! D415  D(54,56,64,66)        144.9557         estimate D2E/DX2                !
 ! D416  D(55,56,64,63)       -142.3946         estimate D2E/DX2                !
 ! D417  D(55,56,64,66)          1.248          estimate D2E/DX2                !
 ! D418  D(39,57,58,42)          0.1066         estimate D2E/DX2                !
 ! D419  D(39,57,58,59)       -140.7988         estimate D2E/DX2                !
[...]
 Alpha virt. eigenvalues --    1.32810   1.33052   1.33419   1.34112   1.34442
 Alpha virt. eigenvalues --    1.34748   1.35115   1.35746   1.35869   1.36152
 Alpha virt. eigenvalues --    1.36446   1.36670   1.37248   1.37712   1.38172
 Alpha virt. eigenvalues --    1.38263   1.38396   1.39070   1.39201   1.39437
 Alpha virt. eigenvalues --    1.39802   1.39897   1.40308   1.40768   1.40854
 Alpha virt. eigenvalues --    1.40972   1.41280   1.41399   1.41783   1.42167
 Alpha virt. eigenvalues --    1.42308   1.42479   1.42585   1.43040   1.43178
 Alpha virt. eigenvalues --    1.43322   1.43656   1.43862   1.44156   1.44483
 Alpha virt. eigenvalues --    1.44547   1.44888   1.45193   1.45413   1.45799
 Alpha virt. eigenvalues --    1.46007   1.46150   1.46451   1.46614   1.46846
 Alpha virt. eigenvalues --    1.46996   1.47168   1.47588   1.47847   1.48120
 Alpha virt. eigenvalues --    1.48264   1.48534   1.48789   1.49334   1.49502
 Alpha virt. eigenvalues --    1.49857   1.50039   1.50238   1.50604   1.50992
 Alpha virt. eigenvalues --    1.51122   1.51358   1.51417   1.51794   1.52287
 Alpha virt. eigenvalues --    1.52417   1.53007   1.53128   1.53714   1.53952
 Alpha virt. eigenvalues --    1.54442   1.54706   1.55087   1.55354   1.55872
 Alpha virt. eigenvalues --    1.56183   1.56581   1.56812   1.57160   1.57547
 Alpha virt. eigenvalues --    1.57874   1.58317   1.58922   1.59164   1.59256
 Alpha virt. eigenvalues --    1.59684   1.59929   1.60168   1.60887   1.61072
 Alpha virt. eigenvalues --    1.61398   1.61819   1.62120   1.62218   1.62525
 Alpha virt. eigenvalues --    1.63452   1.63853   1.64002   1.64469   1.64526
 Alpha virt. eigenvalues --    1.64916   1.65422   1.65973   1.66005   1.66331
 Alpha virt. eigenvalues --    1.66760   1.67116   1.67447   1.67884   1.68111
 Alpha virt. eigenvalues --    1.68669   1.68758   1.69584   1.69951   1.70478
 Alpha virt. eigenvalues --    1.70664   1.71068   1.71087   1.71605   1.71975
 Alpha virt. eigenvalues --    1.72184   1.72794   1.72845   1.73509   1.73645
 Alpha virt. eigenvalues --    1.74294   1.74852   1.75166   1.75232   1.75655
 Alpha virt. eigenvalues --    1.75965   1.76059   1.76394   1.76908   1.77482
 Alpha virt. eigenvalues --    1.77675   1.78088   1.78471   1.78950   1.79068
 Alpha virt. eigenvalues --    1.80036   1.80791   1.80974   1.81373   1.81875
 Alpha virt. eigenvalues --    1.82214   1.83641   1.83983   1.84191   1.85258
 Alpha virt. eigenvalues --    1.85418   1.85595   1.86181   1.86540   1.87023
 Alpha virt. eigenvalues --    1.87360   1.88591   1.88864   1.89180   1.89765
 Alpha virt. eigenvalues --    1.89982   1.90600   1.90976   1.91323   1.91793
 Alpha virt. eigenvalues --    1.92075   1.92708   1.93154   1.93811   1.94249
 Alpha virt. eigenvalues --    1.94588   1.94833   1.95036   1.95722   1.96267
 Alpha virt. eigenvalues --    1.97145   1.97218   1.97641   1.98072   1.98820
 Alpha virt. eigenvalues --    1.99729   2.00030   2.00339   2.00619   2.00895
 Alpha virt. eigenvalues --    2.01229   2.01378   2.01492   2.01972   2.02374
 Alpha virt. eigenvalues --    2.02447   2.02703   2.03715   2.04567   2.04802
 Alpha virt. eigenvalues --    2.05240   2.05542   2.05993   2.06402   2.06743
 Alpha virt. eigenvalues --    2.06928   2.07678   2.07894   2.08184   2.08532
 Alpha virt. eigenvalues --    2.08751   2.09329   2.09473   2.09954   2.10128
 Alpha virt. eigenvalues --    2.10282   2.11277   2.12022   2.12437   2.13036
 Alpha virt. eigenvalues --    2.13489   2.13764   2.14141   2.14731   2.15100
 Alpha virt. eigenvalues --    2.15564   2.16069   2.16387   2.16990   2.17559
 Alpha virt. eigenvalues --    2.18112   2.18692   2.18860   2.19098   2.19544
 Alpha virt. eigenvalues --    2.19886   2.20541   2.20658   2.21020   2.21764
 Alpha virt. eigenvalues --    2.21948   2.22313   2.23020   2.23160   2.23458
 Alpha virt. eigenvalues --    2.24044   2.24373   2.24728   2.24934   2.25128
 Alpha virt. eigenvalues --    2.25660   2.26016   2.26371   2.27340   2.27599
 Alpha virt. eigenvalues --    2.27826   2.28128   2.28831   2.29383   2.30119
 Alpha virt. eigenvalues --    2.30178   2.30487   2.31108   2.31376   2.31636
 Alpha virt. eigenvalues --    2.32202   2.32660   2.32887   2.33021   2.33680
 Alpha virt. eigenvalues --    2.34160   2.34628   2.35136   2.35917   2.36067
 Alpha virt. eigenvalues --    2.36572   2.36852   2.37218   2.37538   2.37998
 Alpha virt. eigenvalues --    2.38467   2.38864   2.39951   2.40001   2.40180
 Alpha virt. eigenvalues --    2.40831   2.40977   2.41027   2.41374   2.41787
 Alpha virt. eigenvalues --    2.42427   2.42654   2.42927   2.43576   2.44126
 Alpha virt. eigenvalues --    2.44358   2.44465   2.45181   2.45316   2.45618
 Alpha virt. eigenvalues --    2.46248   2.46997   2.47561   2.48105   2.48579
 Alpha virt. eigenvalues --    2.49484   2.49738   2.50548   2.51048   2.51346
 Alpha virt. eigenvalues --    2.52105   2.53322   2.53682   2.53982   2.54282
 Alpha virt. eigenvalues --    2.54419   2.54687   2.54967   2.55275   2.55876
 Alpha virt. eigenvalues --    2.56032   2.56659   2.57197   2.58075   2.58391
 Alpha virt. eigenvalues --    2.58619   2.58948   2.59479   2.59942   2.60724
 Alpha virt. eigenvalues --    2.60935   2.62169   2.62500   2.62778   2.63452
 Alpha virt. eigenvalues --    2.63932   2.64140   2.64515   2.65415   2.65896
 Alpha virt. eigenvalues --    2.67182   2.67809   2.68428   2.68946   2.69690
 Alpha virt. eigenvalues --    2.70527   2.71224   2.72516   2.72581   2.73495
 Alpha virt. eigenvalues --    2.74043   2.75702   2.75873   2.76296   2.77291
 Alpha virt. eigenvalues --    2.77799   2.78461   2.79740   2.80151   2.80433
 Alpha virt. eigenvalues --    2.80708   2.81412   2.81829   2.82223   2.82688
 Alpha virt. eigenvalues --    2.83618   2.84144   2.86048   2.86738   2.87107
 Alpha virt. eigenvalues --    2.88034   2.88798   2.91692   2.91821   2.92350
 Alpha virt. eigenvalues --    2.92812   2.93130   2.93799   2.93971   2.94012
 Alpha virt. eigenvalues --    2.94385   2.94951   2.95561   2.95731   2.96255
 Alpha virt. eigenvalues --    2.96778   2.97193   2.97245   2.97462   2.97997
 Alpha virt. eigenvalues --    2.98494   2.99320   2.99435   2.99544   3.00108
 Alpha virt. eigenvalues --    3.00446   3.01123   3.01462   3.02481   3.03062
 Alpha virt. eigenvalues --    3.03224   3.03529   3.03862   3.04381   3.04864
 Alpha virt. eigenvalues --    3.05093   3.05246   3.05535   3.06102   3.06379
 Alpha virt. eigenvalues --    3.06943   3.07065   3.07441   3.07972   3.08542
 Alpha virt. eigenvalues --    3.08857   3.09149   3.09492   3.09894   3.10419
 Alpha virt. eigenvalues --    3.10798   3.11076   3.11541   3.11612   3.11931
 Alpha virt. eigenvalues --    3.12262   3.12558   3.12721   3.13385   3.13858
 Alpha virt. eigenvalues --    3.14075   3.14567   3.14951   3.15107   3.15368
 Alpha virt. eigenvalues --    3.16003   3.16305   3.16637   3.17060   3.17443
 Alpha virt. eigenvalues --    3.17767   3.18103   3.18766   3.19472   3.20272
 Alpha virt. eigenvalues --    3.20336   3.21368   3.22090   3.22252   3.24379
 Alpha virt. eigenvalues --    3.24894   3.24978   3.27794   3.29239   3.30805
 Alpha virt. eigenvalues --    3.32256   3.35733   3.37306   3.38196   3.39701
 Alpha virt. eigenvalues --    3.41800   3.42777   3.43203   3.44544   3.45165
 Alpha virt. eigenvalues --    3.46280   3.47592   3.48332   3.49635   3.50340
 Alpha virt. eigenvalues --    3.51242   3.51391   3.52176   3.52310   3.54613
 Alpha virt. eigenvalues --    3.55659   3.55905   3.57071   3.57289   3.58875
 Alpha virt. eigenvalues --    3.60059   3.61513   3.62227   3.63330   3.63703
 Alpha virt. eigenvalues --    3.65171   3.66503   3.66853   3.67956   3.68884
 Alpha virt. eigenvalues --    3.69090   3.70296   3.70872   3.72430   3.72735
 Alpha virt. eigenvalues --    3.74290   3.74836   3.76425   3.78130   3.78624
 Alpha virt. eigenvalues --    3.79901   3.81794   3.82322   3.83204   3.83413
 Alpha virt. eigenvalues --    3.84630   3.85742   3.86747   3.87312   3.87541
 Alpha virt. eigenvalues --    3.88175   3.88240   3.89055   3.90266   3.90472
 Alpha virt. eigenvalues --    3.90893   3.92089   3.94522   4.01239   4.06867
 Alpha virt. eigenvalues --    4.17634   4.20826   4.21592   4.21957   4.24408
 Alpha virt. eigenvalues --    4.27577   4.31342   4.33528   4.34515   4.35252
 Alpha virt. eigenvalues --    4.36508   4.38554   4.39828   4.40569   4.46633
 Alpha virt. eigenvalues --    4.49028   4.49090   4.50141   4.60004   4.61071
 Alpha virt. eigenvalues --    4.61447   4.62956   4.65116   4.69889   4.74943
 Alpha virt. eigenvalues --    4.77427   4.81311   4.86222   4.87976   4.95741
 Alpha virt. eigenvalues --    4.95906   4.99545   5.01816   5.04314   9.49096
 Alpha virt. eigenvalues --    9.54993   9.57063   9.59106   9.62626   9.65481
 Alpha virt. eigenvalues --    9.67190   9.68308   9.73448   9.75102  23.00055
 Alpha virt. eigenvalues --   23.20253  23.22461  23.23136  23.39774  23.42949
 Alpha virt. eigenvalues --   23.46492  23.51913  23.53249  23.59320  23.62449
 Alpha virt. eigenvalues --   23.64549  23.66500  23.69346  23.70616  23.71215
 Alpha virt. eigenvalues --   23.72620  23.73581  23.73976  23.74968  23.77873
 Alpha virt. eigenvalues --   23.78239  23.79008  23.79710  23.82149  23.82419
 Alpha virt. eigenvalues --   23.83826  23.84452  23.85658  23.87457  23.88517
 Alpha virt. eigenvalues --   23.89192  23.91809  23.92071  23.93257  23.94476
 Alpha virt. eigenvalues --   23.95082  23.95262  23.96113  23.96425  23.97005
 Alpha virt. eigenvalues --   23.98146  23.98211  23.99115  23.99467  24.00286
 Alpha virt. eigenvalues --   24.01313  24.01863  24.03031  24.03161  24.06294
 Alpha virt. eigenvalues --   24.07149  24.07539  24.07807  24.08418  24.08952
 Alpha virt. eigenvalues --   24.09566  24.10152  24.10699  24.11520  24.12651
 Alpha virt. eigenvalues --   24.13452  24.14016  24.15126  24.15586  24.20704
 Alpha virt. eigenvalues --   25.50362  25.53453  25.58623  25.59386  25.64331
 Alpha virt. eigenvalues --   25.65800  25.66412  25.75600  25.76705  25.77978
 Alpha virt. eigenvalues --   25.81018  25.81523  25.86115  25.88320  25.88743
 Alpha virt. eigenvalues --   25.91721  25.94665  25.96297  26.02817  26.09395
 Alpha virt. eigenvalues --   26.11053  26.22463  26.26518  26.30310  26.40361
 Alpha virt. eigenvalues --   26.41179  26.49798  26.56145  26.64360  26.74091
 Alpha virt. eigenvalues --  215.43393 215.50223 215.52573 215.54904 215.59064
 Alpha virt. eigenvalues --  215.62259 215.64310 215.65489 215.71410 215.72955
          Condensed to atoms (all electrons):
 Mulliken charges:
               1
     1  C   -0.265485
     2  C   -0.138610
     3  C   -0.457570
     4  C   -0.270543
     5  C    0.326954
     6  C   -0.432044
     7  C    0.020093
     8  C    0.170944
     9  C    0.089464
    10  C   -0.539795
    11  C    0.189049
    12  C    0.184275
    13  C    0.259102
    14  C    0.265781
    15  C    0.183432
    16  C   -0.688938
    17  C    0.084034
    18  C    0.050567
    19  C    0.090051
    20  C    0.087248
    21  C    0.021621
    22  C   -0.002945
    23  C    0.016985
    24  C   -0.002783
    25  C    0.175512
    26  C    0.038608
    27  C    0.262414
    28  C   -0.664609
    29  C    0.175077
    30  C    0.149041
    31  C   -0.681478
    32  C    0.165442
    33  C    0.023748
    34  C    0.186068
    35  C    0.003115
    36  C   -0.005675
    37  C   -0.001103
    38  C   -0.009038
    39  C   -0.000772
    40  C   -0.008998
    41  C    0.002885
    42  C    0.005143
    43  C    0.003955
    44  C    0.041859
    45  C    0.160498
    46  C    0.000579
    47  C   -0.689969
    48  C    0.183165
    49  C    0.175890
    50  C    0.177732
    51  C    0.042973
    52  C    0.001316
    53  C    0.003082
    54  C    0.031488
    55  C    0.002671
    56  C    0.000643
    57  C    0.002360
    58  C    0.002767
    59  C    0.004552
    60  C    0.005323
    61  C    0.003007
    62  C    0.037898
    63  C    0.036067
    64  C    0.002269
    65  C    0.001403
    66  C    0.001588
    67  Cl   0.074311
    68  Cl   0.107862
    69  Cl   0.081019
    70  Cl   0.068308
    71  Cl   0.051152
    72  Cl   0.048980
    73  Cl   0.078168
    74  Cl   0.050520
    75  Cl   0.056983
    76  Cl   0.093317
 Sum of Mulliken charges =  -0.00000
 Mulliken charges with hydrogens summed into heavy atoms:
               1
     1  C   -0.265485
     2  C   -0.138610
     3  C   -0.457570
     4  C   -0.270543
     5  C    0.326954
     6  C   -0.432044
     7  C    0.020093
     8  C    0.170944
     9  C    0.089464
    10  C   -0.539795
    11  C    0.189049
    12  C    0.184275
    13  C    0.259102
    14  C    0.265781
    15  C    0.183432
    16  C   -0.688938
    17  C    0.084034
    18  C    0.050567
    19  C    0.090051
    20  C    0.087248
    21  C    0.021621
    22  C   -0.002945
    23  C    0.016985
    24  C   -0.002783
    25  C    0.175512
    26  C    0.038608
    27  C    0.262414
    28  C   -0.664609
    29  C    0.175077
    30  C    0.149041
    31  C   -0.681478
    32  C    0.165442
    33  C    0.023748
    34  C    0.186068
    35  C    0.003115
    36  C   -0.005675
    37  C   -0.001103
    38  C   -0.009038
    39  C   -0.000772
    40  C   -0.008998
    41  C    0.002885
    42  C    0.005143
    43  C    0.003955
    44  C    0.041859
    45  C    0.160498
    46  C    0.000579
    47  C   -0.689969
    48  C    0.183165
    49  C    0.175890
    50  C    0.177732
    51  C    0.042973
    52  C    0.001316
    53  C    0.003082
    54  C    0.031488
    55  C    0.002671
    56  C    0.000643
    57  C    0.002360
    58  C    0.002767
    59  C    0.004552
    60  C    0.005323
    61  C    0.003007
    62  C    0.037898
    63  C    0.036067
    64  C    0.002269
    65  C    0.001403
    66  C    0.001588
    67  Cl   0.074311
    68  Cl   0.107862
    69  Cl   0.081019
    70  Cl   0.068308
    71  Cl   0.051152
    72  Cl   0.048980
    73  Cl   0.078168
    74  Cl   0.050520
    75  Cl   0.056983
    76  Cl   0.093317
 Electronic spatial extent (au):  <R**2>=          39559.1586
 Charge=             -0.0000 electrons
 Dipole moment (field-independent basis, Debye):
    X=             -4.8062    Y=             -3.6322    Z=             -1.2363  Tot=              6.1498
 Quadrupole moment (field-independent basis, Debye-Ang):
   XX=           -508.2683   YY=           -513.6610   ZZ=           -501.5356
   XY=              7.8384   XZ=              1.0056   YZ=             -1.9188
 Traceless Quadrupole moment (field-independent basis, Debye-Ang):
   XX=             -0.4467   YY=             -5.8393   ZZ=              6.2860
   XY=              7.8384   XZ=              1.0056   YZ=             -1.9188
 Octapole moment (field-independent basis, Debye-Ang**2):
  XXX=            104.5269  YYY=             62.1691  ZZZ=             -2.7715  XYY=             56.4930
  XXY=             32.1586  XXZ=              5.1245  XZZ=             47.6911  YZZ=              1.2331
  YYZ=             10.5285  XYZ=              7.4902
 Hexadecapole moment (field-independent basis, Debye-Ang**3):
 XXXX=         -24995.0777 YYYY=         -16813.8420 ZZZZ=         -15093.0086 XXXY=            -47.7954
 XXXZ=            -45.3008 YYYX=             16.0000 YYYZ=             44.8585 ZZZX=            -34.1597
 ZZZY=             -8.5560 XXYY=          -7031.9443 XXZZ=          -6658.8565 YYZZ=          -5320.1104
 XXYZ=             -4.1188 YYXZ=             -6.4888 ZZXY=            -16.3639
 N-N= 1.701332894247D+04 E-N=-5.079052651936D+04  KE= 7.096716059943D+03
 No NMR shielding tensors so no spin-rotation constants.
 Leave Link  601 at Thu Jul 14 23:30:59 2022, MaxMem=  1342177280 cpu:              69.7 elap:               1.7
 (Enter /home/mkliu/g16/l9999.exe)
 1\1\GINC-NODE03\FOpt\RB3LYP\6-311G(d,p)\C66Cl10\MKLIU\14-Jul-2022\0\\#
 P opt b3lyp/6-311G(d, p) empiricaldispersion=GD3\\force\\0,1\C,-1.3380
 560614,1.8694322902,-3.9198376711\C,0.1984185311,2.2641966834,-4.11594
 43489\C,0.9350804886,0.8596594142,-4.2557465286\C,-1.5161712032,0.3409
 519294,-4.2879464037\C,-0.1293130837,-0.1795907279,-4.1486575183\C,-2.
 5075797406,-0.2618492776,-3.1694320195\C,-1.7821687605,1.9066334106,-2
 .5053620896\C,-2.5480639496,0.8292164562,-2.155242081\C,-1.3335533372,
 2.8525773262,-1.5412328201\C,0.9073658162,2.9451351067,-2.8059972166\C
 ,0.0306746743,3.2827156241,-1.5992750995\C,1.8062217216,0.7226544799,-
 3.0376594865\C,1.8596520657,1.8748851458,-2.2902003975\C,2.180457146,-
 0.5116781656,-2.4976440803\C,0.1419998519,-1.363280951,-3.6073174226\C
 ,1.5437845447,-1.7507344871,-3.1280133996\C,-2.0320606885,-1.515847877
 5,-2.4375553772\C,-0.8518465722,-2.1138286111,-2.8457523911\C,-2.53154
 68522,-1.7960098692,-1.0998470268\C,-3.036019198,0.6332514556,-0.83393
 0658\C,-3.1276239252,-0.7149769035,-0.2955883571\C,-2.0162281506,2.821
 4542098,-0.3163927871\C,-2.9095919804,1.737318616,0.0203799301\C,-1.39
 24283232,3.2651479825,0.8884578569\C,0.6819697277,3.5263210382,-0.3998
 39475\C,-0.0290199071,3.5472574274,0.8372344201\C,2.4119352903,1.86280
 69269,-1.0013409315\C,2.1279557591,3.0719208358,-0.1189879125\C,2.7957
 135794,-0.5451542457,-1.2385181533\C,2.9395561285,0.6595956171,-0.4942
 800857\C,3.1067513547,-1.9100536481,-0.6066772093\C,1.2502992524,-2.77
 91254497,-2.0743210162\C,-0.1553462765,-3.0425667045,-2.0168759943\C,2
 .0136849819,-2.9119763156,-0.9569635193\C,-1.9613526403,-2.8830928408,
 -0.393027706\C,-0.7412445672,-3.497031005,-0.8463017471\C,-1.948235311
 6,-2.9477395018,1.0512688962\C,-3.1736260373,-0.8388574913,1.107740043
 9\C,-2.5604373729,-1.9561733658,1.7925033845\C,-2.8979954918,1.5802143
 623,1.4480204039\C,-1.9442036417,2.5171937212,2.0004808762\C,-3.038997
 12,0.31207195,1.9828691779\C,-1.1349990232,2.1279568968,3.0590103241\C
 ,0.8237521325,3.0961285982,1.915612034\C,2.058971718,2.6764668074,1.33
 85116489\C,0.2856864092,2.4303814939,3.0184104753\C,3.4752638232,0.619
 73755,0.9407889307\C,2.7105177487,1.5855074521,1.8328615034\C,3.003675
 4064,-1.8634033624,0.9048268531\C,3.1855993531,-0.7123417942,1.6111284
 475\C,1.4403642377,-3.4577697533,0.2356724266\C,0.084256401,-3.7956753
 475,0.2924966186\C,-0.6766950081,-3.4969831274,1.4833478108\C,2.080916
 387,-2.8541237606,1.3787711443\C,-0.0483760495,-2.9817392302,2.6126196
 819\C,1.3684505571,-2.6635741732,2.5641094221\C,-1.9539685714,-1.47750
 55592,3.0185551213\C,-2.2531478001,-0.0703902823,3.1377729897\C,-1.296
 7289546,0.8135822837,3.6488144665\C,-0.7027647026,-1.9631436518,3.4072
 551183\C,0.9928704316,1.3122246313,3.5757242334\C,2.182308996,0.898014
 0905,2.9713527488\C,2.4791011705,-0.5089995893,2.8407372673\C,1.583715
 355,-1.4645944842,3.3243557723\C,0.0194544216,0.316991384,3.9975537601
 \C,0.3091333374,-1.0379229741,3.8775930746\Cl,-2.5197575064,2.96071750
 42,-4.7736355305\Cl,0.3775849797,3.2536947317,-5.5862904591\Cl,1.95486
 98319,0.6564163855,-5.7539078459\Cl,2.5818700797,-2.4911841194,-4.4488
 804358\Cl,4.7794623809,-2.4572887311,-1.1562906034\Cl,5.2838951513,0.9
 884255236,0.9071728035\Cl,-2.0174659593,0.0444066734,-5.998989959\Cl,-
 4.1987590815,-0.5854850358,-3.8093326527\Cl,3.4286582967,4.3656125147,
 -0.2953611273\Cl,1.8229568459,4.4610827713,-3.2521615374\\Version=ES64
 L-G16RevA.03\State=1-A\HF=-7117.7079332\RMSD=2.622e-09\RMSF=1.304e-05\
 Dipole=-1.0660882,-0.6208912,2.0813722\Quadrupole=-6.4377537,4.7973379
 ,1.6404158,-0.7696305,-4.7733989,-0.0522205\PG=C01 [X(C66Cl10)]\\@


 A SLIP OF THE FOOT YOU MAY SOON RECOVER, BUT A SLIP OF THE TONGUE
 YOU MAY NEVER GET OVER. -- BEN FRANKLIN
 Job cpu time:       3 days 17 hours 57 minutes  3.8 seconds.
 Elapsed time:       0 days  1 hours 52 minutes 42.0 seconds.
 File lengths (MBytes):  RWF=   1283 Int=      0 D2E=      0 Chk=    157 Scr=      1
 Normal termination of Gaussian 16 at Thu Jul 14 23:31:01 2022.
