108
 energy: -324.555833746110 gnorm: 0.046323126556 xtb: 6.4.1 (a3dbbd7)
C        -1.34223191165114   -0.00488559138807    3.61082727514849
C        -0.41897500194315   -1.20597461912682    3.44726166794904
C         1.01313784745034   -0.77271804326796    3.52249195906372
C         0.90604730563586    0.72170528480086    3.26292029625295
C        -0.37773215738857    1.14760617807790    3.33362155905803
C         2.52126114428062   -2.80209778728396    0.64461821424151
C         3.14862812109667   -1.41491560864043    0.56232687844721
C         2.84851661098301   -0.70554369612668    1.77345577966190
C         1.88266353554550   -1.39994887218727    2.48045664818231
C         1.48630305004231   -2.56206086849459    1.74356555658568
C         3.20184142186012    1.42191217945955    0.61165351895089
C         2.51651999853966    2.77812716761894    0.65098266813324
C         1.57046518606375    2.59535429927865    1.83303077751219
C         1.91041386496250    1.42532599414763    2.53537153724494
C         2.90314689660749    0.71726307477707    1.78803216077151
C        -0.33978129437779    3.43484148261291    0.60446974578324
C        -1.69531601435491    2.96777772521566    0.59658813189227
C        -1.96889150019438    2.30290012799133    1.80932598959740
C        -0.79579260938816    2.47194697782470    2.76030010410105
C         0.26580338077779    3.03798747691452    1.81751493733406
C        -3.61798785479331    0.75240436738896    0.63078665352533
C        -3.38173157111978   -0.73812115089846    0.57913148129822
C        -2.71366484217752   -1.14903226421188    1.76963087358196
C        -2.38330011140804    0.00816761964894    2.53366890574579
C        -2.73586174162678    1.14383293026849    1.81633339807624
C        -1.73388730463476   -3.01046153722743    0.60554007735058
C        -0.40730929100941   -3.76581129211238    0.63924723295361
C         0.24452262331317   -3.07419973822708    1.82812119609052
C        -0.81007172200872   -2.49653957557545    2.78479985002482
C        -1.94711391943881   -2.31045610721990    1.79541092707131
C        -0.19874661023407   -2.94046758767932   -1.72692257082330
C         0.78585003997860   -2.23131730214781   -2.51842745914676
C         2.00741986391126   -2.27664521502879   -1.82336378387395
C         1.89275271750315   -3.29705993180366   -0.68908363095245
C         0.37841218093592   -3.44061172319758   -0.60083488555301
C         2.81452968300587   -1.16268371956425   -1.82732287952807
C         2.43268885175965    0.00272667510954   -2.56523772600247
C         2.81854373091165    1.16903265350342   -1.79970064206784
C         3.41213381687170    0.73084481516556   -0.58087141746849
C         3.41120129142794   -0.72120015160417   -0.57741209387286
C         1.96365961593550    2.28404356597759   -1.80630376786630
C         0.76715913265099    2.30795122064838   -2.58346735211057
C        -0.21088452382857    2.97506969647682   -1.83781574167271
C         0.40766910393235    3.42907237309468   -0.59282935766122
C         1.73880845137813    3.01877307976743   -0.60533470368359
C        -1.54930689017709    2.57807259266516   -1.82026223188953
C        -2.10270038867388    1.52237531932034   -2.77212147326949
C        -2.95496950086754    0.68149809191512   -1.81434830958731
C        -3.10084141223056    1.34387790709733   -0.64422632127160
C        -2.25900492396687    2.52386474144963   -0.62174111161175
C        -3.19838336141895   -0.78461121075404   -1.97017959531613
C        -1.94710069425934   -1.42936905630652   -2.56414251581621
C        -1.56041139968679   -2.50943882694433   -1.80061350164082
C        -2.31718540479244   -2.54737878751274   -0.57202248585878
C        -3.19103445464096   -1.42646477231645   -0.58102233332007
C        -0.96975716365050   -0.65095806381669   -3.25020811977546
C        -0.98876704301986    0.71234972868177   -3.34594367074644
C         0.42314256342303    1.24723798657824   -3.57924985213473
C         1.26287113112674    0.00485997331589   -3.31223088978225
C         0.41564209013845   -1.11308244456910   -3.25343012053100
C        -2.06180332424957    0.11852821043828    5.00099224629730
F        -1.17362912597326    0.23647676356971    5.98227096807442
F        -2.85677186653557   -0.91422807603515    5.26274894186628
F        -2.87128096833629    1.18096972986881    5.01172510172522
C         2.50347230332879   -4.59441895333723   -1.29423403332383
F         1.85083076501456   -4.89991157574887   -2.43125782685725
F         3.76882156944154   -4.42395839622711   -1.59328954339374
F         2.45205960151180   -5.66285264990476   -0.51884970847494
C         1.70027936578539   -1.03840145467776    4.91477400070085
F         1.03101518377104   -0.48218293769324    5.91403079801860
F         1.81321839243472   -2.34032156374901    5.15748370598456
F         2.93459723405556   -0.52978094487184    4.91252091662513
C         3.62429089567067   -3.73270660206042    1.21792048895517
F         4.10394910306208   -3.20806514143975    2.36959466615196
F         4.65588752996943   -3.81876107658460    0.39582769035358
F         3.18829686415400   -4.93331127891660    1.49376627739742
C         3.53395657481607    3.91167675187979    0.91563506418304
F         4.22678567616578    3.69433709870898    2.03265340968176
F         4.40958696620885    4.01394904709231   -0.08322918600087
F         2.92648472996243    5.08934334244327    1.04220736460671
C        -2.98811358350813    2.20938791224873   -3.84557900802392
F        -4.05338175107547    2.78544427367480   -3.28307719661587
F        -2.31840426227591    3.16573972964009   -4.49074149259002
F        -3.42399507250530    1.34220472866742   -4.75495166255843
C        -1.04799193921560    3.58272271718642    3.82581710113052
F        -1.29703035073687    4.74966279342625    3.22183399363023
F        -2.06854165909879    3.34535954832742    4.63516735427897
F         0.03779952393686    3.74783143150381    4.58149677251409
C        -4.47269391599176   -1.17367539934467   -2.75515228668065
F        -4.63027443821554   -2.50073719949039   -2.75646819685595
F        -4.42297952140492   -0.78085541841187   -4.02535027034006
F        -5.56374705369997   -0.64298836208464   -2.21048823425511
C        -5.09003624000341    1.12124864895083    0.93191623350507
F        -5.49852821626241    0.54109699428710    2.06103243719206
F        -5.91190979476709    0.72694277543119   -0.03589584972014
F        -5.24292590640397    2.43670890752454    1.07760817828266
C         0.65387811550190    1.72393868055613   -5.03466119821690
F         0.29642397209094    0.78896378021065   -5.91552786609147
F        -0.02259786755400    2.82999439431351   -5.32183969474303
F         1.94939867908420    1.98399069673341   -5.23477280727845
C        -0.57432439588653   -5.31003256197941    0.71777923359511
F        -1.49637089356923   -5.71360545416843    1.58037247138245
F        -0.94395041029073   -5.77899923890121   -0.48469274686610
F         0.57971134891076   -5.88278104268451    1.05400819522333
C        -1.14379774984936   -3.53028677796546    3.93068648335486
F        -1.70081104992537   -4.65587179803541    3.51028234880276
F        -0.02489351472381   -3.84407154733535    4.58805834387493
F        -1.98343390863650   -3.00615211372248    4.81772512718028
