108
 energy: -324.508217593056 gnorm: 0.074450075416 xtb: 6.4.1 (a3dbbd7)
C        -1.32716898077454    0.01369067714282    3.57238622226055
C        -0.41336756768812   -1.27464309067059    3.61577840142418
C         0.97709407226605   -0.70994962351267    3.27808755230989
C         0.97375627009726    0.63207440446084    3.18492349718268
C        -0.36598837530789    1.14496774623865    3.24806689809606
C         2.30356156109996   -2.56735851206855    0.61154634564489
C         3.42140368703062   -1.52845148304148    0.65302941184105
C         3.04317335203192   -0.71443080717596    1.86706736238518
C         2.13244522713047   -1.52786662134027    2.76396815700073
C         1.59425565864417   -2.56387967772730    1.78955598286995
C         3.16942048275461    1.40608779350447    0.57792712527073
C         2.30761254819972    2.54847549047437    0.58583254821364
C         1.57464208904479    2.56154991664221    1.79437684088811
C         2.10832067697485    1.52403543056505    2.76702902981958
C         3.24414866049967    0.76783026921246    1.96569077745996
C        -0.36664639187793    3.44478291346974    0.61247835341273
C        -1.74522224927550    3.02842609402732    0.63737147341990
C        -1.98706134177462    2.32548780775176    1.84004204048843
C        -0.73765702528418    2.27022269895851    2.58536519225577
C         0.26709451470641    2.98365746222764    1.80455228958380
C        -3.59918293063434    0.75154662450205    0.63171548563614
C        -3.38940790513187   -0.74710907981233    0.57490456253589
C        -2.75156260026028   -1.12414395674614    1.73593995297211
C        -2.36092392840151    0.00447305746251    2.49249807997231
C        -2.76432627737255    1.15584999788337    1.83596918816150
C        -1.72369376183846   -3.01584774431299    0.53967154539764
C        -0.40139256787482   -3.38898532347976    0.56872546718232
C         0.20958996105111   -2.89105138115818    1.77996695015307
C        -0.74545061280149   -2.27167835495774    2.55105338030836
C        -2.09265418932593   -2.44274583187054    1.89860575923790
C        -0.25575216811562   -3.01251279266953   -1.86381439507794
C         0.72893801122890   -2.28165266674140   -2.56275851063185
C         1.94978413061266   -2.29262886090341   -1.78682847954740
C         1.74291065029197   -2.99504872163468   -0.60594748531760
C         0.38781416194041   -3.67763432352164   -0.66116447952508
C         2.78727804753899   -1.14131594893209   -1.77355354536152
C         2.40039608253332    0.03972769420771   -2.54482390069579
C         2.77092821927959    1.14830480374039   -1.82383568776800
C         3.36470643689550    0.71158365429683   -0.58111014575108
C         3.38754863508230   -0.72001265420868   -0.60860630333860
C         2.07688108888174    2.46031588542354   -1.94035699364058
C         0.70483153335191    2.29288954314375   -2.57510603763453
C        -0.22565617958365    2.96852546952287   -1.81746219892405
C         0.36284039420837    3.41193554466048   -0.58506313014416
C         1.71652453769871    3.01235562571793   -0.58276783722835
C        -1.68879273479290    2.73512819604713   -1.93714029199236
C        -1.97349228452188    1.40445333598548   -2.59644222296736
C        -2.85179660164165    0.69296641887211   -1.81294149653284
C        -3.09935760083728    1.42748502005187   -0.59310224038275
C        -2.33353758567062    2.55600369026327   -0.56554011697428
C        -2.94247013073329   -0.72323457663274   -1.83902549062351
C        -1.94588221643683   -1.42607274298593   -2.60260870820939
C        -1.57407113936624   -2.59609038449049   -1.85366739176343
C        -2.36523417358650   -2.61588439732555   -0.64498034562977
C        -3.18934114887221   -1.44534653584902   -0.64016936332487
C        -0.99215776361339   -0.74290990184142   -3.33143597436591
C        -1.05919020416612    0.75685988241759   -3.57386209418929
C         0.38900248786478    1.16474441441431   -3.34106437590339
C         1.19601680041435    0.02928788109029   -3.31427688751727
C         0.36142408722835   -1.14676995320688   -3.30476534096180
C        -2.02418319450342    0.36464480859126    4.92308953423160
F        -1.17251729573850    0.52058920670312    5.88829824210925
F        -2.95561995863467   -0.54089061755951    5.22740468846990
F        -2.71430244473132    1.52509779224811    4.80133094462484
C        -0.45704627607598   -1.99688231182071    5.00736513329362
F         0.13469406508591   -1.28683524603311    5.92541871933069
F        -1.69267976502538   -2.33176043470547    5.38953976861145
F         0.12230722589151   -3.21718307798235    4.94467687286735
C         0.55276751709181   -5.19109973217525   -0.90190094146128
F         1.24356167254326   -5.42326333833667   -2.01778009966028
F        -0.63131398194443   -5.78666689169881   -1.03003170204806
F         1.19926846464106   -5.76961898487441    0.10490359006099
C         4.82335530583335   -2.24925270834580    0.63029341515539
F         5.03319275009763   -3.05018689477879    1.65312941986750
F         4.90332249482946   -2.99801997776332   -0.48816109021557
F         5.84116253586498   -1.39953586368299    0.57252503922221
C         2.95848232857747   -2.12458200748159    3.96516256923507
F         4.02076253442754   -2.82063753761348    3.57585837669876
F         3.35024994830187   -1.12651648186256    4.74669996908513
F         2.28812721258121   -2.97542788914015    4.71558863313166
C         2.93658276308928    3.46149403543710   -2.73612766767824
F         2.32325600273956    4.63667030569504   -2.85746513909606
F         3.18805207284626    3.00442504067574   -3.96038558367433
F         4.10186291281829    3.66889426219668   -2.12927952715151
C         2.60340096938082    2.29211653598442    4.02849007287083
F         3.41922307197438    3.26648064673228    3.72871434172436
F         1.55370103316603    2.88846026238080    4.65548638010969
F         3.15221024210353    1.46689466431383    4.91131848334306
C         4.68154937893120    1.06525564400370    2.53039870421871
F         5.02399216318940    2.32657365068295    2.54126006867589
F         5.60327704149669    0.48865477949315    1.75264083378179
F         4.81693430592189    0.51407209163342    3.73265817955622
C        -2.38464572743852    3.90502963134872   -2.66640525741776
F        -3.68393133285482    3.65803951823924   -2.81764492242339
F        -1.86353386835448    4.12498683390458   -3.86793416173758
F        -2.25706412576057    5.03404601615417   -1.96925463774439
C        -5.08622548082885    1.06769218118106    0.89362880672732
F        -5.51106343770991    0.48198104894050    2.00912477452015
F        -5.85263374318059    0.63984636533485   -0.10719697688370
F        -5.28040260521796    2.37787461688483    1.02196630992101
C        -1.46726815189179    1.01086939955943   -5.03603209780447
F        -0.66745177914605    0.35212069031577   -5.87497908593267
F        -2.71634725658602    0.59703479322115   -5.24369613502647
F        -1.40118557913598    2.29860651618559   -5.35490658817754
C        -2.99281244335250   -3.44852972335574    2.65272210577077
F        -2.35047322521135   -4.60208408682496    2.82623911021664
F        -4.10313889151543   -3.69933149744169    1.95446881345315
F        -3.37105042286195   -2.98711261020183    3.83603339694797
