108
 energy: -324.581732974311 gnorm: 0.063086429502 xtb: 6.4.1 (a3dbbd7)
C        -1.32827404101597    0.01899280085539    3.60099443697522
C        -0.39464558698150   -1.26362075840093    3.61954980383607
C         0.97908092594112   -0.68954299048404    3.28249170686182
C         0.95748942961063    0.68468647803333    3.23243355555419
C        -0.36722222251583    1.15448345262465    3.28204953089476
C         2.52703475129308   -2.74946192562465    0.62341377609634
C         3.19059280272267   -1.37941152419353    0.55563474679854
C         2.91467499112518   -0.62062823918259    1.75908534084833
C         1.93171301728131   -1.38441475649045    2.51219914890254
C         1.60258333730304   -2.53108316495999    1.81129157473683
C         3.42837094184051    1.56069305268789    0.62677809317012
C         2.33427589963734    2.60966578743551    0.58551276652907
C         1.57563742519909    2.59046522905267    1.78283411190367
C         2.09551324986023    1.53153616669517    2.73709041001823
C         2.99502405563272    0.72964618120793    1.81919644181195
C        -0.39029087919718    3.71013901556863    0.64476124004837
C        -1.75734861589233    3.03969455062600    0.61131377362138
C        -1.96300460290441    2.30682447170213    1.79971371786289
C        -0.71984258681571    2.26396808556747    2.54299768656119
C         0.26446447298400    2.99707756716651    1.81047942092664
C        -3.67582125044601    0.76588309124764    0.65305520930249
C        -3.34770445281633   -0.71634056870386    0.54949186695037
C        -2.71824408589518   -1.10690886435188    1.73376088671790
C        -2.34443854732307    0.01349771059174    2.49229629896771
C        -2.75074620883994    1.16258938164392    1.80435781288653
C        -1.70747023000425   -3.00889208815419    0.55201043219421
C        -0.38838810895194   -3.37283260518118    0.55706671976846
C         0.22778042555836   -2.88066558228487    1.77468941810746
C        -0.72320724748079   -2.26803483950033    2.55699525885960
C        -2.07056431849062   -2.43193092869676    1.90798796166709
C        -0.25976840885179   -3.01593873772522   -1.85785530698719
C         0.71972069193583   -2.29534444546920   -2.57325213279292
C         1.95198639601426   -2.32032315281235   -1.78583556864366
C         1.75677168730137   -3.02172113164994   -0.63473068824991
C         0.39666198228402   -3.70149011905883   -0.66516268621060
C         2.77666318341741   -1.15507125382086   -1.85053958316959
C         2.40904511969991   -0.04348052095935   -2.56473731834569
C         2.78059419344333    1.13825603445444   -1.80063701295259
C         3.39205961606459    0.73300189071094   -0.62556419471782
C         3.38434132395597   -0.69870000810973   -0.60363463902004
C         1.97460381464829    2.29603061230408   -1.84925224193285
C         0.77095427491931    2.27866957842884   -2.57303636840637
C        -0.22174452622265    2.99390865932540   -1.77949146870685
C         0.38351647590210    3.45385211539207   -0.61029840677392
C         1.73384376219508    3.00377986587686   -0.59920467712287
C        -1.55620406567982    2.55458048918449   -1.75274467577763
C        -1.92655938092682    1.35872580953855   -2.48414575900894
C        -2.91275284799051    0.68575337068418   -1.81207664899638
C        -3.42814131693845    1.55262437259492   -0.66713820100281
C        -2.30814337044640    2.58946348056076   -0.56829152380980
C        -3.16877636582614   -0.77205280806478   -1.98183489956248
C        -1.94004927777846   -1.42755118879461   -2.60269435391358
C        -1.56577728332340   -2.56171488745957   -1.84286567656233
C        -2.35993084167879   -2.57652957354376   -0.62859454275426
C        -3.19344188437160   -1.45043504198271   -0.62052869723894
C        -0.96790161275949   -0.73583932173070   -3.29874731606886
C        -0.94567257718999    0.71332013531432   -3.29656591845656
C         0.36760336024020    1.15577243762000   -3.31959562875509
C         1.30489220916601   -0.02032373550211   -3.57507362873661
C         0.37185848825289   -1.19550155897838   -3.32932940219632
C        -2.03659640254020    0.30775366011156    4.94978861742481
F        -1.17538002991537    0.51838224780227    5.92750361975784
F        -2.84722212158880   -0.69767566625161    5.28235479972874
F        -2.78931146144273    1.41154117966121    4.83643637290556
C        -0.28827470827398   -1.99509968711619    4.99007512210793
F         0.17599229943369   -1.22239240564044    5.93885062292273
F        -1.46627737370658   -2.47055283272426    5.39928419077530
F         0.53927571957149   -3.04117899742012    4.85623025737292
C         0.48743624160177   -5.22395206908753   -0.93605320774529
F         1.22130904385716   -5.45870296378199   -2.02440716866591
F        -0.72757220708495   -5.73540606593370   -1.14885567391426
F         1.02920534596448   -5.89566123991378    0.07315483658445
C         3.59172453650224   -3.83338323714089    0.92283714803399
F         4.29965189870669   -3.51592810414050    2.00779757198879
F         4.44205668477772   -3.95425809297016   -0.09676498685756
F         3.04607202087109   -5.02572985903569    1.14078173783304
C         4.85763266992031    2.14995023663418    0.74576405665112
F         5.00593411947908    2.99291010007614    1.75774514994302
F         5.17452575641066    2.80590686933637   -0.37120692972929
F         5.73651010800132    1.16175341107402    0.90594401173700
C         2.81230464537691    2.12045562381441    3.98630914449816
F         3.78476788167668    2.97583542532499    3.68765551441170
F         1.93679323057385    2.76818736245261    4.75586699423790
F         3.34734647028050    1.13646292455533    4.70537964072237
C        -0.54910465454327    5.22722459412702    0.90959996540779
F        -1.23910943365870    5.45191556192270    2.02417893170713
F        -1.19351883147022    5.81794978967408   -0.09509592153005
F         0.63624415929353    5.82205939058832    1.03771661681204
C        -4.63408884629387    2.38324511709243   -1.21689461936545
F        -4.28031864015275    2.97634278784622   -2.37435692116173
F        -5.70543299788788    1.66530934462907   -1.45198653322497
F        -4.98971068215172    3.31496984037106   -0.37834356152886
C        -4.43909170428944   -1.12191559426434   -2.78920943898959
F        -4.52972258942017   -2.44379406483617   -2.95705369700139
F        -4.40428254028544   -0.56363154785871   -3.99875816037287
F        -5.54390628141725   -0.72152297596625   -2.17053145130294
C        -5.12793826304917    0.85862971879467    1.23774834266743
F        -5.18987484597187    0.11899348956485    2.37145418872131
F        -6.01885018549496    0.36990925321045    0.42352758911090
F        -5.42461076173053    2.08794282240958    1.57706645386846
C         1.84552594431120   -0.00333304224457   -5.01649753699020
F         0.85226113254067    0.00217255738965   -5.90700050637113
F         2.59067132626491    1.07889591064963   -5.24173495946095
F         2.60039329090809   -1.07326112403977   -5.26304897958523
C        -2.98519815858188   -3.44043670738361    2.66022735590722
F        -2.35356108391502   -4.60198185557237    2.82374890902083
F        -4.09114836124369   -3.67980155352982    1.95577514840292
F        -3.35210540292265   -2.99585591279687    3.85096997176038
