62
 energy: -137.437227717167 gnorm: 0.274679053074 xtb: 6.4.1 (a3dbbd7)
C        -1.23626340000000    0.00000000000000    3.32997640000000
C        -0.38202640000000   -1.17575640000000    3.32997640000000
C         1.00015810000000   -0.72665740000000    3.32997640000000
C         1.00015810000000    0.72665740000000    3.32997640000000
C        -0.38202640000000    1.17575640000000    3.32997640000000
C         2.34433560000000   -2.60145750000000    0.59464210000000
C         3.19857260000000   -1.42570110000000    0.59464210000000
C         2.96246730000000   -0.69904370000000    1.83090550000000
C         1.96230920000000   -1.42570110000000    2.59495830000000
C         1.58028280000000   -2.60145750000000    1.83090550000000
C         3.19857260000000    1.42570110000000    0.59464210000000
C         2.34433560000000    2.60145750000000    0.59464210000000
C         1.58028280000000    2.60145750000000    1.83090550000000
C         1.96230920000000    1.42570110000000    2.59495830000000
C         2.96246730000000    0.69904370000000    1.83090550000000
C        -0.36750900000000    3.48258920000000    0.59464210000000
C        -1.74969350000000    3.03349030000000    0.59464210000000
C        -1.98579880000000    2.30683290000000    1.83090550000000
C        -0.74953540000000    2.30683290000000    2.59495830000000
C         0.25062270000000    3.03349030000000    1.83090550000000
C        -3.42570570000000    0.72665740000000    0.59464210000000
C        -3.42570570000000   -0.72665740000000    0.59464210000000
C        -2.80757400000000   -1.17575640000000    1.83090550000000
C        -2.42554760000000    0.00000000000000    2.59495830000000
C        -2.80757400000000    1.17575640000000    1.83090550000000
C        -1.74969350000000   -3.03349030000000    0.59464210000000
C        -0.36750900000000   -3.48258920000000    0.59464210000000
C         0.25062270000000   -3.03349030000000    1.83090550000000
C        -0.74953540000000   -2.30683290000000    2.59495830000000
C        -1.98579880000000   -2.30683290000000    1.83090550000000
C        -0.25062270000000   -3.03349030000000   -1.83090550000000
C         0.74953540000000   -2.30683290000000   -2.59495830000000
C         1.98579880000000   -2.30683290000000   -1.83090550000000
C         1.74969350000000   -3.03349030000000   -0.59464210000000
C         0.36750900000000   -3.48258920000000   -0.59464210000000
C         2.80757400000000   -1.17575640000000   -1.83090550000000
C         2.42554760000000    0.00000000000000   -2.59495830000000
C         2.80757400000000    1.17575640000000   -1.83090550000000
C         3.42570570000000    0.72665740000000   -0.59464210000000
C         3.42570570000000   -0.72665740000000   -0.59464210000000
C         1.98579880000000    2.30683290000000   -1.83090550000000
C         0.74953540000000    2.30683290000000   -2.59495830000000
C        -0.25062270000000    3.03349030000000   -1.83090550000000
C         0.36750900000000    3.48258920000000   -0.59464210000000
C         1.74969350000000    3.03349030000000   -0.59464210000000
C        -1.58028280000000    2.60145750000000   -1.83090550000000
C        -1.96230920000000    1.42570110000000   -2.59495830000000
C        -2.96246730000000    0.69904370000000   -1.83090550000000
C        -3.19857260000000    1.42570110000000   -0.59464210000000
C        -2.34433560000000    2.60145750000000   -0.59464210000000
C        -2.96246730000000   -0.69904370000000   -1.83090550000000
C        -1.96230920000000   -1.42570110000000   -2.59495830000000
C        -1.58028280000000   -2.60145750000000   -1.83090550000000
C        -2.34433560000000   -2.60145750000000   -0.59464210000000
C        -3.19857260000000   -1.42570110000000   -0.59464210000000
C        -1.00015810000000   -0.72665740000000   -3.32997640000000
C        -1.00015810000000    0.72665740000000   -3.32997640000000
C         0.38202640000000    1.17575640000000   -3.32997640000000
C         1.23626340000000    0.00000000000000   -3.32997640000000
C         0.38202640000000   -1.17575640000000   -3.32997640000000
Cl       -1.84886636902500    0.00000000000000    5.03315507598844
Cl       -3.67495258473768    0.00000000000000    3.90457167199672
62
 energy: -137.542451836008 gnorm: 0.122737981290 xtb: 6.4.1 (a3dbbd7)
C        -1.24240104480639    0.00000000000000    3.37111282594645
C        -0.36007490841947   -1.18333170593496    3.32705832038510
C         1.00485816622873   -0.72553077060317    3.31763873591756
C         1.00485816622872    0.72553077060318    3.31763873591756
C        -0.36007490841947    1.18333170593496    3.32705832038510
C         2.33799124377687   -2.59338533946206    0.59233399726990
C         3.18991503380223   -1.42132454909709    0.59125822599543
C         2.95664767015521   -0.69675499189853    1.82312686268654
C         1.96288736108020   -1.42461260992005    2.58501400842222
C         1.57992467897251   -2.59362060061227    1.82530078905288
C         3.18991503380223    1.42132454909709    0.59125822599544
C         2.33799124377687    2.59338533946206    0.59233399726990
C         1.57992467897251    2.59362060061227    1.82530078905288
C         1.96288736108020    1.42461260992005    2.58501400842222
C         2.95664767015521    0.69675499189853    1.82312686268654
C        -0.36584132794117    3.46963981054821    0.59390790592022
C        -1.74516989911942    3.02698537978224    0.59246332499408
C        -1.97588619199876    2.29767985940788    1.81572294628795
C        -0.73594266667455    2.29840730474734    2.58890861776091
C         0.25260556810231    3.02626821571400    1.82827150192238
C        -3.41126942558900    0.72537018925249    0.58094647892293
C        -3.41126942558900   -0.72537018925249    0.58094647892293
C        -2.79293970038024   -1.18058451980960    1.79493425034109
C        -2.49931171967173    0.00000000000000    2.62997356872892
C        -2.79293970038024    1.18058451980960    1.79493425034109
C        -1.74516989911942   -3.02698537978224    0.59246332499408
C        -0.36584132794117   -3.46963981054822    0.59390790592022
C         0.25260556810231   -3.02626821571401    1.82827150192238
C        -0.73594266667455   -2.29840730474734    2.58890861776091
C        -1.97588619199876   -2.29767985940788    1.81572294628795
C        -0.25033545530067   -3.02389776483690   -1.82520248525092
C         0.74572068719987   -2.30008762763922   -2.58663184145331
C         1.97892409182132   -2.30007066448554   -1.82504485372383
C         1.74425106729317   -3.02376887223192   -0.59336328269014
C         0.36592350489833   -3.47093294572742   -0.59202063356038
C         2.79827021259608   -1.17199344231817   -1.82600961206282
C         2.41725535698823   -0.00000000000000   -2.58728143004368
C         2.79827021259608    1.17199344231817   -1.82600961206282
C         3.41507426544678    0.72440988110486   -0.59437544815416
C         3.41507426544678   -0.72440988110486   -0.59437544815416
C         1.97892409182132    2.30007066448554   -1.82504485372383
C         0.74572068719987    2.30008762763922   -2.58663184145331
C        -0.25033545530067    3.02389776483690   -1.82520248525093
C         0.36592350489833    3.47093294572742   -0.59202063356038
C         1.74425106729317    3.02376887223192   -0.59336328269014
C        -1.57635897838813    2.59374606184613   -1.82575348620509
C        -1.95684883202888    1.42161395719179   -2.58820666556473
C        -2.95417700997896    0.69688072132477   -1.82910929027928
C        -3.18994690769549    1.42580759940227   -0.60069135989219
C        -2.33889991522232    2.59444379453905   -0.59581485742519
C        -2.95417700997896   -0.69688072132478   -1.82910929027928
C        -1.95684883202888   -1.42161395719179   -2.58820666556473
C        -1.57635897838813   -2.59374606184612   -1.82575348620509
C        -2.33889991522233   -2.59444379453905   -0.59581485742519
C        -3.18994690769549   -1.42580759940227   -0.60069135989219
C        -0.99759007100636   -0.72443135850960   -3.32007714973706
C        -0.99759007100636    0.72443135850960   -3.32007714973706
C         0.37980461719490    1.17201724072843   -3.31976760135711
C         1.23105854032219   -0.00000000000000   -3.31984266155088
C         0.37980461719490   -1.17201724072843   -3.31976760135711
Cl       -1.68045413457786   -0.00000000000000    5.15212740503623
Cl       -3.87299970966738    0.00000000000000    3.82200224282216
62
 energy: -137.576458981286 gnorm: 0.043617596847 xtb: 6.4.1 (a3dbbd7)
C        -1.27414637723972   -0.00000000000000    3.48583541399005
C        -0.35198608370069   -1.17655460889215    3.27630943917541
C         0.99955389489262   -0.72233207591113    3.28463547641114
C         0.99955389489262    0.72233207591113    3.28463547641114
C        -0.35198608370069    1.17655460889215    3.27630943917542
C         2.33425582868046   -2.58481410188842    0.58835310238439
C         3.18373958647011   -1.41690431699403    0.58700956583182
C         2.95332968424072   -0.69458038960840    1.81388437888442
C         1.96258212291508   -1.42355263866472    2.56914612565166
C         1.58132073445202   -2.58760593727182    1.81638084278900
C         3.18373958647011    1.41690431699403    0.58700956583182
C         2.33425582868046    2.58481410188842    0.58835310238440
C         1.58132073445202    2.58760593727183    1.81638084278900
C         1.96258212291508    1.42355263866472    2.56914612565166
C         2.95332968424072    0.69458038960840    1.81388437888442
C        -0.36357879388832    3.45872144467003    0.58717135672355
C        -1.73831164720321    3.01608092119206    0.58368467306571
C        -1.96896433056853    2.28650401873031    1.79694778943851
C        -0.72585624687822    2.28701636357513    2.56229015327020
C         0.25503605023178    3.01848337518191    1.81618850405472
C        -3.38334440768819    0.72248002717084    0.57561925722050
C        -3.38334440768819   -0.72248002717084    0.57561925722050
C        -2.77020038922426   -1.17521994483528    1.77939673424796
C        -2.56848728203151    0.00000000000000    2.70868552127258
C        -2.77020038922426    1.17521994483528    1.77939673424796
C        -1.73831164720321   -3.01608092119206    0.58368467306571
C        -0.36357879388832   -3.45872144467003    0.58717135672355
C         0.25503605023178   -3.01848337518191    1.81618850405472
C        -0.72585624687822   -2.28701636357513    2.56229015327020
C        -1.96896433056853   -2.28650401873031    1.79694778943851
C        -0.24793676542531   -3.01268447050827   -1.82187068121116
C         0.74449870293082   -2.29176133651926   -2.57837044086246
C         1.97345802776237   -2.29183336601806   -1.81881096916995
C         1.74033185649274   -3.01274577115627   -0.59297252098812
C         0.36629260074620   -3.45827039219572   -0.59293627384506
C         2.79031999098116   -1.16755409927720   -1.82042025864116
C         2.41065589493977   -0.00000000000000   -2.57854811788601
C         2.79031999098116    1.16755409927720   -1.82042025864116
C         3.40608023074213    0.72181174459293   -0.59438643556107
C         3.40608023074213   -0.72181174459293   -0.59438643556107
C         1.97345802776237    2.29183336601806   -1.81881096916995
C         0.74449870293082    2.29176133651926   -2.57837044086246
C        -0.24793676542531    3.01268447050827   -1.82187068121116
C         0.36629260074620    3.45827039219572   -0.59293627384506
C         1.74033185649274    3.01274577115627   -0.59297252098812
C        -1.57025861466449    2.58486647214491   -1.82508298826632
C        -1.94861568752142    1.41672055278266   -2.58551457185822
C        -2.94334388260927    0.69456516497240   -1.83139771302447
C        -3.17494829599387    1.42290005528202   -0.60660205389020
C        -2.33192109735878    2.58685354076197   -0.60246283465570
C        -2.94334388260927   -0.69456516497240   -1.83139771302447
C        -1.94861568752142   -1.41672055278266   -2.58551457185822
C        -1.57025861466449   -2.58486647214491   -1.82508298826632
C        -2.33192109735877   -2.58685354076197   -0.60246283465570
C        -3.17494829599387   -1.42290005528202   -0.60660205389020
C        -0.99112263977485   -0.72174247633662   -3.31254867878700
C        -0.99112263977485    0.72174247633662   -3.31254867878700
C         0.38086040569533    1.16751731311927   -3.30979413281341
C         1.22878276088559   -0.00000000000000   -3.30911248405398
C         0.38086040569533   -1.16751731311927   -3.30979413281341
Cl       -1.64941079569998   -0.00000000000000    5.29288265522551
Cl       -3.99375482408509    0.00000000000000    3.85029006828764
62
 energy: -137.581171108245 gnorm: 0.026537068310 xtb: 6.4.1 (a3dbbd7)
C        -1.29556505078277   -0.00000000000000    3.55334285735166
C        -0.36394388264091   -1.17020727606822    3.28038124370295
C         0.98658097709642   -0.72012613404569    3.27170751339061
C         0.98658097709642    0.72012613404569    3.27170751339061
C        -0.36394388264091    1.17020727606822    3.28038124370295
C         2.33657108288075   -2.58133067615256    0.58209418087662
C         3.18526077301849   -1.41482125500104    0.58021896733060
C         2.95269511074121   -0.69350915229759    1.80570199934177
C         1.95668359973598   -1.41767942235753    2.55811481196506
C         1.58152010710941   -2.57922204291619    1.80743298819166
C         3.18526077301849    1.41482125500104    0.58021896733060
C         2.33657108288075    2.58133067615256    0.58209418087662
C         1.58152010710942    2.57922204291619    1.80743298819165
C         1.95668359973599    1.41767942235753    2.55811481196506
C         2.95269511074122    0.69350915229759    1.80570199934177
C        -0.36040517530407    3.44513251310777    0.58261220985525
C        -1.73117455530971    2.99917157508997    0.58135564252447
C        -1.97051923591557    2.27734169568429    1.79886378315965
C        -0.72743285401571    2.27793679089602    2.56511832370498
C         0.25407044742352    3.00042981493668    1.80864794707518
C        -3.36736280132096    0.72029707965090    0.58132219818382
C        -3.36736280132096   -0.72029707965090    0.58132219818382
C        -2.77242930613562   -1.16942079472644    1.79411374482745
C        -2.60534997582701   -0.00000000000000    2.75308765193426
C        -2.77242930613562    1.16942079472644    1.79411374482745
C        -1.73117455530971   -2.99917157508997    0.58135564252447
C        -0.36040517530407   -3.44513251310777    0.58261220985525
C         0.25407044742352   -3.00042981493668    1.80864794707518
C        -0.72743285401571   -2.27793679089602    2.56511832370498
C        -1.97051923591557   -2.27734169568429    1.79886378315965
C        -0.24408816445359   -3.00781897106626   -1.82577178098646
C         0.74695566236153   -2.28807016198948   -2.58097252808262
C         1.97442675054646   -2.28808854639319   -1.82220010566417
C         1.74214103771070   -3.00785315658065   -0.59805569134038
C         0.36875965377289   -3.44992547750870   -0.59678421809235
C         2.79141383696861   -1.16568049347480   -1.82486820055516
C         2.41178467924242    0.00000000000000   -2.58213942391357
C         2.79141383696861    1.16568049347480   -1.82486820055516
C         3.40760992541316    0.72083907059911   -0.60086353937029
C         3.40760992541315   -0.72083907059911   -0.60086353937029
C         1.97442675054646    2.28808854639319   -1.82220010566417
C         0.74695566236153    2.28807016198948   -2.58097252808262
C        -0.24408816445359    3.00781897106627   -1.82577178098647
C         0.36875965377289    3.44992547750870   -0.59678421809235
C         1.74214103771070    3.00785315658065   -0.59805569134038
C        -1.56548948640333    2.58148068310600   -1.82986485089438
C        -1.94330819736249    1.41490490819524   -2.58979045394706
C        -2.93517028234173    0.69349814973301   -1.83370171379784
C        -3.16259282754064    1.41727869649323   -0.60605153323113
C        -2.32370492357468    2.57891169604567   -0.60637097537030
C        -2.93517028234172   -0.69349814973301   -1.83370171379784
C        -1.94330819736249   -1.41490490819524   -2.58979045394706
C        -1.56548948640333   -2.58148068310600   -1.82986485089437
C        -2.32370492357469   -2.57891169604567   -0.60637097537030
C        -3.16259282754064   -1.41727869649323   -0.60605153323113
C        -0.98635510609965   -0.72084830292189   -3.31683234649582
C        -0.98635510609965    0.72084830292189   -3.31683234649582
C         0.38400607051557    1.16569833717630   -3.31294466900374
C         1.23107842404139    0.00000000000000   -3.31195824965988
C         0.38400607051557   -1.16569833717630   -3.31294466900374
Cl       -1.64308073526129   -0.00000000000000    5.35742794115845
Cl       -4.05212276892757    0.00000000000000    3.86274007651749
62
 energy: -137.582110841488 gnorm: 0.014443675753 xtb: 6.4.1 (a3dbbd7)
C        -1.30048268824191    0.00000000000000    3.58072560686544
C        -0.37130626236000   -1.16699858421973    3.28784021906252
C         0.98145643073581   -0.71934936437801    3.26819562368318
C         0.98145643073581    0.71934936437801    3.26819562368318
C        -0.37130626236000    1.16699858421973    3.28784021906253
C         2.33811364431541   -2.58093666570247    0.57937573484238
C         3.18689977615939   -1.41490882632750    0.57769006738003
C         2.95178721024954   -0.69317093988010    1.80236976354851
C         1.95368630210107   -1.41454067221734    2.55413877831684
C         1.58122555864310   -2.57605746561681    1.80395282864380
C         3.18689977615939    1.41490882632750    0.57769006738003
C         2.33811364431541    2.58093666570247    0.57937573484238
C         1.58122555864311    2.57605746561681    1.80395282864380
C         1.95368630210107    1.41454067221734    2.55413877831684
C         2.95178721024954    0.69317093988010    1.80236976354851
C        -0.35938880691655    3.43739977606038    0.58127958729296
C        -1.72913399668488    2.99207126799481    0.58096360236695
C        -1.97212241949224    2.27470908142211    1.80112144083036
C        -0.72904415750506    2.27493460658458    2.56863456068899
C         0.25357679635573    2.99233377085808    1.80635212635794
C        -3.36232373447770    0.71945866656621    0.58441935607227
C        -3.36232373447770   -0.71945866656621    0.58441935607227
C        -2.77619197669839   -1.16701066336617    1.80405377456008
C        -2.61970354639786    0.00000000000000    2.76615279964473
C        -2.77619197669839    1.16701066336617    1.80405377456007
C        -1.72913399668488   -2.99207126799480    0.58096360236695
C        -0.35938880691655   -3.43739977606038    0.58127958729296
C         0.25357679635573   -2.99233377085808    1.80635212635794
C        -0.72904415750506   -2.27493460658458    2.56863456068898
C        -1.97212241949224   -2.27470908142211    1.80112144083036
C        -0.24235434361988   -3.00666282814338   -1.82786965025262
C         0.74854768487505   -2.28766709126291   -2.58341376102204
C         1.97589280210323   -2.28767066796440   -1.82481694822918
C         1.74325098227679   -3.00671534396787   -0.60066404527826
C         0.36976154144260   -3.44696201748233   -0.59837743885308
C         2.79331812459810   -1.16551119452085   -1.82741574387049
C         2.41311575158910    0.00000000000000   -2.58431153917826
C         2.79331812459810    1.16551119452085   -1.82741574387049
C         3.40984536276672    0.72086932726151   -0.60358944252129
C         3.40984536276672   -0.72086932726151   -0.60358944252128
C         1.97589280210323    2.28767066796440   -1.82481694822918
C         0.74854768487505    2.28766709126291   -2.58341376102205
C        -0.24235434361989    3.00666282814338   -1.82786965025262
C         0.36976154144260    3.44696201748233   -0.59837743885308
C         1.74325098227679    3.00671534396787   -0.60066404527826
C        -1.56384473087789    2.58098208423949   -1.83218643967887
C        -1.94193398304339    1.41492017667455   -2.59198564947999
C        -2.93194671248270    0.69315191557578   -1.83373180976059
C        -3.15806831135370    1.41433425851849   -0.60478416303261
C        -2.32063692441025    2.57602210491414   -0.60743427460144
C        -2.93194671248270   -0.69315191557578   -1.83373180976058
C        -1.94193398304338   -1.41492017667455   -2.59198564947998
C        -1.56384473087789   -2.58098208423949   -1.83218643967887
C        -2.32063692441025   -2.57602210491414   -0.60743427460144
C        -3.15806831135370   -1.41433425851850   -0.60478416303261
C        -0.98507260467813   -0.72087355751598   -3.31973306381508
C        -0.98507260467813    0.72087355751598   -3.31973306381507
C         0.38528548949320    1.16550667526766   -3.31567512692611
C         1.23231846398662    0.00000000000000   -3.31410342310654
C         0.38528548949320   -1.16550667526766   -3.31567512692611
Cl       -1.63209142380045   -0.00000000000000    5.37604035606691
Cl       -4.07553299392819    0.00000000000001    3.85580313504253
62
 energy: -137.582422411612 gnorm: 0.004352035350 xtb: 6.4.1 (a3dbbd7)
C        -1.29829920591686   -0.00000000000000    3.58926099290653
C        -0.37411858470351   -1.16549977929123    3.29088383348369
C         0.98066686970217   -0.71925610541679    3.26752830272542
C         0.98066686970217    0.71925610541679    3.26752830272542
C        -0.37411858470351    1.16549977929123    3.29088383348369
C         2.33875436633626   -2.58150306374677    0.57904546777064
C         3.18756259764202   -1.41545162509426    0.57759967769744
C         2.95145317785196   -0.69317079338008    1.80199702423082
C         1.95303873464478   -1.41351455977647    2.55358051557189
C         1.58112505106808   -2.57585519554328    1.80349743021925
C         3.18756259764202    1.41545162509427    0.57759967769744
C         2.33875436633626    2.58150306374677    0.57904546777065
C         1.58112505106808    2.57585519554328    1.80349743021925
C         1.95303873464478    1.41351455977647    2.55358051557189
C         2.95145317785195    0.69317079338008    1.80199702423082
C        -0.35940929505544    3.43494049520642    0.58159304422648
C        -1.72924261296783    2.99070569631247    0.58114294646394
C        -1.97235784071045    2.27428034325321    1.80158946638018
C        -0.72948759375407    2.27407423501943    2.56983789323296
C         0.25355961701641    2.99024553675176    1.80634571800980
C        -3.36145545327161    0.71929413348386    0.58470186537645
C        -3.36145545327161   -0.71929413348386    0.58470186537645
C        -2.77702322731404   -1.16605499999896    1.80715643800772
C        -2.62508126644186   -0.00000000000000    2.76588415371223
C        -2.77702322731404    1.16605499999896    1.80715643800772
C        -1.72924261296783   -2.99070569631247    0.58114294646394
C        -0.35940929505544   -3.43494049520642    0.58159304422648
C         0.25355961701641   -2.99024553675175    1.80634571800980
C        -0.72948759375407   -2.27407423501943    2.56983789323296
C        -1.97235784071045   -2.27428034325322    1.80158946638018
C        -0.24216882704360   -3.00689472604639   -1.82801194840213
C         0.74883039594871   -2.28814001622902   -2.58399777692003
C         1.97631395945660   -2.28813248325266   -1.82542473888209
C         1.74335581427093   -3.00691542230811   -0.60097531686088
C         0.36979268496513   -3.44703807903305   -0.59832485584164
C         2.79384906148161   -1.16571381355726   -1.82769694934895
C         2.41330581621018   -0.00000000000000   -2.58452498520318
C         2.79384906148160    1.16571381355727   -1.82769694934895
C         3.41064622094668    0.72105619957352   -0.60376633985705
C         3.41064622094668   -0.72105619957351   -0.60376633985705
C         1.97631395945660    2.28813248325266   -1.82542473888209
C         0.74883039594871    2.28814001622903   -2.58399777692004
C        -0.24216882704360    3.00689472604639   -1.82801194840213
C         0.36979268496513    3.44703807903306   -0.59832485584164
C         1.74335581427093    3.00691542230811   -0.60097531686088
C        -1.56388532919149    2.58147373320578   -1.83268671548302
C        -1.94222575989107    1.41541344374012   -2.59238798008393
C        -2.93167831916535    0.69316336348170   -1.83339282455006
C        -3.15756037325638    1.41353208491718   -0.60438127167373
C        -2.32032080460177    2.57600730881269   -0.60743642748321
C        -2.93167831916535   -0.69316336348170   -1.83339282455006
C        -1.94222575989107   -1.41541344374012   -2.59238798008393
C        -1.56388532919149   -2.58147373320577   -1.83268671548302
C        -2.32032080460177   -2.57600730881270   -0.60743642748321
C        -3.15756037325638   -1.41353208491718   -0.60438127167372
C        -0.98536945877982   -0.72105352936604   -3.32032534163262
C        -0.98536945877982    0.72105352936604   -3.32032534163262
C         0.38518911304963    1.16570402103833   -3.31618017888254
C         1.23231926386396   -0.00000000000000   -3.31435867559459
C         0.38518911304963   -1.16570402103833   -3.31618017888254
Cl       -1.61661888581612   -0.00000000000000    5.37645259493138
Cl       -4.08511304501106    0.00000000000001    3.84199075224319
62
 energy: -137.582484599528 gnorm: 0.002373590981 xtb: 6.4.1 (a3dbbd7)
C        -1.29553768780661   -0.00000000000000    3.58760335042580
C        -0.37387818758836   -1.16543798433969    3.29035143738637
C         0.98157014324260   -0.71943393000326    3.26807731149255
C         0.98157014324260    0.71943393000326    3.26807731149255
C        -0.37387818758836    1.16543798433969    3.29035143738637
C         2.33863904417621   -2.58187850427200    0.57965530355080
C         3.18741393305337   -1.41567193063783    0.57825265513687
C         2.95151412538391   -0.69327961136256    1.80279143618722
C         1.95347745398310   -1.41381467534810    2.55445043502352
C         1.58109287734436   -2.57666108632051    1.80422683112332
C         3.18741393305337    1.41567193063783    0.57825265513687
C         2.33863904417621    2.58187850427200    0.57965530355080
C         1.58109287734436    2.57666108632052    1.80422683112332
C         1.95347745398310    1.41381467534810    2.55445043502352
C         2.95151412538391    0.69327961136256    1.80279143618722
C        -0.35974431848286    3.43588399101003    0.58217020651710
C        -1.72989125871833    2.99185779924695    0.58143154282214
C        -1.97210561701139    2.27466609845444    1.80136833596645
C        -0.72940861986789    2.27430944229788    2.56961111906214
C         0.25359138704748    2.99130709959635    1.80703925896711
C        -3.36232882361388    0.71943032301147    0.58391579128893
C        -3.36232882361388   -0.71943032301148    0.58391579128893
C        -2.77616889923654   -1.16599686144380    1.80611277245838
C        -2.62593949003680   -0.00000000000000    2.76241976434666
C        -2.77616889923654    1.16599686144380    1.80611277245838
C        -1.72989125871833   -2.99185779924695    0.58143154282214
C        -0.35974431848286   -3.43588399101004    0.58217020651710
C         0.25359138704748   -2.99130709959635    1.80703925896711
C        -0.72940861986789   -2.27430944229788    2.56961111906215
C        -1.97210561701139   -2.27466609845444    1.80136833596645
C        -0.24256311272109   -3.00731413495701   -1.82751443106857
C         0.74854771777011   -2.28844616128665   -2.58362028860288
C         1.97613081324554   -2.28843898335180   -1.82500038553652
C         1.74310247548760   -3.00730655629342   -0.60038953524436
C         0.36951841612400   -3.44789443108205   -0.59784441723316
C         2.79358982847042   -1.16584368684429   -1.82712272391475
C         2.41308427264554   -0.00000000000000   -2.58407463381950
C         2.79358982847043    1.16584368684429   -1.82712272391475
C         3.41039977227017    0.72112845564836   -0.60309253034644
C         3.41039977227017   -0.72112845564837   -0.60309253034644
C         1.97613081324554    2.28843898335180   -1.82500038553652
C         0.74854771777011    2.28844616128665   -2.58362028860288
C        -0.24256311272109    3.00731413495701   -1.82751443106857
C         0.36951841612400    3.44789443108205   -0.59784441723316
C         1.74310247548760    3.00730655629343   -0.60038953524436
C        -1.56436048641124    2.58182926946951   -1.83230714649958
C        -1.94269555584663    1.41562220201491   -2.59202066082580
C        -2.93247084277816    0.69327824534305   -1.83328032302577
C        -3.15858237297786    1.41390403012115   -0.60455636336927
C        -2.32097327271050    2.57679836902311   -0.60714383989089
C        -2.93247084277816   -0.69327824534305   -1.83328032302577
C        -1.94269555584663   -1.41562220201491   -2.59202066082580
C        -1.56436048641124   -2.58182926946951   -1.83230714649957
C        -2.32097327271050   -2.57679836902311   -0.60714383989089
C        -3.15858237297786   -1.41390403012116   -0.60455636336927
C        -0.98581129083222   -0.72112329268811   -3.31983539930084
C        -0.98581129083222    0.72112329268811   -3.31983539930084
C         0.38483421933438    1.16583505348854   -3.31568167340179
C         1.23205394779254    0.00000000000000   -3.31393522457092
C         0.38483421933438   -1.16583505348854   -3.31568167340179
Cl       -1.60560957085245   -0.00000000000001    5.37191933047476
Cl       -4.08674952177750    0.00000000000002    3.83370472368383
62
 energy: -137.582495392890 gnorm: 0.002056889809 xtb: 6.4.1 (a3dbbd7)
C        -1.29477378730192   -0.00000000000000    3.58527098594299
C        -0.37332717234195   -1.16575709140757    3.28966044379226
C         0.98208110886953   -0.71953609019167    3.26858266555158
C         0.98208110886953    0.71953609019167    3.26858266555158
C        -0.37332717234195    1.16575709140756    3.28966044379227