63
 energy: -142.058989343349 gnorm: 0.135590326835 xtb: 6.4.1 (a3dbbd7)
C        -1.29750015586385   -0.00332986390914    3.53259128384291
C        -0.36662330751186   -1.17665276848352    3.30664507069186
C         0.98616964776834   -0.71907897730420    3.28345800331063
C         0.97960460534774    0.72298388992876    3.28116382332211
C        -0.37123063139343    1.17283027203526    3.30703999424566
C         2.33902808225222   -2.57287964708243    0.59282134541102
C         3.18775381441874   -1.40592934941989    0.58930269986468
C         2.95375934983025   -0.68600072575484    1.81413225258493
C         1.96120405920183   -1.41040140165925    2.57054878390017
C         1.59036597905156   -2.57351223230031    1.81677968982536
C         3.18509045263714    1.42556506459426    0.58677401618036
C         2.33644918538866    2.58955715701350    0.58712295456856
C         1.57732702745437    2.58269052266160    1.81121996042124
C         1.95121649520604    1.42062240906665    2.56339217358200
C         2.94734969899541    0.70178584035143    1.81241871801286
C        -0.36230865601760    3.44984460076387    0.58649915495812
C        -1.73568065385573    3.00856312776383    0.58620129080773
C        -1.97466648707238    2.29051782036392    1.80819368403138
C        -0.73502216685138    2.27460254582232    2.56651749222581
C         0.25013328780141    2.99673212004624    1.80718987334861
C        -3.40556373000186    0.73624756401696    0.57396823263447
C        -3.39656113686751   -0.70087893853968    0.57336766874418
C        -2.76869398640548   -1.13743152688347    1.81131829425690
C        -2.41606481668825   -0.00935770106357    2.54947016075177
C        -2.77763293498784    1.16181023849822    1.80199827311876
C        -1.73897950039868   -3.00369688886198    0.61027095302842
C        -0.34675175341818   -3.43911314840585    0.58927014667112
C         0.26540959524459   -2.99405405130769    1.81086784239501
C        -0.72448106648574   -2.27696612285733    2.56655534431523
C        -1.96661719091772   -2.30337153119419    1.80189055009829
C        -0.25303910441721   -3.21697439825626   -1.93515078628168
C         0.75308145440921   -2.28653916290657   -2.57867440920420
C         1.95238411039292   -2.27005430543362   -1.81108187299871
C         1.72490810125568   -2.99201887192918   -0.58363119559495
C         0.37557574680441   -3.46024706207600   -0.57873868952343
C         2.78760429110383   -1.15277384641970   -1.81491371839878
C         2.41431409213368    0.00739165047242   -2.57035366353322
C         2.79604684339575    1.17540453813949   -1.81886357647572
C         3.41064679229982    0.73155426330899   -0.59398339018568
C         3.40671134080570   -0.71156461677298   -0.59219407131255
C         1.97416914155198    2.29602882113511   -1.81673739726529
C         0.74456425139311    2.29447798281708   -2.57376768155679
C        -0.24519477981105    3.02272291127020   -1.82308616330370
C         0.36643514376396    3.45792956944505   -0.59428177351760
C         1.74064009670815    3.01454722219930   -0.59425933402647
C        -1.56829205833959    2.59366542792251   -1.82366590722493
C        -1.95096538781572    1.43092752853070   -2.58180486333857
C        -2.95240685827341    0.71446038976117   -1.82971357566041
C        -3.18630415806833    1.43422379644892   -0.60509868332397
C        -2.32927637798178    2.59497169040384   -0.60132137479790
C        -2.94754506526652   -0.67313005777755   -1.82391405444887
C        -1.94410239546657   -1.40286442546858   -2.56150397187270
C        -1.58527622402766   -2.56555974461748   -1.79963026731950
C        -2.30667368088430   -2.55904727586024   -0.60742050910323
C        -3.17269142016400   -1.38977890440225   -0.59872192408106
C        -0.99841208662573   -0.71329160109820   -3.30239014224414
C        -0.99320180548013    0.72405697444618   -3.30061797729521
C         0.37942274041569    1.16763777902732   -3.29646704633613
C         1.22337490988637    0.00222195938508   -3.28765862798480
C         0.38284144139822   -1.16484842740713   -3.28531009498081
Cl       -1.93980801969369   -0.00660548094091    5.24287063977443
Cl       -0.38906216058057   -4.77802061432624   -2.87495725020283
Cl       -2.38521823650256    3.91310710279509   -2.75522657945271
63
 energy: -142.083175306553 gnorm: 0.058060663096 xtb: 6.4.1 (a3dbbd7)
C        -1.29751745769050   -0.00541310721459    3.53427528305485
C        -0.36649176697403   -1.17813006241142    3.30778418225712
C         0.98639992138354   -0.71971366334503    3.28396780652801
C         0.97996091915505    0.72180163335493    3.28254367245695
C        -0.37136857745207    1.17081664559101    3.30798014489685
C         2.33918736871295   -2.57346010837203    0.59319728651191
C         3.18838872266763   -1.40686459032407    0.58980728798990
C         2.95435672515210   -0.68680138740739    1.81488730357502
C         1.96137684209973   -1.41099987640454    2.57093655056186
C         1.59090821097237   -2.57387043755086    1.81708803207893
C         3.19011959664892    1.42367691113510    0.58897975953720
C         2.34408338140284    2.58868269638048    0.59017277676927
C         1.58046796419554    2.58113289805773    1.81287783928261
C         1.95241989319599    1.41986260542972    2.56431532730924
C         2.94920125269035    0.70048005997195    1.81405536411290
C        -0.35865491859957    3.44587686433157    0.58847000502358
C        -1.73274855950448    2.99520265002014    0.58996664871639
C        -1.97654799647536    2.28637156146013    1.81370413770959
C        -0.73537455463206    2.27192908963275    2.56748177079780
C         0.25063478123301    2.99432927734295    1.80670664233997
C        -3.40710738595613    0.73194569151869    0.58104478884381
C        -3.39607325513589   -0.70497774510386    0.57647366663121
C        -2.76931244720752   -1.14153394807834    1.81435533866522
C        -2.41651196566614   -0.01391029325510    2.55211690988267
C        -2.78133591205575    1.15782175780919    1.80667022229396
C        -1.73864610060582   -3.00758747204958    0.61305112722699
C        -0.34626076322611   -3.44088301816321    0.59062286464914
C         0.26587500872839   -2.99526059582073    1.81166039569938
C        -0.72391513539976   -2.27891697528144    2.56757502643724
C        -1.96615875801278   -2.30760289660656    1.80404159275053
C        -0.25291379805457   -3.21946417592839   -1.93414354115819
C         0.75288929378371   -2.28839075876191   -2.57745689340280
C         1.95289104150599   -2.27174433587548   -1.81059134944829
C         1.72514847481932   -2.99272178369266   -0.58325684851992
C         0.37577832011037   -3.46198284690636   -0.57796507076669
C         2.78885953746390   -1.15372879768131   -1.81433507889815
C         2.41749191745460    0.00571491034941   -2.56889412815912
C         2.80397913073706    1.17362094124141   -1.81737156713923
C         3.41571082250774    0.72955747483206   -0.59197079092787
C         3.40869448249131   -0.71329683191662   -0.59130080794374
C         1.98712312966334    2.29538335437917   -1.81318542721729
C         0.75184031754688    2.29036354683368   -2.56247144844722
C        -0.22332948548042    3.03512305172705   -1.82620586789554
C         0.37578395503581    3.44744593947024   -0.59383095122534
C         1.75379094616463    3.01331110566929   -0.59171475180764
C        -1.61900839013410    2.67365132202307   -1.88036498712607
C        -1.95117252841453    1.41559104930590   -2.58012580186024
C        -2.94398677393700    0.70783610640508   -1.82515436621891
C        -3.17816447530560    1.42840783082639   -0.59917670783626
C        -2.33150129367964    2.58583592630286   -0.58909208048977
C        -2.94773280329573   -0.68154918135426   -1.82384351228888
C        -1.94696711326373   -1.40944660891438   -2.56123537997084
C        -1.58571183414351   -2.57017425433698   -1.79706748521097
C        -2.30708141522134   -2.56379964396527   -0.60546345909240
C        -3.17202683117499   -1.39438720095376   -0.59647621142749
C        -0.99935007615243   -0.72035309672664   -3.30185679889836
C        -0.99155828057106    0.71464733303963   -3.29012607233139
C         0.38278222113537    1.16455834852383   -3.29294965028419
C         1.22332048757548    0.00150702674474   -3.28524721685347
C         0.38232610025027   -1.16706885316264   -3.28357216196944
Cl       -1.93937469012417   -0.00726718316648    5.24466527041106
Cl       -0.38826356378921   -4.77974765372837   -2.87503719466321
Cl       -2.45788807496774    4.02227288446513   -2.83327161744414
63
 energy: -142.089199714273 gnorm: 0.013084091884 xtb: 6.4.1 (a3dbbd7)
C        -1.29661169764121   -0.00871954401970    3.53643418102639
C        -0.36539424053333   -1.18118412684173    3.30986269051786
C         0.98778612899231   -0.72220088192247    3.28528082395859
C         0.98132948983441    0.71871418786928    3.28421383671990
C        -0.37042745895596    1.16762323314352    3.30810428047859
C         2.34066014633652   -2.57585876257127    0.59508655056677
C         3.19027546022386   -1.40940406815532    0.59153696885150
C         2.95621590982209   -0.68923394987181    1.81681339885570
C         1.96291224763364   -1.41357592997765    2.57255745599823
C         1.59260857822488   -2.57608824888317    1.81871353774810
C         3.19448031384680    1.42126347847265    0.59145750040856
C         2.34643892042626    2.58500285347027    0.59166480691050
C         1.58268239926849    2.57797676041964    1.81446362210299
C         1.95379749552559    1.41741142295582    2.56530538303612
C         2.95196372471774    0.69773061195566    1.81628956171006
C        -0.35796511611443    3.44619251097755    0.58876241518903
C        -1.73282332576797    2.98950365435959    0.58419951297102
C        -1.97232157832961    2.27937912221688    1.80865731597336
C        -0.73394219556888    2.26753812329991    2.56588475973351
C         0.25094749620500    2.99075745991761    1.80336219473989
C        -3.40364777224902    0.73005980305232    0.58270950179269
C        -3.39316111023225   -0.70736594927036    0.57836428854341
C        -2.76810512375916   -1.14551204199449    1.81654113288144
C        -2.41600866402443   -0.01854980782173    2.55461924064086
C        -2.77959515699869    1.15278979011134    1.80601199419291
C        -1.73752240385997   -3.01234257558231    0.61652536662269
C        -0.34484961202056   -3.44419417499122    0.59304371961155
C         0.26747729917647   -2.99818868503719    1.81367981082281
C        -0.72243550993618   -2.28240853070453    2.56968862946010
C        -1.96490046141859   -2.31273686088949    1.80683368249639
C        -0.25199259447480   -3.22285117862058   -1.93207260101663
C         0.75329571317197   -2.28995789983662   -2.57455247547791
C         1.95413017106855   -2.27447381134760   -1.80832643667052
C         1.72640775349494   -2.99484571470172   -0.58134324530506
C         0.37689655180786   -3.46512707699861   -0.57600656946247
C         2.79002635699255   -1.15556335488116   -1.81229730581664
C         2.41951134087026    0.00314708690873   -2.56629727914131
C         2.80602495996094    1.17090013762383   -1.81425506793874
C         3.42013140558932    0.72695717896112   -0.58981638340554
C         3.41146980242530   -0.71611316522833   -0.58918860224523
C         1.98773911154202    2.29125518976468   -1.80930913024590
C         0.74694673437333    2.28860501580270   -2.55424862798704
C        -0.21886896807031    3.03275203514903   -1.82396567697247
C         0.37313739405226    3.43877698189444   -0.59737057086638
C         1.75477737685333    3.00805320139556   -0.58976371040328
C        -1.66606689908809    2.74267093734100   -1.92991754791672
C        -1.95516894209242    1.41672428636622   -2.58348423898657
C        -2.93257911440136    0.70898894998007   -1.82362714606941
C        -3.16676114844974    1.42954400747029   -0.59768819155055
C        -2.33603430905377    2.58860978354960   -0.58966310176354
C        -2.94429055954252   -0.68334532326066   -1.82202783296146
C        -1.94631684636991   -1.41112925064231   -2.55618675666980
C        -1.58530185104236   -2.57455361372080   -1.79410604714922
C        -2.30597209115064   -2.56746194336123   -0.60273027340567
C        -3.16912485373053   -1.39671475857469   -0.59447867051808
C        -0.99788246089151   -0.71886730814871   -3.29249153702465
C        -0.99415183465452    0.71668858726343   -3.28271778598935
C         0.38356866480326    1.16456888523303   -3.29314776708861
C         1.22210667612998    0.00260942123303   -3.28061604513319
C         0.38251476903725   -1.16767871239323   -3.27872430419728
Cl       -1.93716400154362   -0.00815221816432    5.24744349046622
Cl       -0.38556779714693   -4.78215905374725   -2.87489662681927
Cl       -2.50357090911343    4.10747293371850   -2.89207430075118
63
 energy: -142.089504080507 gnorm: 0.007915487888 xtb: 6.4.1 (a3dbbd7)
C        -1.29586534949258   -0.01047483478140    3.53717574190064
C        -0.36466065330132   -1.18312534262916    3.31105702531671
C         0.98861235356558   -0.72383727020911    3.28627982218370
C         0.98189708630609    0.71696825474254    3.28491376266064
C        -0.37002546333102    1.16583063426825    3.30715244292886
C         2.34168777642262   -2.57744706381936    0.59623244961027
C         3.19126467968480   -1.41077889487512    0.59241848422029
C         2.95717393168444   -0.69050828136473    1.81786789777812
C         1.96394644925736   -1.41517919155675    2.57368577394541
C         1.59366721572829   -2.57768943940887    1.81985764523868
C         3.19506604019424    1.42020595089789    0.59225481603433
C         2.34563037337582    2.58300326910638    0.59170486570094
C         1.58271247816299    2.57637102730387    1.81496008389703
C         1.95396324146381    1.41603818039407    2.56577549782691
C         2.95287820578980    0.69649849844371    1.81726419255058
C        -0.35860598517338    3.44807050428164    0.58917082063483
C        -1.73459623954901    2.99173134214569    0.58044912386622
C        -1.97007710834385    2.27664615614486    1.80389204411353
C        -0.73319666710704    2.26495514086449    2.56347317660841
C         0.25094847301674    2.98955861632937    1.80197373407528
C        -3.40076254660669    0.72998383360669    0.58117690904201
C        -3.39055266240823   -0.70754682977305    0.57859455969937
C        -2.76684704532233   -1.14676490742177    1.81716343505470
C        -2.41526087355842   -0.02013406749595    2.55537598520250
C        -2.77770459400619    1.15108688086522    1.80432424725599
C        -1.73698876015093   -3.01464132702035    0.61809371936762
C        -0.34406108625249   -3.44632030024042    0.59446092709132
C         0.26847425519107   -3.00018443620251    1.81504134151427
C        -0.72164043482649   -2.28454858505207    2.57107722979576
C        -1.96433367623912   -2.31513156933317    1.80823101544505
C        -0.25136630276569   -3.22425895593694   -1.93071649621606
C         0.75312240811799   -2.28998409466908   -2.57249506638473
C         1.95457237459624   -2.27584757979851   -1.80699521998955
C         1.72719623891121   -2.99637684947028   -0.58016812585354
C         0.37760582762993   -3.46700172271633   -0.57468800599116
C         2.79008606113967   -1.15662118927864   -1.81128876819462
C         2.41941450261613    0.00192729047935   -2.56514113608014
C         2.80494542581420    1.16973692620047   -1.81279374802377
C         3.42073466428734    0.72584698762016   -0.58910945775058
C         3.41240205913588   -0.71740746852748   -0.58831995893313
C         1.98476634385831    2.28892938669140   -1.80791534680464
C         0.74266272373431    2.28940949580114   -2.55386120811106
C        -0.22284100689800    3.03017013788661   -1.82320702674430
C         0.36931698345704    3.43815428622036   -0.59941198158474
C         1.75196852590600    3.00522333736803   -0.58922822912975
C        -1.67872346334851    2.75884343064145   -1.94183987860787
C        -1.95983563013822    1.42389676050883   -2.58913489602084
C        -2.93004043656024    0.71176291274942   -1.82479940866860
C        -3.16423062368368    1.43234092188199   -0.59882361875725
C        -2.34085187336783    2.59624403151262   -0.59452844488881
C        -2.94199103608379   -0.68161192821522   -1.82048182364428
C        -1.94526806028708   -1.41024039732770   -2.55346274341886
C        -1.58464168591960   -2.57586854293303   -1.79289064805807
C        -2.30480913570061   -2.56841461520215   -0.60159795797348
C        -3.16661698907750   -1.39657832951033   -0.59370816395203
C        -0.99751775312135   -0.71581712513088   -3.28741827255329
C        -0.99650561099416    0.72070342173676   -3.28342676392184
C         0.38338080022612    1.16505454625935   -3.29510281694479
C         1.22152785502136    0.00318917085706   -3.27897184063971
C         0.38213341435722   -1.16680047263117   -3.27524279472081
Cl       -1.93392600214357   -0.00896741341912    5.24916952971754
Cl       -0.38217798352250   -4.78349471855478   -2.87407550777560
Cl       -2.50550224519074    4.12493152041079   -2.90270314586159
63
 energy: -142.089597911883 gnorm: 0.004650691203 xtb: 6.4.1 (a3dbbd7)
C        -1.29569049311472   -0.01101360575885    3.53760401993773
C        -0.36452200813992   -1.18377651235567    3.31143084169308
C         0.98879453462669   -0.72430353103166    3.28672201050208
C         0.98202047760638    0.71644724618700    3.28536406279037
C        -0.37005755436517    1.16528690871813    3.30681984358514
C         2.34194300331305   -2.57785151823845    0.59647423393024
C         3.19145933353993   -1.41104965493319    0.59250920001905
C         2.95733964837839   -0.69068834399143    1.81811438520740
C         1.96419021339150   -1.41554627562712    2.57399494608821
C         1.59392648191876   -2.57803318833612    1.82010988882683
C         3.19490695707763    1.42001451648422    0.59241126448054
C         2.34497301498191    2.58228959184379    0.59165923400089
C         1.58253802795229    2.57590781042935    1.81541973747369
C         1.95383065179201    1.41572125940693    2.56609456413972
C         2.95308406054859    0.69632107497862    1.81759959555026
C        -0.35894411645833    3.44943531452896    0.59019988312180
C        -1.73544258180420    2.99298118267236    0.57879313044102
C        -1.96918175374200    2.27523570419812    1.80130925545327
C        -0.73295383673816    2.26369810897795    2.56213098570974
C         0.25090221360692    2.98941555046176    1.80182801456535
C        -3.39888277970212    0.72975032566468    0.58025811076174
C        -3.38906322091238   -0.70758408486457    0.57870445451603
C        -2.76636962466251   -1.14712618169308    1.81764669938800
C        -2.41520656346965   -0.02090223426572    2.55614704770111
C        -2.77698062080371    1.15044155881409    1.80371204559866
C        -1.73704695385890   -3.01576775678003    0.61881687242296
C        -0.34386551193074   -3.44710821494139    0.59493036003912
C         0.26876640092967   -3.00084379198695    1.81548390589838
C        -0.72145325814225   -2.28530964394239    2.57158977408592
C        -1.96437090520523   -2.31631752170814    1.80884722943184
C        -0.25116997971268   -3.22488136107534   -1.93041120739580
C         0.75291292647216   -2.28998080154422   -2.57189510234655
C         1.95472712202606   -2.27647004750808   -1.80671837612661
C         1.72741356997983   -2.99695554713617   -0.57991814024833
C         0.37773523982318   -3.46762643499826   -0.57426292519136
C         2.78999548012143   -1.15707151549571   -1.81119608878383
C         2.41930024364143    0.00127704433593   -2.56499874035151
C         2.80419442258010    1.16931330203344   -1.81234688747525
C         3.42059610920790    0.72559374637427   -0.58905899413450
C         3.41265959942885   -0.71774649689442   -0.58826023618573
C         1.98275115586653    2.28752511039826   -1.80710718752858
C         0.73996728368892    2.28955558262187   -2.55398332992806
C        -0.22584245730516    3.02684447173414   -1.82182566826558
C         0.36675376840605    3.43789362324836   -0.60022639898150
C         1.75005474764184    3.00350724180477   -0.58895125260005
C        -1.68405182054783    2.76513771328866   -1.94655686172929
C        -1.96211603223995    1.42801507200291   -2.59217069634191
C        -2.92843713605943    0.71290600143186   -1.82522872432407
C        -3.16264483186794    1.43353817405081   -0.59916125891343
C        -2.34318185579394    2.60051480234107   -0.59730495192935
C        -2.94050119748131   -0.68064205513704   -1.81935254702397
C        -1.94485495736879   -1.40992539784765   -2.55243968048781
C        -1.58450140078879   -2.57689913155194   -1.79256658844060
C        -2.30427979066812   -2.56892792036481   -0.60137522206774
C        -3.16518043084110   -1.39644854500991   -0.59331411826059
C        -0.99761266050891   -0.71418129801628   -3.28481869974936
C        -0.99756182362936    0.72259871869018   -3.28398475344722
C         0.38356730916530    1.16480604299589   -3.29681717136456
C         1.22142009399891    0.00323325991066   -3.27879633132850
C         0.38178843195082   -1.16624940583410   -3.27350635532671
Cl       -1.93156040877976   -0.00924667178930    5.25039275414496
Cl       -0.37965781979958   -4.78427997166621   -2.87372812946716
Cl       -2.49959235303994    4.12925771141025   -2.90411592768163
63
 energy: -142.089638070483 gnorm: 0.002518021643 xtb: 6.4.1 (a3dbbd7)
C        -1.29582189697282   -0.01095094217799    3.53775441600090
C        -0.36461752026834   -1.18371676238338    3.31133162669991
C         0.98868556472433   -0.72411676491887    3.28671688843966
C         0.98191739172518    0.71660368346207    3.28550645320458
C        -0.37030031956447    1.16542894501094    3.30686394207369
C         2.34182366664874   -2.57758120212518    0.59627596804338
C         3.19128301025521   -1.41074673568926    0.59225224672116
C         2.95715081139282   -0.69034625010404    1.81792337446041
C         1.96406516813882   -1.41526156094387    2.57382138621282
C         1.59383926283417   -2.57771970393507    1.81990938200301
C         3.19454178103931    1.42025962746718    0.59224686360940
C         2.34467810292424    2.58241204255018    0.59160095087682
C         1.58233866025366    2.57611477943342    1.81569537578819
C         1.95360277422293    1.41597350834573    2.56615909945891
C         2.95293664072085    0.69662277800596    1.81751456494577
C        -0.35908835397895    3.45001086373746    0.59105809828488
C        -1.73561364674600    2.99302249416762    0.57850540556753
C        -1.96920365530699    2.27477191520655    1.80053485619388
C        -0.73308362018650    2.26347199991039    2.56179622464110
C         0.25074244464914    2.98978925992033    1.80218012041388
C        -3.39826149574446    0.72950634345825    0.58000257183041
C        -3.38862384531201   -0.70759647787873    0.57875844063812
C        -2.76638175582788   -1.14703770955804    1.81791838759385
C        -2.41550626746516   -0.02115409965955    2.55668717048313
C        -2.77711448230316    1.15039056903695    1.80379533303149
C        -1.73725039805784   -3.01599726818433    0.61898326136848
C        -0.34391041227521   -3.44706927168859    0.59488565187953
C         0.26875421577295   -3.00070130870606    1.81539595554059
C        -0.72150336189122   -2.28525834981124    2.57155811010663
C        -1.96455925857676   -2.31661643778325    1.80891027760559
C        -0.25124245089412   -3.22499415347034   -1.93056614724531
C         0.75272263225741   -2.28998457207897   -2.57210306836516
C         1.95469514151517   -2.27652861695250   -1.80694325399354
C         1.72733974627153   -2.99687479909428   -0.58010427355108
C         0.37763080829647   -3.46752628682549   -0.57429431908830
C         2.78984047683549   -1.15703681237166   -1.81150202452161
C         2.41922275309801    0.00111414821003   -2.56535262982970
C         2.80391977688148    1.16937700164981   -1.81250589797927
C         3.42024432335510    0.72579763981952   -0.58929394554332
C         3.41254480961913   -0.71754663428819   -0.58851931463775
C         1.98199073494385    2.28707667924319   -1.80680196427612
C         0.73879699088944    2.28918673995437   -2.55386729238503
C        -0.22720963441329    3.02390680458107   -1.82036139797741
C         0.36561642919364    3.43742008487304   -0.60028917211120
C         1.74934483072373    3.00289894108507   -0.58891628054704
C        -1.68560534662876    2.76706090847285   -1.94798646078092
C        -1.96253427250154    1.42906034645079   -2.59277983571002
C        -2.92762653179195    0.71289656477535   -1.82513006491427
C        -3.16184862973780    1.43357774129084   -0.59897985714658
C        -2.34357840330310    2.60148539860971   -0.59804273789302
C        -2.94002289602843   -0.68044812730112   -1.81886684560316
C        -1.94496847482021   -1.41004541753412   -2.55247855640071
C        -1.58467200690964   -2.57751867716337   -1.79267061918327
C        -2.30420756674514   -2.56912408884342   -0.60158243911485
C        -3.16474928120202   -1.39643356453567   -0.59321359128887
C        -0.99791850349300   -0.71376017944800   -3.28407942001805
C        -0.99779386343144    0.72283498610786   -3.28393981522847
C         0.38376279966273    1.16433851785133   -3.29772792259785
C         1.22142871324157    0.00309334085419   -3.27931425558287
C         0.38154030408306   -1.16610055752982   -3.27320192756352
Cl       -1.93037552265806   -0.00924822125129    5.25100302448227
Cl       -0.37841342305879   -4.78456743586603   -2.87365430028418
Cl       -2.49165988389465    4.12781344627473   -2.90175599875941
63
 energy: -142.089650661769 gnorm: 0.001407352964 xtb: 6.4.1 (a3dbbd7)
C        -1.29596485108534   -0.01076084145318    3.53769417329825
C        -0.36468437974754   -1.18347107941846    3.31114663231884
C         0.98858159487623   -0.72381080312539    3.28654575827267
C         0.98180876537581    0.71690425833870    3.28543007761450
C        -0.37047179936103    1.16570400485108    3.30697993264380
C         2.34169392352141   -2.57723915719679    0.59605936708868
C         3.19111912132778   -1.41041841432177    0.59203979077740
C         2.95699000821217   -0.69002783503225    1.81769619806110
C         1.96394039420807   -1.41492874308332    2.57359660950936
C         1.59375222943266   -2.57739145613958    1.81970161101089
C         3.19435761100095    1.42053367739116    0.59206253298879
C         2.34468349451674    2.58279437931910    0.59157843308057
C         1.58222802487595    2.57646875382868    1.81571409251824
C         1.95347009765475    1.41629382462902    2.56604521374012
C         2.95275786941447    0.69691279226673    1.81730609057101
C        -0.35916336737896    3.44996172236703    0.59127678108818
C        -1.73555848497925    2.99260375483188    0.57885883263781
C        -1.96956289813846    2.27491070170823    1.80089440627380
C        -0.73331335629792    2.26380280178736    2.56209959555381
C         0.25056087676233    2.99015447652405    1.80246458163210
C        -3.39861676532639    0.72941837117004    0.58018142374716
C        -3.38887467043514   -0.70762999279193    0.57878203363241
C        -2.76654822178970   -1.14689161600323    1.81795186480874
C        -2.41572653530280   -0.02110121094596    2.55677209830486
C        -2.77751852115646    1.15055702610664    1.80406729538469
C        -1.73732188619397   -3.01578659552808    0.61889512567754
C        -0.34395676650341   -3.44679726535562    0.59472350859796
C         0.26870603848082   -3.00039718730542    1.81520986121024
C        -0.72154677724794   -2.28499339218039    2.57139179543165
C        -1.96461356817668   -2.31644100815681    1.80875083898675
C        -0.25136572404331   -3.22489475353873   -1.93075421688066
C         0.75263166348427   -2.28997584416764   -2.57243718450831
C         1.95461660491483   -2.27633062160363   -1.80719537830756
C         1.72724108144020   -2.99659071445131   -0.58031672070484
C         0.37755326178332   -3.46725593127198   -0.57444104816091
C         2.78973293488528   -1.15680120530384   -1.81175905024799
C         2.41917913946160    0.00125671266441   -2.56569198069381
C         2.80397951000569    1.16958788447729   -1.81281825499978
C         3.42006352335496    0.72606190789896   -0.58949470708050
C         3.41236472781103   -0.71725283323648   -0.58872110774184
C         1.98220129938623    2.28733114011667   -1.80690892410041
C         0.73889052358946    2.28878957038103   -2.55364331790743
C        -0.22711469312822    3.02267315490952   -1.81961547312418
C         0.36570095103145    3.43704874242960   -0.60002266792802
C         1.74955545164574    3.00315380554478   -0.58902468298960
C        -1.68531346745124    2.76702376371875   -1.94790414553776
C        -1.96216989292606    1.42827039984533   -2.59217092994811
C        -2.92773721556423    0.71249951580703   -1.82494896063222
C        -3.16197004708607    1.43321248014613   -0.59874786698810
C        -2.34319921588424    2.60064167767920   -0.59753741486441
C        -2.94032614171517   -0.68070133646352   -1.81896449484702
C        -1.94525349154629   -1.41026291190406   -2.55285396590988
C        -1.58485543979727   -2.57761594644625   -1.79282277362496
C        -2.30432995059307   -2.56910439113975   -0.60176429371324
C        -3.16498899406533   -1.39651019931981   -0.59326069829329
C        -0.99814925653497   -0.71405835389188   -3.28447516340464
C        -0.99770469916307    0.72233103248654   -3.28370724138389
C         0.38374749630282    1.16411668557625   -3.29780136151755
C         1.22139294489499    0.00300348075584   -3.27980249517973
C         0.38145252399227   -1.16623060653494   -3.27368419020444
Cl       -1.93041814247616   -0.00917920855392    5.25096552783281
Cl       -0.37842206396574   -4.78453300522926   -2.87371818866516