62
 energy: -137.503079274329 gnorm: 0.126776782974 xtb: 6.4.1 (a3dbbd7)
C        -1.29770965891222    0.00000000000000    3.53163224767276
C        -0.37107604425475   -1.17478800586359    3.31058196643012
C         0.97979757550459   -0.72157705231961    3.28110534952822
C         0.97979757550459    0.72157705231961    3.28110534952822
C        -0.37107604425475    1.17478800586360    3.31058196643013
C         2.33544184946295   -2.58264348698296    0.58346340581249
C         3.18207169571150   -1.41543014636129    0.58234433372313
C         2.94373959867916   -0.69404060100004    1.80708186552027
C         1.95046398470883   -1.41556779135961    2.56176558167067
C         1.57767488865866   -2.57871801508103    1.80912454278211
C         3.18207169571150    1.41543014636129    0.58234433372313
C         2.33544184946295    2.58264348698296    0.58346340581249
C         1.57767488865866    2.57871801508103    1.80912454278211
C         1.95046398470883    1.41556779135961    2.56176558167066
C         2.94373959867916    0.69404060100004    1.80708186552027
C        -0.36119281684147    3.44519252612879    0.58582996047390
C        -1.73469290191499    3.00153459982720    0.58916793337350
C        -1.97220713510261    2.29308475607878    1.81059639720294
C        -0.73400332666893    2.27691900303500    2.56853480078419
C         0.25309257506893    2.99789064535074    1.80898867763471
C        -3.39649784746455    0.71758744312072    0.57410478167568
C        -3.39649784746455   -0.71758744312072    0.57410478167568
C        -2.77168037603652   -1.14964415915414    1.80664876434809
C        -2.42168465399864    0.00000000000000    2.56054627302143
C        -2.77168037603652    1.14964415915414    1.80664876434809
C        -1.73469290191499   -3.00153459982719    0.58916793337351
C        -0.36119281684148   -3.44519252612879    0.58582996047390
C         0.25309257506893   -2.99789064535073    1.80898867763471
C        -0.73400332666892   -2.27691900303499    2.56853480078419
C        -1.97220713510261   -2.29308475607878    1.81059639720295
C        -0.24585893810850   -3.00970705822685   -1.82232538763502
C         0.74439012833927   -2.28841876480361   -2.57822875384061
C         1.97268106729833   -2.28861170675520   -1.82114897801170
C         1.74031203428013   -3.00832022201671   -0.59623578829480
C         0.36724813466371   -3.45114129717027   -0.59443426078026
C         2.79027372790168   -1.16551010025889   -1.82330670861298
C         2.41077011246349    0.00000000000000   -2.58030971859023
C         2.79027372790168    1.16551010025889   -1.82330670861298
C         3.40598095600767    0.72109250237888   -0.59875668403540
C         3.40598095600767   -0.72109250237888   -0.59875668403540
C         1.97268106729833    2.28861170675520   -1.82114897801170
C         0.74439012833927    2.28841876480360   -2.57822875384062
C        -0.24585893810850    3.00970705822685   -1.82232538763502
C         0.36724813466371    3.45114129717027   -0.59443426078026
C         1.74031203428013    3.00832022201671   -0.59623578829480
C        -1.56847069976934    2.58049680433801   -1.82122736601016
C        -1.94730857051169    1.41533687195356   -2.58360676406823
C        -2.94243160962768    0.69434475341889   -1.82977489504240
C        -3.17479380115303    1.41444285760430   -0.60326970185865
C        -2.32688654321742    2.58113588269429   -0.60086409487791
C        -2.94243160962768   -0.69434475341889   -1.82977489504240
C        -1.94730857051169   -1.41533687195356   -2.58360676406823
C        -1.56847069976934   -2.58049680433801   -1.82122736601016
C        -2.32688654321742   -2.58113588269429   -0.60086409487790
C        -3.17479380115303   -1.41444285760429   -0.60326970185865
C        -0.99138524268633   -0.72097607833148   -3.31029871234527
C        -0.99138524268633    0.72097607833148   -3.31029871234528
C         0.38054100031802    1.16548515734434   -3.30884687187952
C         1.22668597234242    0.00000000000000   -3.30783368151334
C         0.38054100031802   -1.16548515734434   -3.30884687187952
Cl       -1.93737486741132   -0.00000000000005    5.25509316806359
Cl        1.49357076989125   -1.06110714234294    4.98312074978125
62
 energy: -137.525973566279 gnorm: 0.072152753497 xtb: 6.4.1 (a3dbbd7)
C        -1.30649064349993    0.00996545725911    3.53718410239387
C        -0.39401991890927   -1.16178636302840    3.29058564120992
C         1.00149017551295   -0.72994190216228    3.36142583820581
C         0.98506131122823    0.74383459865407    3.31932772003726
C        -0.36768634517148    1.17880738949992    3.31793519177632
C         2.34307260712366   -2.58867565253729    0.56985803925773
C         3.18613947064108   -1.42054289352844    0.57127595811474
C         2.93731241933163   -0.69587136731519    1.79531982516594
C         1.96225904624803   -1.41787251966928    2.54106466384139
C         1.57788349364980   -2.57108296430848    1.78848889474091
C         3.17598134025903    1.41672119752381    0.58279063394157
C         2.33115872727452    2.58440211053005    0.58291707066181
C         1.57385391601266    2.58466948986039    1.81045752630761
C         1.94686015625841    1.42368373687198    2.56977303532314
C         2.93507584573158    0.69899516113309    1.80643648579582
C        -0.36209689549052    3.44839960402485    0.58266621078280
C        -1.73363845271078    3.00218814493594    0.58746240984940
C        -1.96645455581433    2.29469427811365    1.81215300250326
C        -0.73497208239426    2.28465526890260    2.57044572808037
C         0.25122210982993    3.00422237728640    1.80840459916600
C        -3.39574377215409    0.71485128995565    0.57293756515027
C        -3.39824960070841   -0.71944743146679    0.57125561663563
C        -2.77817486685499   -1.14957906988237    1.80228778178824
C        -2.42465017700939    0.00442584421134    2.56179374440878
C        -2.76707321729397    1.14736653752995    1.80592679955819
C        -1.73924388435430   -3.00325863466588    0.58208155314347
C        -0.36390995908779   -3.44393868644399    0.57823673993626
C         0.25024968531892   -2.98477238645131    1.79419914294179
C        -0.74220179509719   -2.25465561277564    2.54712639830798
C        -1.98354860196203   -2.29094231285557    1.80210353963402
C        -0.24649994614061   -3.01257434830412   -1.82993408813060
C         0.74440025522591   -2.29137679166834   -2.58415931945341
C         1.97326181406015   -2.29216244089380   -1.82787571158743
C         1.74274079514008   -3.01478326186172   -0.60636194697314
C         0.36801458442703   -3.45401713556207   -0.60083295094635
C         2.79009212856166   -1.16732268519926   -1.82836674419972
C         2.41121056374838   -0.00185687388728   -2.58406084825562
C         2.78925898031882    1.16376834600344   -1.82452117715364
C         3.40290030340081    0.72104268599566   -0.59987515964850
C         3.40784486028033   -0.72264012629803   -0.60503239728517
C         1.97040438116742    2.28603703914483   -1.82245239846478
C         0.74381435366483    2.28552069342960   -2.58069914606217
C        -0.24665642101999    3.00627546718656   -1.82402178747723
C         0.36591139725044    3.45230812722235   -0.59748552392084
C         1.73804772445107    3.00830294500743   -0.59764304874933
C        -1.56899185689452    2.57693783850128   -1.82239164314655
C        -1.94782554890980    1.41194621078555   -2.58530338908590
C        -2.94130332086596    0.69102052997924   -1.83082640843481
C        -3.17308630296548    1.41130623733342   -0.60361658573108
C        -2.32612963398161    2.57930743326903   -0.60091717731611
C        -2.94095790959302   -0.69845558357832   -1.83135774115675
C        -1.94599763145269   -1.41873019391426   -2.58749465510578
C        -1.56677732263699   -2.58321701143967   -1.82773836331451
C        -2.33038315733111   -2.58452646584484   -0.60559651602936
C        -3.17626005823343   -1.41880821391550   -0.60702224618738
C        -0.99060433411906   -0.72329155441181   -3.31427325630461
C        -0.99099228138991    0.71786330513451   -3.31296456617957
C         0.38022132735668    1.16254441656699   -3.31202121476854
C         1.22736788657899   -0.00230108837333   -3.31099503981604
C         0.38121392514054   -1.16769306606469   -3.31297839374714
Cl       -1.94210916656971    0.01050664534314    5.26737311395453
Cl        1.54310847628930   -1.10155291123084    5.10380069778692
62
 energy: -137.535784164547 gnorm: 0.037034398619 xtb: 6.4.1 (a3dbbd7)
C        -1.31127013416794    0.00759577819482    3.53561957890222
C        -0.40452107891920   -1.15900364864957    3.29091027159235
C         1.04445243275249   -0.76084809796721    3.51157011485804
C         0.96445491950304    0.74402574246010    3.28522966174057
C        -0.37128873249479    1.16953952514026    3.29728905012595
C         2.34445970791800   -2.59319764107490    0.56145803141332
C         3.18240474616925   -1.42653307176073    0.56381786956671
C         2.92062935670924   -0.70239270909602    1.79188386073182
C         1.97554581543502   -1.42287769908172    2.53691108940050
C         1.57785779813283   -2.56442091952768    1.77902333677627
C         3.17049936476666    1.41627987664565    0.58082088802996
C         2.32972040786563    2.58749900122708    0.57614133215328
C         1.56683440564763    2.58812670056513    1.80055160391067
C         1.93038479910232    1.41841570226716    2.54779386507153
C         2.92740076628386    0.70256775035081    1.80414404290948
C        -0.36469198392655    3.45625565074399    0.57656814887317
C        -1.73385589429188    3.00609270085600    0.58384814420792
C        -1.96300492164299    2.29727990086062    1.81250202961492
C        -0.74234624130349    2.29095396620455    2.56290563348633
C         0.24749773949378    3.00882156769007    1.80160266146400
C        -3.39393356818435    0.71144310913799    0.57041345638012
C        -3.40479333172914   -0.72178113079823    0.56850166741402
C        -2.78332126963296   -1.15083498187743    1.79410121701521
C        -2.42699584291010    0.00881302798157    2.56121804938815
C        -2.76533350597703    1.14272951920304    1.80678656505832
C        -1.73970607088885   -3.00268027614434    0.57215363992462
C        -0.36374672859907   -3.44080838974748    0.57099694813611
C         0.25183494894688   -2.97557334778648    1.78437679139357
C        -0.73929540168907   -2.23175140879214    2.53712512593978
C        -1.98179106062411   -2.28013620642722    1.79140008201052
C        -0.24923485899436   -3.01162094547326   -1.84032500244288
C         0.74272167127649   -2.29079789824845   -2.59256976122112
C         1.97128637600333   -2.29477522849140   -1.83520889268663
C         1.74134007538202   -3.01872725692153   -0.61559401075869
C         0.36805417491229   -3.45639468466900   -0.60849129167800
C         2.78776800784325   -1.16841294497191   -1.83388093122319
C         2.41062040129180   -0.00242819020208   -2.58817819363037
C         2.78853852855549    1.16301722681572   -1.82548376548371
C         3.40123855176786    0.72049547877146   -0.60248097827654
C         3.40275427315896   -0.72521196938577   -0.60846100492502
C         1.96921336508341    2.28581609872622   -1.82523548445549
C         0.74412855423410    2.28635447270480   -2.58345822331710
C        -0.24684174834334    3.00644586562628   -1.82567182485994
C         0.36564051146379    3.45791914746868   -0.60172084987833
C         1.73805090356045    3.01289187094840   -0.60219386956651
C        -1.56909140843138    2.57763569808140   -1.82348709422427
C        -1.94846849917391    1.41320598721864   -2.58701958899519
C        -2.93877095164887    0.69126750056220   -1.83183175588206
C        -3.17000808146373    1.40937628583242   -0.60360130776735
C        -2.32533191136629    2.58051495411990   -0.60113950971195
C        -2.94028537208765   -0.69949143494976   -1.83312936778337
C        -1.94508855840256   -1.41786106147685   -2.59263737655689
C        -1.56548428771449   -2.58290080031629   -1.83857887789067
C        -2.33313926763928   -2.58492401591812   -0.61051186155255
C        -3.17951637985494   -1.42188271900394   -0.61253592004171
C        -0.99037715994069   -0.71987356663235   -3.31929249347257
C        -0.99071526829355    0.72018415313957   -3.31618619937512
C         0.37980669185510    1.16432291194177   -3.31582741740185
C         1.22758211453754   -0.00048073551154   -3.31498267102024
C         0.38084852876898   -1.16516682745834   -3.31880669271508
Cl       -1.94074533554228    0.02098820058153    5.27286318795487
Cl        1.61412931832352   -1.13419270604903    5.29427009911979
62
 energy: -137.537507890501 gnorm: 0.018441595975 xtb: 6.4.1 (a3dbbd7)
C        -1.30607901250954    0.00402651653929    3.53786334923124
C        -0.39206803486418   -1.16519051191424    3.31175664797949
C         1.04248616281709   -0.75887612192085    3.50490842475412
C         0.97206964713564    0.73621084216328    3.30261054406580
C        -0.36563616358432    1.16458707410661    3.30243694098113
C         2.33827501089661   -2.58893795575370    0.56425893482635
C         3.17451216262482   -1.42221402998440    0.56717137587226
C         2.91821983951761   -0.70229166567704    1.80054838594707
C         1.97011930919541   -1.42115986235766    2.55012946838848
C         1.57705864754436   -2.56506422201857    1.78703106105084
C         3.16742688740717    1.41352305092565    0.58202709874641
C         2.32679566376506    2.58386761393860    0.57697249129527
C         1.56516544649604    2.57938142691059    1.80233837721624
C         1.93543910008409    1.41446239035502    2.55956923792231
C         2.92812868700567    0.70119035500658    1.80883999815283
C        -0.36475167694116    3.45462194399557    0.57681680765035
C        -1.73378113299809    3.00449296308561    0.58266682681879
C        -1.96121650555231    2.29383291284742    1.81096854599960
C        -0.73938850588884    2.28350503316811    2.56268866611947
C         0.24763280675249    3.00345177337584    1.80182342004548
C        -3.39401282024064    0.71197146295795    0.56867306651200
C        -3.40447608162828   -0.72108066111310    0.56681992384146
C        -2.78096936815540   -1.14907635867648    1.79357865808003
C        -2.42353923891470    0.00812176833770    2.56038632966210
C        -2.76574305460433    1.14213919460260    1.80583545075034
C        -1.73476353801454   -2.99681010154816    0.57047691030616
C        -0.36071972737914   -3.43694417844215    0.56979091665777
C         0.25408168796430   -2.97763963891351    1.78681075732940
C        -0.73187951020293   -2.23372634189719    2.54541901558546
C        -1.97115802241969   -2.27278741597275    1.78997125167391
C        -0.24947957072723   -3.01190302272208   -1.84341536757571
C         0.74250126322824   -2.29117735602355   -2.59675221450659
C         1.97043373098178   -2.29419867163874   -1.83772407059060
C         1.73951437450005   -3.01574081062000   -0.61613017520600
C         0.36800619850535   -3.45534850192742   -0.61125263869838
C         2.78600935987459   -1.16747341916302   -1.83515863204609
C         2.40857785268512   -0.00159977279424   -2.58998221718386
C         2.78578488094409    1.16351900699038   -1.82642847170386
C         3.39682064755394    0.72057463087098   -0.60228028479853
C         3.39689488038147   -0.72408964880795   -0.60738736013614
C         1.96768590620172    2.28676046004789   -1.82685348233080
C         0.74283384674970    2.28677981804429   -2.58569351214165
C        -0.24781738600479    3.00702191310660   -1.82752520890845
C         0.36449082831569    3.45747829302831   -0.60257671814973
C         1.73645045351728    3.01158443227394   -0.60242652534567
C        -1.56970145002730    2.57779544950237   -1.82597283376684
C        -1.94895045515394    1.41325936785393   -2.58974614711432
C        -2.93928769400107    0.69135922085451   -1.83449769100242
C        -3.17033496680640    1.40884068831265   -0.60594880922326
C        -2.32484455868762    2.57946181058428   -0.60295559658849
C        -2.94120472666552   -0.69918533343110   -1.83659588990411
C        -1.94656267316536   -1.41795556592439   -2.59660958719964
C        -1.56687431724493   -2.58354705810113   -1.84225600437838
C        -2.33112028760077   -2.58283838841687   -0.61288600314040
C        -3.17892332311374   -1.42016814286364   -0.61497325294471
C        -0.99167791897997   -0.72013110495042   -3.32351823401845
C        -0.99185813977621    0.72037902919140   -3.31954528172206
C         0.37873528431418    1.16503651279738   -3.31899622607924
C         1.22636513917160    0.00000761243712   -3.31870457922059
C         0.37992995912570   -1.16540024303698   -3.32333760490906
Cl       -1.94365752604578    0.03857914809423    5.27028560235113
Cl        1.60873612350806   -1.12637475203829    5.27293196049042
62
 energy: -137.537999374231 gnorm: 0.011818622195 xtb: 6.4.1 (a3dbbd7)
C        -1.30251087879366    0.00103301336662    3.53658998129073
C        -0.38336280190545   -1.17019696220104    3.32410419338373
C         1.04620991038451   -0.76185573783056    3.51593548436746
C         0.97407960509315    0.72835312053656    3.30435147770584
C        -0.36136813709862    1.15895270165462    3.29895010374062
C         2.33378091353088   -2.58641461779781    0.56527235213300
C         3.16768694885386   -1.41979145619920    0.56850009269845
C         2.91308651854933   -0.70302273130375    1.80607598654169
C         1.96578536065993   -1.41973813169792    2.55777786770781
C         1.57599717027036   -2.56565500373609    1.79134470545147
C         3.16628654965067    1.41210082265606    0.58226309220355
C         2.32525362237598    2.58178161069813    0.57668609055222
C         1.56356076411790    2.57444968963929    1.80193030493466
C         1.93740679298993    1.41087375668722    2.56251361413597
C         2.92893123093520    0.70111832969328    1.81094739401080
C        -0.36488771912856    3.45508025388418    0.57659262162536
C        -1.73358849415920    3.00426869907717    0.58225230806632
C        -1.95930346410978    2.29108586627017    1.81038084970439
C        -0.73808691421700    2.27914155987519    2.56042016360590
C         0.24791653918235    3.00106536102929    1.80107481358157
C        -3.39460250103594    0.71156965429692    0.56833546657977
C        -3.40569728438634   -0.72136601616761    0.56590504992328
C        -2.78100618225256   -1.14941961025447    1.79258323721581
C        -2.42166817447387    0.00696400779564    2.55907860665044
C        -2.76652102154704    1.14083354707301    1.80637538842240
C        -1.73091853474504   -2.99293566454683    0.56844704745967
C        -0.35882955603665   -3.43585925028808    0.56812283985680
C         0.25570696258346   -2.98045494839035    1.78695184076687
C        -0.72602439042625   -2.23230482462408    2.54798197599191
C        -1.96301613286720   -2.26628200727071    1.78768732634477
C        -0.25010200081440   -3.01234522161713   -1.84568214984792
C         0.74220776971771   -2.29148652965737   -2.59910917066886
C         1.96967823911270   -2.29411213456831   -1.83890117842914
C         1.73829161219018   -3.01501060337881   -0.61699094881723
C         0.36802330195370   -3.45632721960527   -0.61366967062509
C         2.78466573527639   -1.16687348161289   -1.83537867949764
C         2.40750804211093   -0.00091472323619   -2.59041747994790
C         2.78451700240244    1.16421236905803   -1.82655429804537
C         3.39466026262539    0.72085999636318   -0.60232174601492
C         3.39291928735298   -0.72368445937739   -0.60650350763149
C         1.96723341964304    2.28805297574357   -1.82769584546327
C         0.74235298415054    2.28770148030426   -2.58643062379348
C        -0.24831783418602    3.00805410564005   -1.82801781836429
C         0.36414839838950    3.45830384801253   -0.60301914059324
C         1.73609662362002    3.01198231296896   -0.60274891373552
C        -1.57007091436599    2.57849573892745   -1.82647106639580
C        -1.94932565659441    1.41377438317829   -2.59009017423454
C        -2.93942400840702    0.69172885110926   -1.83487580451838
C        -3.17063471916987    1.40823405101429   -0.60613883410167
C        -2.32436095195533    2.57903264193150   -0.60286984748349
C        -2.94197722637956   -0.69904131717394   -1.83803862797188
C        -1.94752513472980   -1.41792247614667   -2.59861709197145
C        -1.56785572708503   -2.58431500049392   -1.84513643039695
C        -2.33003418398236   -2.58175545984937   -0.61424003914347
C        -3.17888356616243   -1.41934776468623   -0.61651687293446
C        -0.99237938424624   -0.71975494552394   -3.32512779371212
C        -0.99242829240964    0.72102379937921   -3.32013391586446
C         0.37820207667100    1.16601336943325   -3.31983221230770
C         1.22581349039418    0.00073524556556   -3.32006977028273
C         0.37936727347797   -1.16514467808087   -3.32524542758575
Cl       -1.94821486779970    0.05273869355157    5.26472151410452
Cl        1.61025664807102   -1.11739002144044    5.27296711539209
62
 energy: -137.538223720926 gnorm: 0.007456648915 xtb: 6.4.1 (a3dbbd7)
C        -1.30076865991790   -0.00111009158449    3.53438755370076
C        -0.37874370473725   -1.17398455801451    3.32960731086451
C         1.05036459509584   -0.76542550595930    3.52776923651596
C         0.97304265797211    0.72210739386624    3.29796416792934
C        -0.35919978867867    1.15455052328681    3.29301468606455
C         2.33152626659772   -2.58544465612687    0.56559827530119
C         3.16351959539730   -1.41880099002444    0.56883202948415
C         2.90877548886872   -0.70372659256715    1.80870792709365
C         1.96252320000995   -1.41856893648713    2.56059521657749
C         1.57509350806769   -2.56647553680613    1.79302171622099
C         3.16711418875401    1.41205760282546    0.58209464397853
C         2.32520263799193    2.58122624931183    0.57631920188456
C         1.56262899343108    2.57257301821040    1.80086034881939
C         1.93803930307519    1.40869564481503    2.56095257868911
C         2.93020636851938    0.70170123056497    1.81126309263783
C        -0.36504219119514    3.45610335599521    0.57649065075164
C        -1.73352617632671    3.00468494420003    0.58234886530357
C        -1.95821749491294    2.28939374343594    1.81039986029617
C        -0.73817949422176    2.27734576117684    2.55847839559743
C         0.24812275278615    3.00041018497470    1.80036815786196
C        -3.39547959294090    0.71115900109656    0.56868227201442
C        -3.40738844438559   -0.72177562188250    0.56558749114526
C        -2.78218554830255   -1.15057993763908    1.79185751419443
C        -2.42100588078709    0.00573412743763    2.55783932809762
C        -2.76755976623602    1.13984525874642    1.80743008116578
C        -1.72893426289542   -2.99127506602590    0.56739138646072
C        -0.35826930270492   -3.43677573278343    0.56722548250876
C         0.25638574378144   -2.98354879386056    1.78656539793302
C        -0.72310562019208   -2.23098841725424    2.54788064173937
C        -1.95861825534414   -2.26246854646181    1.78625147139972
C        -0.25061635973676   -3.01258878523319   -1.84629613069855
C         0.74200182602516   -2.29150476382423   -2.59945122076380
C         1.96920989517102   -2.29411707798311   -1.83869726658808
C         1.73778557469001   -3.01555882983497   -0.61734200941813
C         0.36794145905829   -3.45789649764032   -0.61483058997747
C         2.78397612754655   -1.16654632393466   -1.83473660578443
C         2.40718651737268   -0.00048167099506   -2.58986536353965
C         2.78442103723597    1.16481469200240   -1.82618820069043
C         3.39454878419894    0.72137572825605   -0.60237940247079
C         3.39131906921540   -0.72360632722829   -0.60578778898553
C         1.96755169351139    2.28915238402530   -1.82776556043717
C         0.74249202761751    2.28851564384033   -2.58616575927735
C        -0.24830450723228    3.00890996932163   -1.82763005967111
C         0.36434834209395    3.45918586968572   -0.60286664097372
C         1.73663170688614    3.01306334015358   -0.60278119197947
C        -1.57005244613461    2.57917708954058   -1.82594854670301
C        -1.94940039059175    1.41436172470776   -2.58937149638984
C        -2.93933082943411    0.69221363584814   -1.83421362166745
C        -3.17095126153062    1.40790990694218   -0.60550307260427
C        -2.32401436206483    2.57904652721951   -0.60207582384944
C        -2.94245852694407   -0.69887629183064   -1.83816609503033
C        -1.94794001860932   -1.41774302748267   -2.59895526401057
C        -1.56841610084949   -2.58472111789649   -1.84623006871826
C        -2.32973380453175   -2.58135850070728   -0.61445591282026
C        -3.17910301342463   -1.41885887156679   -0.61707051288195
C        -0.99253304783090   -0.71923059877823   -3.32481400257386
C        -0.99248197896110    0.72165147428164   -3.31927352007744
C         0.37815693307478    1.16674717706496   -3.31921113763828
C         1.22573744117857    0.00129939661285   -3.31975453707283
C         0.37916596680548   -1.16473638422841   -3.32505103961372
Cl       -1.95036726961702    0.05945296592913    5.25989583447016
Cl        1.61161280010821   -1.10679865507690    5.27347345197478
62
 energy: -137.538298948546 gnorm: 0.004431391223 xtb: 6.4.1 (a3dbbd7)
C        -1.30100087817872   -0.00183498919697    3.53365913046190
C        -0.37863655191577   -1.17529207738723    3.32946219699541
C         1.05240518108158   -0.76698531563033    3.53314493519433
C         0.97118524025233    0.71989558354069    3.29175014934922
C        -0.35939340135245    1.15302726192394    3.28986675348729
C         2.33157861085456   -2.58573844002956    0.56554290680491
C         3.16302055235196   -1.41905359961325    0.56869425596061
C         2.90752951785001   -0.70407226957274    1.80865753084177
C         1.96147136693374   -1.41810827092280    2.55972547871906
C         1.57474588180295   -2.56683300701025    1.79258682159557
C         3.16839436259443    1.41259920408288    0.58202375645078
C         2.32588704881603    2.58162895682918    0.57629400621600
C         1.56248566676507    2.57282202546929    1.80022154632294
C         1.93780075130606    1.40832880594766    2.55873143034631
C         2.93102245817486    0.70207119266363    1.81075829606002
C        -0.36512029827719    3.45656735271033    0.57661237806948
C        -1.73361217156169    3.00507219987798    0.58259741258111
C        -1.95824351820047    2.28918762955985    1.81070049118527
C        -0.73890128708455    2.27754273552653    2.55805340492966
C         0.24810945542908    3.00056073497291    1.80019316879193
C        -3.39586998721160    0.71104858288636    0.56908315143021
C        -3.40816365193644   -0.72192563847627    0.56569249726117
C        -2.78294685126727   -1.15128713660305    1.79170881865160
C        -2.42117116939713    0.00516880041453    2.55749435456290
C        -2.76804712757867    1.13961421470814    1.80808310924759
C        -1.72896005308842   -2.99156269797582    0.56747036264589
C        -0.35861171405639   -3.43793181564005    0.56732000994782
C         0.25626006946822   -2.98494539276748    1.78638057870366
C        -0.72327959921686   -2.23076780587486    2.54710300041285
C        -1.95843282097603   -2.26218776937277    1.78618897957454
C        -0.25071275601924   -3.01248810852883   -1.84583652107720
C         0.74197042839092   -2.29126482408534   -2.59880474906945
C         1.96913619770099   -2.29412155361148   -1.83808500913799
C         1.73784640012781   -3.01624006225548   -0.61725067439202
C         0.36782753570501   -3.45857620626654   -0.61476279731970
C         2.78397197999236   -1.16653836841262   -1.83411581212612
C         2.40731504937786   -0.00043560295634   -2.58923692262015
C         2.78485480911046    1.16494648203933   -1.82579784910279
C         3.39537349719267    0.72165745726305   -0.60232385238913
C         3.39169305045860   -0.72373577230443   -0.60548316714627
C         1.96798979447163    2.28943160874237   -1.82743297433142
C         0.74281576965957    2.28874435055869   -2.58565899597176
C        -0.24805324805699    3.00908223210955   -1.82707839343465
C         0.36466176485500    3.45939883343123   -0.60245907600274
C         1.73721744939019    3.01364473979003   -0.60257882365266
C        -1.56984011605540    2.57939920870944   -1.82535107979149
C        -1.94928612310985    1.41464063654190   -2.58876334291819
C        -2.93918949319542    0.69247306662514   -1.83362052555458
C        -3.17103954536281    1.40789050180033   -0.60499555764306
C        -2.32393349033803    2.57922785163232   -0.60153124578611
C        -2.94248889278011   -0.69876328108668   -1.83777179360330
C        -1.94783889716132   -1.41753656768907   -2.59850038682780
C        -1.56841997635524   -2.58460498115521   -1.84589701252121
C        -2.32986267431606   -2.58140969532365   -0.61409980635814
C        -3.17921339835286   -1.41871197345014   -0.61690434606543
C        -0.99235940858290   -0.71891801565268   -3.32401303603937
C        -0.99228440108222    0.72193256524815   -3.31849718711424
C         0.37834534841237    1.16694438102221   -3.31845600531585
C         1.22588558948216    0.00147172701081   -3.31901176847561
C         0.37924078955315   -1.16445621867036   -3.32421779403252
Cl       -1.94960693003213    0.05907441001045    5.25881892981891
Cl        1.61118321540478   -1.09987501846954    5.27019248896992
62
 energy: -137.538326297831 gnorm: 0.002201635880 xtb: 6.4.1 (a3dbbd7)
C        -1.30183052909592   -0.00185780010400    3.53419378306967
C        -0.38007019252958   -1.17530801478840    3.32819945478418
C         1.05308134038549   -0.76712004815025    3.53467431471053
C         0.96997901436756    0.71997590993623    3.28894613576799
C        -0.36030440310601    1.15306066189133    3.28947435250347