156
 energy: -488.123864269186 gnorm: 9.103478516413 xtb: 6.4.1 (a3dbbd7)
C        -1.23626340000000    0.00000000000000    3.32997640000000
C        -0.38202640000000   -1.17575640000000    3.32997640000000
C         1.00015810000000   -0.72665740000000    3.32997640000000
C         1.00015810000000    0.72665740000000    3.32997640000000
C        -0.38202640000000    1.17575640000000    3.32997640000000
C         2.34433560000000   -2.60145750000000    0.59464210000000
C         3.19857260000000   -1.42570110000000    0.59464210000000
C         2.96246730000000   -0.69904370000000    1.83090550000000
C         1.96230920000000   -1.42570110000000    2.59495830000000
C         1.58028280000000   -2.60145750000000    1.83090550000000
C         3.19857260000000    1.42570110000000    0.59464210000000
C         2.34433560000000    2.60145750000000    0.59464210000000
C         1.58028280000000    2.60145750000000    1.83090550000000
C         1.96230920000000    1.42570110000000    2.59495830000000
C         2.96246730000000    0.69904370000000    1.83090550000000
C        -0.36750900000000    3.48258920000000    0.59464210000000
C        -1.74969350000000    3.03349030000000    0.59464210000000
C        -1.98579880000000    2.30683290000000    1.83090550000000
C        -0.74953540000000    2.30683290000000    2.59495830000000
C         0.25062270000000    3.03349030000000    1.83090550000000
C        -3.42570570000000    0.72665740000000    0.59464210000000
C        -3.42570570000000   -0.72665740000000    0.59464210000000
C        -2.80757400000000   -1.17575640000000    1.83090550000000
C        -2.42554760000000    0.00000000000000    2.59495830000000
C        -2.80757400000000    1.17575640000000    1.83090550000000
C        -1.74969350000000   -3.03349030000000    0.59464210000000
C        -0.36750900000000   -3.48258920000000    0.59464210000000
C         0.25062270000000   -3.03349030000000    1.83090550000000
C        -0.74953540000000   -2.30683290000000    2.59495830000000
C        -1.98579880000000   -2.30683290000000    1.83090550000000
C        -0.25062270000000   -3.03349030000000   -1.83090550000000
C         0.74953540000000   -2.30683290000000   -2.59495830000000
C         1.98579880000000   -2.30683290000000   -1.83090550000000
C         1.74969350000000   -3.03349030000000   -0.59464210000000
C         0.36750900000000   -3.48258920000000   -0.59464210000000
C         2.80757400000000   -1.17575640000000   -1.83090550000000
C         2.42554760000000    0.00000000000000   -2.59495830000000
C         2.80757400000000    1.17575640000000   -1.83090550000000
C         3.42570570000000    0.72665740000000   -0.59464210000000
C         3.42570570000000   -0.72665740000000   -0.59464210000000
C         1.98579880000000    2.30683290000000   -1.83090550000000
C         0.74953540000000    2.30683290000000   -2.59495830000000
C        -0.25062270000000    3.03349030000000   -1.83090550000000
C         0.36750900000000    3.48258920000000   -0.59464210000000
C         1.74969350000000    3.03349030000000   -0.59464210000000
C        -1.58028280000000    2.60145750000000   -1.83090550000000
C        -1.96230920000000    1.42570110000000   -2.59495830000000
C        -2.96246730000000    0.69904370000000   -1.83090550000000
C        -3.19857260000000    1.42570110000000   -0.59464210000000
C        -2.34433560000000    2.60145750000000   -0.59464210000000
C        -2.96246730000000   -0.69904370000000   -1.83090550000000
C        -1.96230920000000   -1.42570110000000   -2.59495830000000
C        -1.58028280000000   -2.60145750000000   -1.83090550000000
C        -2.34433560000000   -2.60145750000000   -0.59464210000000
C        -3.19857260000000   -1.42570110000000   -0.59464210000000
C        -1.00015810000000   -0.72665740000000   -3.32997640000000
C        -1.00015810000000    0.72665740000000   -3.32997640000000
C         0.38202640000000    1.17575640000000   -3.32997640000000
C         1.23626340000000    0.00000000000000   -3.32997640000000
C         0.38202640000000   -1.17575640000000   -3.32997640000000
C        -1.76086815247998    0.00000000000000    4.78849957557021
F        -0.76911826531252    0.00000000000000    5.67468926254662
F        -2.50968386795825   -1.06794314680471    5.04863888333743
F        -2.50968386795825    1.06794314680471    5.04863888333743
C        -0.54413818249354   -1.67468516033722    4.78849957845317
F        -0.23767107904745   -0.73147481112462    5.67468925997942
F        -1.79120914301982   -2.05683909935453    5.04863874564184
F         0.24013968171955   -2.71686350152345    5.04863903502921
C         1.42457227037960   -1.03501233722714    4.78849957248258
F         0.62223011468481   -0.45207589682711    5.67468926529602
F         1.40265511061956   -2.33913928186680    5.04863905501621
F         2.65809836182651   -0.61117154425495    5.04863869666890
C         1.42457227037960    1.03501233722714    4.78849957248258
F         0.62223011468481    0.45207589682711    5.67468926529602
F         2.65809836182651    0.61117154425495    5.04863869666891
F         1.40265511061956    2.33913928186680    5.04863905501621
C         3.37204091334889   -3.72927672645244    0.86730596148276
F         4.06564647311729   -3.51265957144658    1.98125763710227
F         4.25569947457670   -3.84739838595791   -0.11965645964809
F         2.78580317558591   -4.91533944031226    1.00324916143780
C         4.25247495652193   -1.01957928511255    2.62817407757680
F         4.45020405360863   -2.32910962270744    2.75037677428969
F         5.33704498641440   -0.51936149478958    2.04303305824604
F         4.21414295278388   -0.51936236815955    3.85992636334025
C         2.82790274436383   -2.05459160758554    3.71645040671519
F         3.82797483682855   -2.78118494419178    3.22571836876305
F         3.37293748548841   -1.13053297859378    4.50255013394648
F         2.11749631416700   -2.85850222732984    4.50254863174647
C         4.58877084110522    2.05459160147071    0.86730597290559
F         4.59709252483521    2.78118520641283    1.98125951001435
F         4.97417519512416    2.85850196315549   -0.11965482382298
F         5.53562669678859    1.13053295630600    1.00324569798425
C         4.25247495652193    1.01957928511255    2.62817407757680
F         4.45020405360858    2.32910962270745    2.75037677428972
F         5.33704498641440    0.51936149478961    2.04303305824600
F         4.21414295278388    0.51936236815950    3.85992636334023
C        -1.08016271022039    3.32439912180418    3.71645041587937
F        -1.46215754230407    4.50005299330749    3.22571838851551
F        -2.06425285383526    2.89718320022386    4.50255037491024
F        -0.03290491502765    3.55721032900471    4.50254840735999
C        -4.92005227074660   -1.03501232949151    0.86730592957069
F        -5.35386609588658   -0.45207588830481    1.98125865327758
F        -5.70437742108406   -0.61117153086585   -0.11965558739362
F        -5.14292645153878   -2.33913927311179    1.00324714649869
C        -4.03961820246674    1.67468514775899    2.62817407948106
F        -4.96930660042402    0.73147479244130    2.75037763231443
F        -4.62303373288713    2.71686348978892    2.04303253910982
F        -3.71458666614023    2.05683907990834    3.85992603200073
C        -2.50473491433418   -4.35941144902977    0.86730593917895
F        -2.08438487052912   -4.95213043104453    1.98125838386969
F        -2.34400857369757   -5.23632280881804   -0.11965581818547
F        -3.81390519137296   -4.16837996597314    1.00324768478856
C         0.34440953624153   -4.35941144868709    2.62817404748705
F        -0.83992598883967   -4.95213069234126    2.75037577510431
F         1.15529636597892   -5.23632261667420    2.04303359185445
F         0.80829780400759   -4.16837989546168    3.85992670963205
C        -1.08016271022039   -3.32439912180418    3.71645041587937
F        -1.46215754230407   -4.50005299330749    3.22571838851551
F        -0.03290491502764   -3.55721032900471    4.50254840735999
F        -2.06425285383526   -2.89718320022386    4.50255037491024
C        -2.84103082519036   -3.32439911178427    2.62817407941587
F        -2.23127406184888   -4.50005340761388    2.75037746012492
F        -4.01248672303643   -3.55720929213525    2.04303264409737
F        -3.10404037880941   -2.89718378306488    3.85992609894427
C         2.84103082519036   -3.32439911178427   -2.62817407941587
F         2.23127406184888   -4.50005340761388   -2.75037746012495
F         3.10404037880944   -2.89718378306489   -3.85992609894426
F         4.01248672303643   -3.55720929213529   -2.04303264409737
C        -0.34440953624153    4.35941144868709   -2.62817404748705
F         0.83992598883967    4.95213069234126   -2.75037577510431
F        -0.80829780400759    4.16837989546168   -3.85992670963205
F        -1.15529636597892    5.23632261667420   -2.04303359185445
C        -2.28376457660886    3.72927671755932   -2.62817408867206
F        -3.59030321655004    3.51265997057978   -2.75037870097715
F        -1.79618325340526    3.84739782561576   -3.85992562899768
F        -2.14318168460923    4.91533956626621   -2.04303190988614
C        -4.58877084110522    2.05459160147071   -0.86730597290559
F        -4.59709252483521    2.78118520641283   -1.98125951001435
F        -5.53562669678859    1.13053295630600   -1.00324569798425
F        -4.97417519512416    2.85850196315549    0.11965482382298
C        -2.28376457660886   -3.72927671755932   -2.62817408867206
F        -3.59030321655004   -3.51265997057978   -2.75037870097715
F        -1.79618325340526   -3.84739782561576   -3.85992562899768
F        -2.14318168460923   -4.91533956626621   -2.04303190988614
C        -4.58877084110522   -2.05459160147071   -0.86730597290559
F        -4.59709252483521   -2.78118520641283   -1.98125951001435
F        -5.53562669678859   -1.13053295630600   -1.00324569798425
F        -4.97417519512416   -2.85850196315549    0.11965482382298
C        -1.42457227037960    1.03501233722714   -4.78849957248258
F        -0.62223011468481    0.45207589682711   -5.67468926529602
F        -2.65809836182651    0.61117154425495   -5.04863869666891
F        -1.40265511061956    2.33913928186680   -5.04863905501621
C         0.54413818249354    1.67468516033722   -4.78849957845317
F         0.23767107904745    0.73147481112462   -5.67468925997942
F        -0.24013968171955    2.71686350152345   -5.04863903502921
F         1.79120914301982    2.05683909935453   -5.04863874564184
156
 energy: -494.954573191399 gnorm: 7.651498113839 xtb: 6.4.1 (a3dbbd7)
C        -1.23635033183927    0.00132153620522    3.32298490767718
C        -0.37932494990384   -1.16809025287487    3.30949024767319
C         0.99333758169277   -0.72203131436823    3.31007318137556
C         0.99799834911346    0.72819407764472    3.32365838582258
C        -0.38128377935225    1.17390062175106    3.33151789928188
C         2.34590030266732   -2.60254336702786    0.59454256554546
C         3.19978635087952   -1.42478127408010    0.59430789111901
C         2.95383163571368   -0.69981590146647    1.82116427176061
C         1.95394909180288   -1.42303633621320    2.58224294593612
C         1.58162066514155   -2.60119711873667    1.83132718168046
C         3.19452000329040    1.42583347250454    0.59036679036877
C         2.34329185181632    2.60258810159884    0.59552830475070
C         1.57875937147505    2.60243310695834    1.82972044288361
C         1.96404867212936    1.42875486982562    2.59376251124621
C         2.95409507903402    0.70101612441226    1.82710596436310
C        -0.36829236103968    3.48262862716693    0.59633474103781
C        -1.74746779118881    3.03166179262566    0.59673959866832
C        -1.98386255474493    2.31109925295942    1.82805976954148
C        -0.75068596449134    2.30978869863898    2.59577022425620
C         0.25246149473803    3.03356543962738    1.82723693132195
C        -3.42522136121549    0.72449555665593    0.59554504548924
C        -3.41976923936604   -0.72199563894039    0.59717611665221
C        -2.80901782145210   -1.17345278235595    1.83094577732373
C        -2.42633578554651   -0.00083750329359    2.59483559377465
C        -2.81009072032615    1.17608785955759    1.83130767383458
C        -1.74714412963454   -3.03046200812441    0.59127970233666
C        -0.36765612677247   -3.48321736960303    0.59453765191204
C         0.25169913858569   -3.02815462450088    1.82546500984321
C        -0.74611948680011   -2.29309077949066    2.57874439643479
C        -1.98364581817917   -2.29808373574139    1.82613813983227
C        -0.24501741254227   -3.03312506389348   -1.83155176164222
C         0.74589551885344   -2.30749163266211   -2.59423283284188
C         1.98748009425961   -2.30896117335581   -1.83191521379394
C         1.74488306586069   -3.03473159789201   -0.59546625290685
C         0.36984741822266   -3.48069978741752   -0.59726366469842
C         2.80940174763791   -1.17008443392581   -1.83121452851598
C         2.42639906583578   -0.00027038161613   -2.59235380227675
C         2.80705043378139    1.17483931039683   -1.83075680122334
C         3.42478143701634    0.72446433930821   -0.59817479584456
C         3.42480993817710   -0.72483873821721   -0.59725677614392
C         1.98623754250902    2.30781688744288   -1.82913100101618
C         0.75165329935615    2.30788508561414   -2.59414673552759
C        -0.24499440734452    3.02981848740018   -1.82683441510179
C         0.36910781380819    3.48253389134188   -0.59418968935955
C         1.74902006097620    3.03253583460589   -0.59616123851018
C        -1.58221729652495    2.59492055502503   -1.82687991931280
C        -1.96444398510617    1.42618448306208   -2.59397742150628
C        -2.96118809297783    0.69771800588905   -1.83189973269337
C        -3.20058561372509    1.42672988629737   -0.59606635335675
C        -2.34360954715660    2.60344801163969   -0.59447531936170
C        -2.96120390077618   -0.69883599135438   -1.83234853331658
C        -1.96244699098006   -1.42259756195946   -2.59458418174254
C        -1.58241356529470   -2.60322742889924   -1.83231333936162
C        -2.34517110854729   -2.60085284669584   -0.59515198599984
C        -3.19265411372970   -1.42574065217194   -0.59857535988145
C        -0.99977865282132   -0.72915087529282   -3.33063047311717
C        -1.00101263811152    0.72501792207588   -3.32681813899117
C         0.38450449592232    1.17433280286576   -3.32654645442192
C         1.23697792945152   -0.00177517931869   -3.33113019640022
C         0.38174884981721   -1.17580757644512   -3.33045990534648
C        -1.77983587559548    0.00690112376000    4.76433547325207
F        -0.80881963775877    0.04620609999943    5.70437513726983
F        -2.57361621924718   -1.00505319559156    5.05120423473695
F        -2.51012424765197    1.06720946599858    5.05490741026436
C        -0.54412893848164   -1.67723952633286    4.74343966990641
F        -0.27026937001481   -0.77317644945702    5.71739869485133
F        -1.75798984318626   -2.09064753771418    5.09115055222895
F         0.19418439904157   -2.72619763641546    5.10028291095177
C         1.42442595337907   -1.03732404773673    4.73973084668211
F         0.66844391945522   -0.46750914565818    5.71793929584089
F         1.44951269713044   -2.32916932595659    5.09602457293673
F         2.65449652027185   -0.65553466061551    5.09482850523007
C         1.43911477790284    1.04479909053275    4.76123213700038
F         0.62476510389864    0.51639519346018    5.70575647121624
F         2.66880777832579    0.70073353818605    5.05637361767888
F         1.40451540962683    2.34202217981452    5.05365935207318
C         3.36924542452858   -3.73038099254321    0.86110092292800
F         4.06866473400485   -3.54102339280799    1.95860211304414
F         4.25779116683080   -3.84863535089275   -0.11676904362836
F         2.78862485180991   -4.91721576071382    1.00187758138357
C         4.22248895506164   -1.00449510387941    2.61754121270755
F         4.50498811349198   -2.31776840231892    2.73351971206721
F         5.36009170859351   -0.55762789496412    2.03613480326454
F         4.27535341930211   -0.52536595485013    3.85921620470905
C         2.80970076701967   -2.03406375366356    3.69800956163257
F         3.81030176047503   -2.82111170157833    3.26342640153067
F         3.37264504695965   -1.18452539584000    4.54374361374147
F         2.14871691504954   -2.91217428608496    4.48785241556359
C         4.58438569625263    2.04658846139649    0.85545453249796
F         4.60888459665260    2.82576248348292    1.94352076867773
F         4.97585416451552    2.86197861317721   -0.12136016849881
F         5.55909445050942    1.16986668500045    0.92598803586992
C         4.23549625816718    0.99356814497666    2.59749326797035
F         4.44805626114630    2.33335779490197    2.81350424668374
F         5.34911221060018    0.51616119081108    2.09638990618026
F         4.22183331241611    0.58116634695822    3.88543050746972
C        -1.08098339189274    3.32475933905872    3.71432211644928
F        -1.46256809810940    4.50181069060437    3.22614150485387
F        -2.06150908770429    2.90172708424423    4.50489787130266
F        -0.03409387768790    3.56027984672892    4.50395432677511
C        -4.90535704062003   -1.02500143275411    0.87226578936377
F        -5.36481597869303   -0.47728667785120    1.96708777846220
F        -5.72401697609760   -0.58993384335731   -0.10517531287595
F        -5.15630408695614   -2.34280903233129    1.03549097012593
C        -4.03772006617293    1.67697392561617    2.62788728913729
F        -4.96474866835719    0.75496391974382    2.76836405964832
F        -4.62374667886968    2.71800770300262    2.04645210308880
F        -3.71964643877555    2.05802895286093    3.85926076246467
C        -2.51308623057239   -4.34024387270703    0.83941384899905
F        -2.08463522908784   -5.00981028744633    1.94086140138682
F        -2.34328957894584   -5.24156672281944   -0.11801056995717
F        -3.80820586464548   -4.21314107328126    0.93267390673847
C         0.37022208920074   -4.33793966909089    2.62151219727766
F        -0.80613619680130   -5.01201816104880    2.72925966426647
F         1.15384795070979   -5.24279614820407    2.04330213416812
F         0.87888768342308   -4.21614384170091    3.82566716081456
C        -1.07095823042047   -3.27779739841927    3.70536748560134
F        -1.45548987405072   -4.52413569013849    3.28885631247598
F        -0.08382243882285   -3.58259567107700    4.53817565752867
F        -2.03134028184812   -2.93498514536236    4.53962110057755
C        -2.84937402627230   -3.28524669348707    2.62119472693100
F        -2.29466898624903   -4.51822203527868    2.76716277882449
F        -4.03405741138900   -3.52166254074225    2.11228537355736
F        -3.18598257314896   -2.89140278551218    3.82811836432040
C         2.84019238430009   -3.32405373526172   -2.62773787578222
F         2.23139382103106   -4.50182959895511   -2.75110415394361
F         3.10477344699985   -2.89726182426729   -3.86168974050413
F         4.01372533092206   -3.55733679550853   -2.04659693345760
C        -0.33495164064568    4.34748612648458   -2.61455159597791
F         0.84182583177222    4.95553510913879   -2.75243000902507
F        -0.77867057694160    4.18022027569817   -3.88550487113034
F        -1.13124759674433    5.26519278726645   -2.03137076081048
C        -2.28481415041740    3.71355772516513   -2.61849650418889
F        -3.57248484351731    3.52969131781858   -2.76852084903504
F        -1.82607049804117    3.84060583968494   -3.88102627665364
F        -2.17861915929149    4.92460764605774   -2.03252359926116
C        -4.58771739100659    2.05501427850264   -0.86520936817340
F        -4.62062038144744    2.76761648906612   -1.96773340122581
F        -5.53893906767380    1.13110947179783   -1.00495727352811
F        -4.97628739382913    2.85980913746223    0.11681620981737
C        -2.28101564520557   -3.72945098934131   -2.62887477817753
F        -3.57242991869094   -3.52932513073061   -2.76832300843765
F        -1.79559189245013   -3.84812004298541   -3.86188344935624
F        -2.14301264489746   -4.91707029241350   -2.04618971553658
C        -4.57160666176550   -2.04771353230305   -0.87362885850519
F        -4.62123810778530   -2.76832143940709   -1.96731434037631
F        -5.54696783410544   -1.13034549740576   -1.03618566267157
F        -4.97806285383745   -2.89395859271920    0.10562327690888
C        -1.43309317071309    1.03725080092331   -4.77908002182323
F        -0.67349327091614    0.42692218540647   -5.68545813874302
F        -2.66105539567622    0.60986591247313   -5.05016126139650
F        -1.48337819148864    2.31512218999662   -5.05361422308136
C         0.55019700376589    1.68132285983622   -4.77911568809561
F         0.29400138303270    0.74126464960953   -5.68556717015805
F        -0.16109811504252    2.74539236887174   -5.05411081699349
F         1.79420106245870    2.05752950049757   -5.05005010402787
156
 energy: -501.711249670959 gnorm: 6.478596017849 xtb: 6.4.1 (a3dbbd7)
C        -1.23640057213596    0.00425269618033    3.31623304788766
C        -0.37646561724968   -1.15795313566177    3.28733091682082
C         0.98712497074523   -0.71724975878516    3.29627803304498
C         0.99533124291712    0.73085410707678    3.31919099587763
C        -0.38021529608836    1.17202741416808    3.33383757140153
C         2.34862824238424   -2.60494359131835    0.59550827219153
C         3.20098715747134   -1.42357087683240    0.59336159134254
C         2.95038093402825   -0.70289720178153    1.81374421921700
C         1.95035096596508   -1.42350573794915    2.57333503689619
C         1.58330307493834   -2.60029437481472    1.83195035977431
C         3.19247030229086    1.42754408407443    0.58637687458172
C         2.34193247046032    2.60499251808770    0.59617286534562
C         1.57681118992213    2.60224595978809    1.82756075770048
C         1.96574166287975    1.43202829237569    2.59236526146520
C         2.95037837711195    0.70439305152243    1.82748461012648
C        -0.36831302762703    3.48183930156863    0.59775595619906
C        -1.74581046219430    3.02901420490744    0.59895696364540
C        -1.98097172049146    2.31420206033974    1.82262467665118
C        -0.75211123941365    2.31513029905314    2.59746553869117
C         0.25471953199865    3.03376954471329    1.82388831078707
C        -3.42507779579739    0.72187476704098    0.59663310405548
C        -3.41713074085843   -0.71787273799295    0.59986244598638
C        -2.81005329043666   -1.17167780792531    1.83140822237209
C        -2.42699304255554   -0.00131322247725    2.59519322365608
C        -2.81396308164428    1.17656496612088    1.83328433602962
C        -1.74506266302727   -3.03018064281058    0.58914523851483
C        -0.36753518833042   -3.48595780885988    0.59414856652835
C         0.25246746281707   -3.02663585745919    1.82187403362252
C        -0.74347040024498   -2.28048771184530    2.56442152145575
C        -1.98252074361879   -2.29116054096333    1.82348987507782
C        -0.23821185905178   -3.03205016757941   -1.83094779756215
C         0.74145260485188   -2.30657966215851   -2.59277595970358
C         1.98970560589435   -2.31405368182817   -1.83517059817795
C         1.73884884287453   -3.03608307000946   -0.59682282258759
C         0.37285257873984   -3.47574957032136   -0.59923899883666
C         2.81128722192036   -1.16400416197761   -1.82917062678341
C         2.42683298032922   -0.00069523989889   -2.58993263876094
C         2.80648778100718    1.17416572083051   -1.83036005084361
C         3.42528123940387    0.72224372838396   -0.60239475502325
C         3.42175242440131   -0.72314494885194   -0.60050490533061
C         1.98647844146025    2.30735377070150   -1.82745392455743
C         0.75423747329829    2.30969233462330   -2.59304569825030
C        -0.24042665579233    3.03115905243657   -1.82654583856177
C         0.37145859838379    3.48243160270614   -0.59210202269954
C         1.74743546761504    3.03156508091419   -0.59767865031886
C        -1.58605876385069    2.59300884557625   -1.82540622511131
C        -1.96733885097064    1.42556485868872   -2.59229215574920
C        -2.95903691444179    0.69563043601411   -1.83300215024235
C        -3.20400413336662    1.42872863668775   -0.59803448730635
C        -2.34244770556379    2.60490628168971   -0.59324235400780
C        -2.95852445261523   -0.69731668894020   -1.83442146764016
C        -1.96219967245383   -1.41878881222585   -2.59420429452376
C        -1.58555277026906   -2.60678865836998   -1.83577778299033
C        -2.34572119100929   -2.59962338977747   -0.59573024115924
C        -3.19162387603934   -1.42782094101131   -0.60251432298220
C        -0.99887476192009   -0.73224987534739   -3.32915826752243
C        -1.00276245045493    0.72314891161720   -3.32697197276540
C         0.38719327196151    1.17341286116275   -3.32534376955239
C         1.23807599153082   -0.00441850454914   -3.33122984444905
C         0.38141382223441   -1.17543388904073   -3.32980044109204
C        -1.79737434526422    0.00444202545591    4.74000648465808
F        -0.84515962583822    0.10379673827851    5.73020538513513
F        -2.61604524191350   -0.96333214958748    5.05221181916120
F        -2.50855682366552    1.06340400189196    5.06014769550849
C        -0.53493679498716   -1.66881720839003    4.69280889477309
F        -0.35379832007626   -0.84142241448316    5.75694112952998
F        -1.73940958510992   -2.10834157412140    5.13916840672652
F         0.16242964333242   -2.72957619186476    5.15829759316007
C         1.40859553949798   -1.03399067157132    4.68529502427295
F         0.77960148002472   -0.48576752854427    5.75509570830192
F         1.47357790129921   -2.30294083857284    5.16350000296513
F         2.64930371050754   -0.68348673040887    5.14140722961938
C         1.45211877985069    1.05105152628098    4.73718129013532
F         0.61753074919160    0.59355383801390    5.73094837758164
F         2.67712962291707    0.76016380872395    5.05961844101213
F         1.40675289986818    2.34225162271179    5.05740243602859
C         3.36680115412866   -3.73120769554418    0.85562852802036
F         4.06991445916530   -3.56824947031568    1.93519652629179
F         4.25981032277695   -3.84981036016004   -0.11354142265104
F         2.79156873465042   -4.91876889513107    1.00036839826552
C         4.18345010037224   -0.97769205288146    2.61653094830055
F         4.55604469798811   -2.31139117221754    2.72468470035465
F         5.39084238103388   -0.60913845526321    2.01517803373192
F         4.33777106798343   -0.57824544616523    3.83714683512891
C         2.79013795711445   -1.99540598013068    3.67904811233421
F         3.79751842008208   -2.85403566170041    3.29960408733090
F         3.36778030740422   -1.24070046053766    4.56978091694581
F         2.19378145773871   -2.98853688062580    4.46025415732134
C         4.58103509051455    2.03654942625833    0.84513880549847
F         4.61757525886618    2.85804967739125    1.91936284172533
F         4.97688801532023    2.86409836731526   -0.12164805599316
F         5.57323560700565    1.19493624190245    0.87619814111228
C         4.21991737564623    0.95942923944430    2.56723933423280
F         4.44898681598273    2.35373562214706    2.86584649152975
F         5.35195396612912    0.53759678896544    2.14920427830368
F         4.22143652654172    0.68042241670749    3.90793167868223
C        -1.08201583054011    3.32550817097726    3.71257509205462
F        -1.46288013417118    4.50352978449937    3.22644197694231
F        -2.05826402704223    2.90665567210136    4.50693529184741
F        -0.03549338319275    3.56348077634076    4.50492796915857
C        -4.89622303882889   -1.01495451953563    0.87810446493669
F        -5.37546217968996   -0.50014113983695    1.95507262974018
F        -5.74224386321087   -0.55970223843406   -0.05671016923165
F        -5.17519154144880   -2.31543614715448    1.09781952267267
C        -4.03653431796822    1.67867531339305    2.62743140935114
F        -4.96000624448012    0.77647909590433    2.78445479784945
F        -4.62415623041269    2.71907472622085    2.05011232656846
F        -3.72500995662702    2.05915708778473    3.85820987441849
C        -2.52024151520204   -4.32368315203942    0.81707995688257
F        -2.07869237665365   -5.06274620064206    1.89637439765445
F        -2.34271024791364   -5.24496426303737   -0.11427477107021
F        -3.80259049899095   -4.24282488661794    0.89213364906829
C         0.39211978528076   -4.31743685647490    2.61751571061560
F        -0.76615911331234   -5.07385610849665    2.69303737779727
F         1.15035339504931   -5.24687272813823    2.04454312977363
F         0.92448180597097   -4.24837390630672    3.80011063037616
C        -1.05653632462508   -3.22581248466991    3.69291358066188
F        -1.41059516780579   -4.53890453455943    3.39894710641298
F        -0.12604204069844   -3.62169250648769    4.55577386112079
F        -2.01239656491784   -2.97572509721439    4.56129135976754
C        -2.85405626627038   -3.25106169817278    2.61795391525319
F        -2.41250233217284   -4.52731030362432    2.75441079869853
F        -4.04491875852398   -3.50309739650907    2.15612474283159
F        -3.24105758265248   -2.88570369065055    3.80402707791308
C         2.83948655048702   -3.32410399556941   -2.62735622706851
F         2.23142365331913   -4.50351356563783   -2.75175258435636
F         3.10539793011453   -2.89731398542074   -3.86337200780891
F         4.01467567909251   -3.55733506739294   -2.05046011137550
C        -0.32760991220379    4.33976377464589   -2.60488810598718
F         0.84539463534983    4.95940098635289   -2.75465389867033
F        -0.71049155867563    4.20682341459196   -3.89837340603957
F        -1.06706374754436    5.29666620212767   -2.02612814592075